Title
81333
    1CHL1    C3    1   3.056   5.773  10.311  0.0494  0.1624 -0.2907
    1CHL1    H3    2   3.155   5.824  10.308 -0.7689  1.7681 -0.7821
    1CHL1    O3    3   2.991   5.793  10.439 -0.1085  0.2513 -0.2239
    1CHL1   H3'    4   2.897   5.775  10.431  0.2520 -1.2992 -1.2683
    1CHL1    C4    5   2.972   5.846  10.208  0.3123 -0.1976 -0.2726
    1CHL1   H4A    6   2.868   5.811  10.223  0.3978 -0.9068 -1.2496
    1CHL1   H4B    7   2.979   5.952  10.238  2.0763 -0.3512 -0.0876
    1CHL1    C5    8   3.014   5.818  10.063  0.1333 -0.2692  0.6442
    1CHL1    C6    9   3.049   5.917   9.973 -0.0706 -0.2501  0.6487
    1CHL1    H6   10   3.060   6.022  10.004 -2.4110  0.2512 -0.0913
    1CHL1    C7   11   3.104   5.891   9.831  0.4554  0.4319  0.1938
    1CHL1   H7A   12   3.072   5.967   9.757  1.9568  0.1087 -0.8066
    1CHL1   H7B   13   3.214   5.907   9.833  0.6918 -1.1171  0.5953
    1CHL1    C8   14   3.072   5.741   9.787  0.1072 -0.0886 -0.6123
    1CHL1    H8   15   2.963   5.750   9.767  0.3012  5.2389 -0.1160
    1CHL1   C14   16   3.140   5.703   9.656  0.2134 -0.0139 -0.5592
    1CHL1   H14   17   3.247   5.699   9.687 -0.0013 -2.3618 -0.0016
    1CHL1   C15   18   3.123   5.813   9.552 -0.6029  0.4822  0.4587
    1CHL1  H15A   19   3.033   5.877   9.561  0.8295  2.3234  2.1540
    1CHL1  H15B   20   3.212   5.876   9.572 -0.0815 -0.3861  0.8506
    1CHL1   C16   21   3.146   5.735   9.419  0.8264 -0.6386  0.5660
    1CHL1  H16A   22   3.051   5.750   9.363  0.0855  0.4411  2.0575
    1CHL1  H16B   23   3.219   5.790   9.357 -0.1573  1.0502  0.8768
    1CHL1   C17   24   3.174   5.587   9.459  0.1407  0.0501 -0.2184
    1CHL1   H17   25   3.284   5.591   9.475  0.6390  5.4672 -3.6038
    1CHL1   C13   26   3.110   5.569   9.601  0.5069  0.0003  0.3798
    1CHL1   C18   27   2.956   5.547   9.577  0.1663 -0.2348 -0.3808
    1CHL1  H18A   28   2.908   5.566   9.675 -2.5758  0.0057 -1.7176
    1CHL1  H18B   29   2.919   5.621   9.503  0.5408  0.9806  0.6362
    1CHL1  H18C   30   2.923   5.446   9.546 -0.6029 -0.6280  1.6322
    1CHL1   C12   31   3.171   5.472   9.706  0.0699  0.5439  0.5334
    1CHL1  H12A   32   3.171   5.362   9.691 -1.0838  0.9137 -2.4485
    1CHL1  H12B   33   3.279   5.498   9.717 -0.3258  2.1220  0.8738
    1CHL1   C11   34   3.110   5.492   9.849  0.0478  0.2147  0.1396
    1CHL1  H11A   35   3.004   5.462   9.838  0.0470 -0.0086  0.7445
    1CHL1  H11B   36   3.165   5.433   9.926  3.0096  1.2057 -1.1162
    1CHL1    C9   37   3.106   5.639   9.898  0.3246 -0.1607  0.1800
    1CHL1    H9   38   3.211   5.664   9.925 -0.0002  1.3454  0.1142
    1CHL1   C10   39   3.025   5.664  10.032 -0.3501 -0.4865  0.0036
    1CHL1   C19   40   2.876   5.597  10.028  0.0793  0.2236 -0.6221
    1CHL1  H19A   41   2.817   5.634   9.942 -0.3434  1.8908  0.3678
    1CHL1  H19B   42   2.893   5.489  10.006  1.0674  0.3240 -0.3799
    1CHL1  H19C   43   2.814   5.611  10.119 -1.9009 -1.2546 -1.7055
    1CHL1    C1   44   3.101   5.590  10.149 -0.8707 -0.8560  0.0723
    1CHL1   H1A   45   3.084   5.481  10.135 -1.9575 -0.4634 -1.8997
    1CHL1   H1B   46   3.209   5.616  10.138 -0.9177 -0.2878  0.9046
    1CHL1    C2   47   3.068   5.625  10.288 -0.1735 -0.1101 -0.5054
    1CHL1   H2A   48   3.140   5.570  10.351  2.0879  1.0454 -2.0329
    1CHL1   H2B   49   2.968   5.578  10.304 -0.4618  0.9097  0.7376
    1CHL1   C20   50   3.129   5.490   9.352 -0.2462  0.9906  1.0799
    1CHL1   H20   51   3.019   5.485   9.361 -0.4080 -2.3656 -1.5538
    1CHL1   C21   52   3.191   5.357   9.383 -0.1135 -0.0761  0.3176
    1CHL1  H21A   53   3.155   5.281   9.311  1.3157  0.8988 -1.4744
    1CHL1  H21B   54   3.159   5.317   9.482  2.4919  0.7357  1.5406
    1CHL1  H21C   55   3.302   5.358   9.372 -0.0269 -1.3880  0.9177
    1CHL1   C22   56   3.162   5.532   9.209  0.0712 -1.0824  0.5318
    1CHL1  H22A   57   3.111   5.630   9.196 -4.4255 -3.2107  1.4837
    1CHL1  H22B   58   3.273   5.528   9.202  0.0040 -1.4942 -0.2725
    1CHL1   C23   59   3.094   5.441   9.107 -0.1091 -0.0795  0.3143
    1CHL1  H23A   60   3.162   5.355   9.088  0.4685  0.7067 -1.2203
    1CHL1  H23B   61   2.995   5.405   9.143 -0.8760  0.6854 -0.9977
    1CHL1   C24   62   3.073   5.516   8.975  0.2158  0.1568  0.1869
    1CHL1  H24A   63   3.009   5.605   8.987 -0.5751  0.0216 -2.5328
    1CHL1  H24B   64   3.168   5.564   8.944  0.7097  0.6447  2.3898
    1CHL1   C25   65   3.032   5.435   8.853  0.2284  0.5202  0.6242
    1CHL1   H25   66   3.105   5.351   8.851 -0.2382  0.1275 -1.4602
    1CHL1   C26   67   2.894   5.380   8.851  0.7284  0.5987 -0.0467
    1CHL1  H26A   68   2.829   5.460   8.812  1.2292  1.0651  0.0675
    1CHL1  H26B   69   2.890   5.294   8.780  0.0335 -0.6368  1.4674
    1CHL1  H26C   70   2.861   5.329   8.944 -0.1306 -1.0125 -1.2127
    1CHL1   C27   71   3.055   5.521   8.723  0.1451  0.0866 -0.5587
    1CHL1  H27A   72   3.035   5.455   8.636 -1.4643  0.1329 -0.2413
    1CHL1  H27B   73   2.983   5.605   8.722 -0.5186 -0.4428  0.7318
    1CHL1  H27C   74   3.160   5.557   8.718  0.0821  0.1466 -1.5815
    2CHL1    C3   75   3.962   4.023   9.928 -0.2143  0.4334  0.0167
    2CHL1    H3   76   4.066   4.042   9.896 -1.0512  1.4443 -2.1938
    2CHL1    O3   77   3.962   4.027  10.071 -0.7601 -0.3142  0.4283
    2CHL1   H3'   78   4.000   3.947  10.106 -0.4747  0.4297  1.8685
    2CHL1    C4   79   3.864   4.125   9.867 -0.2411 -0.2034  0.6445
    2CHL1   H4A   80   3.760   4.099   9.894 -1.0353  2.2012  0.0374
    2CHL1   H4B   81   3.889   4.226   9.907 -1.4413  1.6323 -3.0357
    2CHL1    C5   82   3.882   4.122   9.711 -0.7943  0.0152 -0.8214
    2CHL1    C6   83   3.926   4.229   9.647 -0.0799 -0.0277  0.3010
    2CHL1    H6   84   3.957   4.314   9.709 -0.5014 -0.7340  1.4954
    2CHL1    C7   85   3.919   4.227   9.494  0.2504  0.1307  0.0103
    2CHL1   H7A   86   3.883   4.323   9.450  0.9031  0.3755  0.0024
    2CHL1   H7B   87   4.023   4.219   9.457  0.9057 -0.7591  2.0174
    2CHL1    C8   88   3.839   4.107   9.436  0.6208 -0.2432  0.7359
    2CHL1    H8   89   3.730   4.122   9.448  0.6094  2.1975 -2.0341
    2CHL1   C14   90   3.862   4.101   9.286 -0.0848 -0.2120 -0.0558
    2CHL1   H14   91   3.970   4.078   9.270 -0.8074 -3.5783 -0.3938
    2CHL1   C15   92   3.833   4.224   9.198  0.0897 -0.1358 -0.1795
    2CHL1  H15A   93   3.748   4.279   9.244  0.2234  0.7894 -1.0078
    2CHL1  H15B   94   3.913   4.299   9.177  0.2373 -0.4861 -0.8900
    2CHL1   C16   95   3.794   4.166   9.062  0.1027 -0.5189 -0.2830
    2CHL1  H16A   96   3.689   4.193   9.040 -0.6788  0.3702  4.0065
    2CHL1  H16B   97   3.849   4.211   8.977 -0.9445 -0.8876 -1.1695
    2CHL1   C17   98   3.819   4.010   9.069  0.0020  0.5578  0.1970
    2CHL1   H17   99   3.926   3.995   9.045 -0.1516  1.4402 -1.0674
    2CHL1   C13  100   3.793   3.980   9.216  0.0342  0.5632 -0.3531
    2CHL1   C18  101   3.640   3.997   9.240 -0.5366 -0.2318 -0.5082
    2CHL1  H18A  102   3.621   3.976   9.348  3.0723 -0.8678  0.0735
    2CHL1  H18B  103   3.607   4.098   9.207  0.3665  0.0284 -0.6342
    2CHL1  H18C  104   3.584   3.912   9.198  0.0076 -1.2582  0.8104
    2CHL1   C12  105   3.856   3.854   9.278 -0.3277 -0.4459  0.3503
    2CHL1  H12A  106   3.819   3.757   9.237  0.7691 -2.0322  2.9796
    2CHL1  H12B  107   3.966   3.861   9.267 -0.4521  1.9740  0.4880
    2CHL1   C11  108   3.834   3.846   9.426  0.0108  0.7477 -0.1797
    2CHL1  H11A  109   3.725   3.830   9.435  0.2152 -0.5120  0.2498
    2CHL1  H11B  110   3.892   3.762   9.470  1.8227  1.5462 -0.9976
    2CHL1    C9  111   3.876   3.978   9.498  0.3255  0.2540  0.1473
    2CHL1    H9  112   3.987   3.972   9.491  0.1858 -1.9797 -0.4172
    2CHL1   C10  113   3.845   3.985   9.653 -0.1503 -0.1783  0.5249
    2CHL1   C19  114   3.698   3.950   9.682 -1.4335  0.5087  1.1433
    2CHL1  H19A  115   3.679   3.945   9.791  1.4481 -1.8379  1.5976
    2CHL1  H19B  116   3.621   4.014   9.634 -1.1527  0.0949  0.1362
    2CHL1  H19C  117   3.690   3.846   9.646  1.1775 -0.2796  2.7157
    2CHL1    C1  118   3.939   3.879   9.717  0.5821 -0.1534  0.3751
    2CHL1   H1A  119   3.915   3.773   9.691  1.1988  0.2209 -1.8040
    2CHL1   H1B  120   4.044   3.892   9.683  0.8187  0.0324  1.1793
    2CHL1    C2  121   3.934   3.886   9.875 -0.4990  0.0245 -0.2446
    2CHL1   H2A  122   3.994   3.804   9.920  0.5228  0.8463 -0.1139
    2CHL1   H2B  123   3.833   3.862   9.916  0.1294 -0.4012  1.0600
    2CHL1   C20  124   3.739   3.931   8.962  0.3926 -0.2021 -0.1865
    2CHL1   H20  125   3.632   3.934   8.990  0.9413  0.6897  1.9304
    2CHL1   C21  126   3.803   3.794   8.948  0.2753  0.4161 -0.8999
    2CHL1  H21A  127   3.913   3.808   8.940  0.1453  2.1519  0.1054
    2CHL1  H21B  128   3.787   3.745   8.850 -1.2233 -0.5725 -0.1720
    2CHL1  H21C  129   3.783   3.723   9.031  1.1461  1.0512 -0.1351
    2CHL1   C22  130   3.730   3.998   8.819 -0.0697 -0.2430  0.1901
    2CHL1  H22A  131   3.709   4.107   8.825 -1.8258 -0.5008 -0.8705
    2CHL1  H22B  132   3.830   3.981   8.774 -0.2022 -0.6678  0.0623
    2CHL1   C23  133   3.632   3.914   8.729 -0.2523  0.5067  1.1066
    2CHL1  H23A  134   3.675   3.813   8.720 -0.4022  0.4781  0.6736
    2CHL1  H23B  135   3.528   3.918   8.769 -1.2901 -0.8609 -1.3324
    2CHL1   C24  136   3.623   3.984   8.587  0.4408 -0.2446  0.4418
    2CHL1  H24A  137   3.610   4.094   8.594 -3.2430 -0.5076 -1.2262
    2CHL1  H24B  138   3.715   3.968   8.527  0.5302 -0.6517  0.6837
    2CHL1   C25  139   3.502   3.927   8.512  0.2294  0.3388 -0.0950
    2CHL1   H25  140   3.413   3.964   8.568 -1.2208 -1.8938 -0.8507
    2CHL1   C26  141   3.493   3.982   8.371 -0.2685 -0.2947 -0.0293
    2CHL1  H26A  142   3.580   3.959   8.306  0.4203 -2.1948  1.5366
    2CHL1  H26B  143   3.402   3.940   8.324 -0.4314 -0.8883  0.8252
    2CHL1  H26C  144   3.478   4.092   8.371  0.6356 -0.1676  0.3797
    2CHL1   C27  145   3.497   3.773   8.505  0.2675 -0.0463 -0.4869
    2CHL1  H27A  146   3.604   3.751   8.486  0.5578 -0.9843  2.1218
    2CHL1  H27B  147   3.461   3.738   8.603  0.9995 -0.7927 -0.4828
    2CHL1  H27C  148   3.432   3.739   8.421  0.3431 -1.7392  0.1227
    3CHL1    C3  149   4.351   3.251  10.116 -0.4839 -0.0914 -0.0021
    3CHL1    H3  150   4.452   3.289  10.090 -0.1599  0.3383  1.8206
    3CHL1    O3  151   4.352   3.222  10.252  0.7993  0.1403  0.0323
    3CHL1   H3'  152   4.432   3.171  10.264  0.4481 -0.1105  1.3604
    3CHL1    C4  153   4.237   3.349  10.085  0.2367 -0.3815 -0.1698
    3CHL1   H4A  154   4.137   3.319  10.123  0.0180  0.5013 -0.0377
    3CHL1   H4B  155   4.248   3.431  10.159 -0.4627 -0.7333  0.3313
    3CHL1    C5  156   4.233   3.387   9.935 -0.1059 -0.1305 -0.4354
    3CHL1    C6  157   4.253   3.507   9.886  0.7075  0.3241 -0.0523
    3CHL1    H6  158   4.272   3.594   9.951  0.8357 -0.1852  0.5863
    3CHL1    C7  159   4.242   3.554   9.741  1.5712  0.3133 -0.5762
    3CHL1   H7A  160   4.176   3.642   9.733 -0.3396 -0.8316  1.8654
    3CHL1   H7B  161   4.341   3.589   9.705  2.1319  0.9302  1.4849
    3CHL1    C8  162   4.173   3.434   9.662  0.5763 -0.5774  0.8832
    3CHL1    H8  163   4.064   3.428   9.683  0.5835 -1.8987  0.5904
    3CHL1   C14  164   4.191   3.458   9.514 -0.5009  0.2717  0.2851
    3CHL1   H14  165   4.300   3.472   9.497 -0.2142 -2.5723 -0.5240
    3CHL1   C15  166   4.145   3.590   9.455 -0.4489 -0.3183  0.3965
    3CHL1  H15A  167   4.040   3.605   9.489 -0.7808  0.3554 -0.9128
    3CHL1  H15B  168   4.208   3.674   9.491  0.8128 -1.3151  0.5364
    3CHL1   C16  169   4.144   3.560   9.305 -0.3069 -0.3950 -1.0101
    3CHL1  H16A  170   4.055   3.603   9.255 -0.4889  2.8291  1.8901
    3CHL1  H16B  171   4.233   3.617   9.271 -0.8688  0.4611 -1.0604
    3CHL1   C17  172   4.163   3.406   9.279  0.4216 -0.4911  0.4540
    3CHL1   H17  173   4.270   3.390   9.257  0.1797 -2.0226  0.2973
    3CHL1   C13  174   4.141   3.348   9.426  0.2209  0.3382  0.0809
    3CHL1   C18  175   3.989   3.319   9.454 -0.0910  0.3102  0.7437
    3CHL1  H18A  176   3.957   3.236   9.387 -0.6923  1.2358 -0.1250
    3CHL1  H18B  177   3.968   3.287   9.558  1.3030  0.4778  1.0958
    3CHL1  H18C  178   3.925   3.405   9.425 -1.1091 -1.2155 -1.6853
    3CHL1   C12  179   4.221   3.224   9.444 -0.0027 -0.3786 -0.1990
    3CHL1  H12A  180   4.182   3.140   9.384 -1.9775  1.2732 -1.2815
    3CHL1  H12B  181   4.328   3.242   9.417  0.1508 -1.1530 -0.1016
    3CHL1   C11  182   4.210   3.183   9.593  0.4004  0.3285  0.0039
    3CHL1  H11A  183   4.107   3.148   9.616  0.8513 -0.8029  0.3334
    3CHL1  H11B  184   4.288   3.107   9.616  0.7716  0.5381 -0.5646
    3CHL1    C9  185   4.237   3.300   9.696 -0.0965 -0.0198  0.2523
    3CHL1    H9  186   4.346   3.318   9.688  0.4191 -3.1079 -0.1382
    3CHL1   C10  187   4.215   3.260   9.844  0.2276  0.0665  0.0017
    3CHL1   C19  188   4.071   3.221   9.869 -0.3072  0.0425 -0.5013
    3CHL1  H19A  189   4.068   3.162   9.963  1.1269 -0.7131 -0.9153
    3CHL1  H19B  190   4.000   3.307   9.868 -0.5605 -0.1594 -0.2044
    3CHL1  H19C  191   4.032   3.151   9.791 -0.5480 -0.0253 -0.3229
    3CHL1    C1  192   4.307   3.146   9.885 -1.2372  0.1215  0.0953
    3CHL1   H1A  193   4.299   3.043   9.843  1.5659 -0.3788  0.6736
    3CHL1   H1B  194   4.410   3.176   9.857 -1.2672  1.7767  1.6947
    3CHL1    C2  195   4.329   3.122  10.046 -0.2503  0.0047 -0.7109
    3CHL1   H2A  196   4.421   3.060  10.049 -0.3320 -0.1100 -0.6311
    3CHL1   H2B  197   4.241   3.069  10.088  1.1130 -0.0838  2.1604
    3CHL1   C20  198   4.086   3.353   9.157 -0.3968  0.3317 -0.0224
    3CHL1   H20  199   3.987   3.315   9.191 -0.8629  0.3616 -1.3141
    3CHL1   C21  200   4.164   3.236   9.108  0.2501  0.4046  0.7407
    3CHL1  H21A  201   4.115   3.178   9.027 -2.4569 -0.4993  2.9285
    3CHL1  H21B  202   4.197   3.160   9.182  0.1253  0.2174  0.6041
    3CHL1  H21C  203   4.263   3.276   9.078 -0.0014  1.0501  0.7654
    3CHL1   C22  204   4.054   3.458   9.048  0.0949 -0.2111 -0.0772
    3CHL1  H22A  205   3.971   3.520   9.088  2.1229  1.6124  1.4600
    3CHL1  H22B  206   4.141   3.520   9.015 -0.5927  0.2944 -0.9633
    3CHL1   C23  207   4.003   3.390   8.912  0.9943 -0.7628  0.3545
    3CHL1  H23A  208   4.082   3.344   8.849 -0.0477 -1.8461 -0.1734
    3CHL1  H23B  209   3.936   3.306   8.941  1.4255 -1.6776 -1.2667
    3CHL1   C24  210   3.924   3.490   8.820 -0.1681 -0.5784  0.0773
    3CHL1  H24A  211   3.846   3.545   8.876  0.8369 -0.4947  1.4039
    3CHL1  H24B  212   3.994   3.568   8.782  0.9552 -0.6539  1.9706
    3CHL1   C25  213   3.853   3.435   8.692  0.3633  0.6081 -0.2202
    3CHL1   H25  214   3.764   3.376   8.722  0.1494  2.0278  2.0888
    3CHL1   C26  215   3.809   3.553   8.600 -0.1379  0.1027 -0.2371
    3CHL1  H26A  216   3.906   3.596   8.566  0.5896 -0.1121  1.4658
    3CHL1  H26B  217   3.754   3.504   8.517 -1.3888  1.2417 -0.0773
    3CHL1  H26C  218   3.735   3.619   8.650 -1.0906 -0.5640 -0.7511
    3CHL1   C27  219   3.951   3.342   8.608  0.5405 -0.0200  0.2259
    3CHL1  H27A  220   3.949   3.242   8.656 -0.7954  0.8917  2.1413
    3CHL1  H27B  221   3.900   3.327   8.510  0.4662  0.8686  0.1251
    3CHL1  H27C  222   4.047   3.393   8.587  0.6650  0.2188  1.3394
    4CHL1    C3  223   3.832   5.483  10.576  0.3215  0.3770  0.1016
    4CHL1    H3  224   3.927   5.501  10.631  1.1071 -1.2091 -0.6791
    4CHL1    O3  225   3.744   5.450  10.685 -0.3108 -0.4843  0.8254
    4CHL1   H3'  226   3.781   5.376  10.733 -0.3300 -1.4117 -0.5840
    4CHL1    C4  227   3.777   5.598  10.497 -0.6853 -0.3337  0.6385
    4CHL1   H4A  228   3.671   5.572  10.477  0.0618 -1.5213 -1.9252
    4CHL1   H4B  229   3.776   5.689  10.560  1.2166 -1.0949  1.8143
    4CHL1    C5  230   3.850   5.628  10.363 -0.0984  0.0915 -0.3505
    4CHL1    C6  231   3.885   5.755  10.344 -0.9750 -0.0492 -0.7863
    4CHL1    H6  232   3.866   5.830  10.422  1.2415  1.4495 -1.6357
    4CHL1    C7  233   3.953   5.790  10.211  0.0719  0.3672  0.7294
    4CHL1   H7A  234   3.899   5.871  10.158 -2.5316 -0.2747  2.2752
    4CHL1   H7B  235   4.054   5.826  10.238  1.4594 -2.7780  0.0155
    4CHL1    C8  236   3.957   5.675  10.107  0.4143  0.5203  0.4479
    4CHL1    H8  237   3.856   5.681  10.062  1.0462  1.6893 -0.8503
    4CHL1   C14  238   4.062   5.706  10.002  0.0806 -0.1650  0.1218
    4CHL1   H14  239   4.160   5.689  10.052  0.1022 -0.2935  0.0363
    4CHL1   C15  240   4.072   5.844   9.940 -0.2727  0.1985 -0.3963
    4CHL1  H15A  241   3.975   5.895   9.958 -0.8781 -1.9825  3.0912
    4CHL1  H15B  242   4.135   5.915   9.997  0.0483  0.3166 -0.8987
    4CHL1   C16  243   4.123   5.832   9.803 -0.5826  0.2839 -0.1395
    4CHL1  H16A  244   4.050   5.867   9.728 -0.3170 -0.0668 -0.5626
    4CHL1  H16B  245   4.223   5.875   9.779  0.8709 -1.1928  2.9499
    4CHL1   C17  246   4.149   5.679   9.777 -1.3293 -0.0331  0.2795
    4CHL1   H17  247   4.251   5.650   9.812 -2.2934 -2.8169  0.9155
    4CHL1   C13  248   4.058   5.610   9.882  0.1641  0.5215  0.0517
    4CHL1   C18  249   3.915   5.600   9.813  0.5466 -0.2197 -1.0162
    4CHL1  H18A  250   3.838   5.564   9.885  3.9319  0.5732  3.1720
    4CHL1  H18B  251   3.888   5.698   9.768 -2.0926 -0.1322  0.6641
    4CHL1  H18C  252   3.912   5.524   9.732  1.2906  0.9484 -2.1684
    4CHL1   C12  253   4.100   5.474   9.939  0.4232 -0.5391 -0.1702
    4CHL1  H12A  254   4.086   5.401   9.856  1.3023  0.7614 -1.4820
    4CHL1  H12B  255   4.206   5.476   9.972  0.5063  1.9018 -0.5031
    4CHL1   C11  256   4.012   5.423  10.056  0.3529 -0.3729 -0.4332
    4CHL1  H11A  257   3.913   5.392  10.017 -0.1850  1.3436 -0.4878
    4CHL1  H11B  258   4.068   5.338  10.101 -0.5151  0.3155  2.0494
    4CHL1    C9  259   3.983   5.531  10.172 -0.3846 -0.6628 -0.0703
    4CHL1    H9  260   4.084   5.539  10.219 -0.1802  1.1788 -0.7696
    4CHL1   C10  261   3.877   5.500  10.278  0.8830  0.4321 -0.4168
    4CHL1   C19  262   3.740   5.468  10.218  0.0416  0.2495 -0.2763
    4CHL1  H19A  263   3.751   5.376  10.156  2.4177 -0.1825  0.7293
    4CHL1  H19B  264   3.663   5.451  10.296 -1.0836  1.6665 -1.0574
    4CHL1  H19C  265   3.709   5.547  10.147 -0.1445 -0.1027 -0.5881
    4CHL1    C1  266   3.931   5.384  10.364  0.5426 -0.3378 -0.7094
    4CHL1   H1A  267   3.929   5.298  10.293  0.0921 -0.5215 -0.4714
    4CHL1   H1B  268   4.035   5.403  10.399 -0.4087 -0.2624  2.1449
    4CHL1    C2  269   3.836   5.360  10.483 -0.3262 -0.2664  0.4216
    4CHL1   H2A  270   3.884   5.273  10.533  1.6056  0.5523  0.0409
    4CHL1   H2B  271   3.740   5.311  10.456 -0.1465 -1.4752  1.8580
    4CHL1   C20  272   4.146   5.628   9.628  0.9335 -0.8715  0.0249
    4CHL1   H20  273   4.046   5.639   9.580  0.3330 -1.8256  1.0253
    4CHL1   C21  274   4.195   5.483   9.628 -0.4255 -1.1270 -0.0226
    4CHL1  H21A  275   4.286   5.475   9.692  0.2135  0.8034 -0.6576
    4CHL1  H21B  276   4.205   5.449   9.523  0.1103 -0.5445 -0.1689
    4CHL1  H21C  277   4.122   5.406   9.658 -2.4360  0.7535  0.0251
    4CHL1   C22  278   4.251   5.708   9.552  0.6553 -0.0585 -0.2864
    4CHL1  H22A  279   4.205   5.807   9.533  0.2919 -0.3615 -0.9964
    4CHL1  H22B  280   4.354   5.715   9.593  0.4876 -0.7942  0.2477
    4CHL1   C23  281   4.283   5.668   9.410  0.0924 -0.6016  1.2168
    4CHL1  H23A  282   4.358   5.586   9.409  1.1924  0.3947 -0.4699
    4CHL1  H23B  283   4.185   5.641   9.364 -0.0433 -0.4002  1.3839
    4CHL1   C24  284   4.354   5.770   9.325 -0.8952  0.3759 -0.6345
    4CHL1  H24A  285   4.285   5.852   9.294  2.2595  3.9139  1.3141
    4CHL1  H24B  286   4.442   5.807   9.380  0.4240 -2.3180 -0.8488
    4CHL1   C25  287   4.427   5.711   9.206 -0.7795  0.1568 -0.3281
    4CHL1   H25  288   4.501   5.640   9.249 -0.0205  2.9335  3.2233
    4CHL1   C26  289   4.334   5.629   9.112 -0.4159  0.3004 -0.9965
    4CHL1  H26A  290   4.301   5.534   9.159  0.0574 -0.0299 -1.3169
    4CHL1  H26B  291   4.253   5.688   9.066 -0.1326  2.3865  1.0924
    4CHL1  H26C  292   4.390   5.593   9.023  0.2609 -0.9522 -0.0892
    4CHL1   C27  293   4.508   5.802   9.117  0.4212 -0.8595  0.9911
    4CHL1  H27A  294   4.586   5.859   9.172 -0.6056  2.5417 -0.9317
    4CHL1  H27B  295   4.554   5.764   9.024 -2.4198 -1.1359 -0.3748
    4CHL1  H27C  296   4.441   5.884   9.083 -1.9940 -3.0096  0.3297
    5CHL1    C3  297   4.818   3.446  10.023 -0.6994 -0.4246 -0.0303
    5CHL1    H3  298   4.854   3.530   9.959  2.1247  2.7134  5.3432
    5CHL1    O3  299   4.784   3.497  10.153  0.0459 -0.0679  0.6697
    5CHL1   H3'  300   4.833   3.445  10.217  1.0932 -1.9366 -1.5764
    5CHL1    C4  301   4.685   3.389   9.963  0.1093 -0.4475 -0.0790
    5CHL1   H4A  302   4.662   3.300  10.025 -1.4814  0.4804  0.7151
    5CHL1   H4B  303   4.603   3.461   9.985 -0.0552 -0.5153 -0.4538
    5CHL1    C5  304   4.699   3.353   9.816 -0.1892  0.1437 -0.4889
    5CHL1    C6  305   4.622   3.406   9.722  0.3733 -0.4077  0.1635
    5CHL1    H6  306   4.537   3.472   9.747 -0.5146 -1.6616  0.5051
    5CHL1    C7  307   4.626   3.371   9.577 -0.7015 -0.6208  0.1045
    5CHL1   H7A  308   4.531   3.348   9.526 -0.8335 -1.2638  0.6191
    5CHL1   H7B  309   4.681   3.452   9.525 -0.1517 -0.4208  0.9775
    5CHL1    C8  310   4.715   3.236   9.560 -0.0768  0.7524  0.3255
    5CHL1    H8  311   4.645   3.156   9.593 -0.4027  1.3429  1.0690
    5CHL1   C14  312   4.756   3.212   9.415 -0.1609  0.0447  0.0580
    5CHL1   H14  313   4.820   3.301   9.398  2.0530 -1.5237 -0.0226
    5CHL1   C15  314   4.640   3.216   9.318 -0.0935 -0.4677  0.5794
    5CHL1  H15A  315   4.554   3.150   9.342 -0.3236 -1.0186 -1.5807
    5CHL1  H15B  316   4.608   3.319   9.293  0.6994 -0.5017 -0.6514
    5CHL1   C16  317   4.703   3.163   9.188 -0.3206  0.7415  0.0343
    5CHL1  H16A  318   4.646   3.078   9.145 -0.3787  0.6517  0.2852
    5CHL1  H16B  319   4.710   3.247   9.115  0.5607 -0.9153 -1.8358
    5CHL1   C17  320   4.853   3.112   9.223 -0.2962 -0.4079 -0.1720
    5CHL1   H17  321   4.927   3.192   9.201  0.4159 -1.1741 -0.5451
    5CHL1   C13  322   4.845   3.092   9.379 -0.0742 -0.4860  0.3042
    5CHL1   C18  323   4.766   2.962   9.411 -0.5786  0.3382  0.2141
    5CHL1  H18A  324   4.733   2.939   9.515  1.5102  0.0956  0.8613
    5CHL1  H18B  325   4.675   2.946   9.350 -0.2321 -2.8158  0.4772
    5CHL1  H18C  326   4.844   2.892   9.374  1.9039  2.5571  1.0191
    5CHL1   C12  327   4.971   3.092   9.467  0.0708  0.3138 -0.0534
    5CHL1  H12A  328   5.022   2.993   9.472  3.0763  1.7718 -0.2943
    5CHL1  H12B  329   5.046   3.167   9.432  2.2912 -1.0690  1.5489
    5CHL1   C11  330   4.936   3.113   9.609  0.1035  0.2152 -0.4822
    5CHL1  H11A  331   4.885   3.021   9.645  2.4456 -0.1947  1.9585
    5CHL1  H11B  332   5.034   3.127   9.659  1.8189 -3.3640 -2.6350
    5CHL1    C9  333   4.847   3.236   9.649 -0.6208  0.2085  0.3631
    5CHL1    H9  334   4.900   3.325   9.607  0.7620  0.1704  1.9417
    5CHL1   C10  335   4.820   3.249   9.793  0.1419 -0.8086  0.0210
    5CHL1   C19  336   4.775   3.120   9.853 -0.1780  0.3371  0.7829
    5CHL1  H19A  337   4.733   3.124   9.956 -2.7794 -0.7643 -0.1870
    5CHL1  H19B  338   4.691   3.081   9.791  0.2123  0.3472  0.2404
    5CHL1  H19C  339   4.855   3.043   9.857  0.6265  1.0100 -1.4098
    5CHL1    C1  340   4.952   3.297   9.867 -0.1090 -0.8820 -0.4372
    5CHL1   H1A  341   5.034   3.226   9.848  2.5598  0.8731  3.7410
    5CHL1   H1B  342   4.997   3.384   9.814  1.6686 -2.8665 -2.2417
    5CHL1    C2  343   4.934   3.347  10.012  0.7539  0.1064 -0.6359
    5CHL1   H2A  344   5.033   3.367  10.059  1.4307 -2.7084 -0.8072
    5CHL1   H2B  345   4.905   3.252  10.062  1.0603  0.3635  0.0393
    5CHL1   C20  346   4.899   2.990   9.135  1.2558 -0.5520  0.2758
    5CHL1   H20  347   4.841   2.898   9.155  1.4091 -0.5939  0.5204
    5CHL1   C21  348   5.053   2.961   9.174  0.1218 -0.8345 -0.4392
    5CHL1  H21A  349   5.109   2.898   9.102  0.7044 -0.6113 -0.1866
    5CHL1  H21B  350   5.058   2.917   9.276 -1.0240  3.1369  1.4411
    5CHL1  H21C  351   5.110   3.057   9.168  1.7271 -1.6850  0.6689
    5CHL1   C22  352   4.893   3.027   8.985  0.0047 -0.2869  0.6665
    5CHL1  H22A  353   4.797   3.078   8.958 -0.2473 -1.7560 -1.2687
    5CHL1  H22B  354   4.974   3.100   8.961 -0.5453  0.5558  1.3099
    5CHL1   C23  355   4.903   2.908   8.890 -0.5704 -0.0579 -0.3004
    5CHL1  H23A  356   5.003   2.859   8.900 -0.5276  0.3636  1.5626
    5CHL1  H23B  357   4.832   2.827   8.917  0.3155 -0.4013  1.0704
    5CHL1   C24  358   4.879   2.947   8.743 -0.0469  0.2454 -0.6548
    5CHL1  H24A  359   4.839   2.854   8.698 -0.3152  1.3313 -2.7369
    5CHL1  H24B  360   4.804   3.028   8.732 -0.2566  0.5796  2.8090
    5CHL1   C25  361   5.012   2.971   8.664 -0.6150 -0.4072  0.6593
    5CHL1   H25  362   5.081   2.885   8.672  0.9256  0.7393 -0.1317
    5CHL1   C26  363   4.990   2.989   8.513  0.0409  0.3242  0.1457
    5CHL1  H26A  364   4.922   3.074   8.491 -1.0362 -0.4110  0.5624
    5CHL1  H26B  365   5.087   2.994   8.461  0.4177 -2.2967  0.5266
    5CHL1  H26C  366   4.950   2.892   8.475  1.7395 -0.5861  0.6544
    5CHL1   C27  367   5.090   3.085   8.713  0.1483 -0.4062 -0.5405
    5CHL1  H27A  368   5.175   3.120   8.650  0.9219 -0.7813  0.2682
    5CHL1  H27B  369   5.025   3.174   8.725 -0.2369 -0.7582 -0.0131
    5CHL1  H27C  370   5.142   3.066   8.810  0.3523  1.3666 -0.2775
    6CHL1    C3  371   2.467   0.819  10.274 -1.0241 -0.2873  0.1117
    6CHL1    H3  372   2.426   0.921  10.290  0.2022  0.9139 -3.8509
    6CHL1    O3  373   2.480   0.755  10.401 -0.2284 -0.8628 -0.5194
    6CHL1   H3'  374   2.536   0.679  10.387  1.6089  0.4183 -0.3334
    6CHL1    C4  375   2.371   0.744  10.181  0.3398 -0.0277 -0.5930
    6CHL1   H4A  376   2.418   0.643  10.180  1.6690  0.5806 -2.3493
    6CHL1   H4B  377   2.274   0.728  10.232  1.1255  0.1138  0.9590
    6CHL1    C5  378   2.354   0.802  10.043  0.3774 -0.2570 -0.3711
    6CHL1    C6  379   2.231   0.841   9.992 -0.9159  0.4637  1.0999
    6CHL1    H6  380   2.145   0.828  10.059 -1.2897 -1.3222  0.3241
    6CHL1    C7  381   2.207   0.899   9.857  0.3554 -0.0930  0.7110
    6CHL1   H7A  382   2.126   0.840   9.809  1.5823  0.6565 -2.3590
    6CHL1   H7B  383   2.174   1.004   9.870 -0.1908 -0.5122  2.8735
    6CHL1    C8  384   2.334   0.899   9.763  0.0905  0.2918 -0.3086
    6CHL1    H8  385   2.334   0.794   9.724 -0.7869 -0.1220  0.7923
    6CHL1   C14  386   2.319   0.993   9.649 -0.0898  0.1599 -0.1825
    6CHL1   H14  387   2.318   1.091   9.701 -2.3128 -0.6671  1.4068
    6CHL1   C15  388   2.192   0.990   9.556  0.0946  0.0306 -0.3779
    6CHL1  H15A  389   2.168   0.883   9.539 -0.4303  0.0756  0.0842
    6CHL1  H15B  390   2.109   1.046   9.604  1.1594  0.6209  0.8018
    6CHL1   C16  391   2.242   1.053   9.422 -0.6443 -0.2630 -0.4915
    6CHL1  H16A  392   2.229   0.982   9.338 -1.4380  0.7221 -1.2198
    6CHL1  H16B  393   2.181   1.145   9.405 -1.1242 -0.1114  1.8536
    6CHL1   C17  394   2.389   1.089   9.444 -0.3436  0.1913 -0.5767
    6CHL1   H17  395   2.392   1.189   9.493  0.6603  0.6852 -1.6155
    6CHL1   C13  396   2.441   1.003   9.554  0.5146 -0.1738  0.3963
    6CHL1   C18  397   2.461   0.860   9.496 -0.9411 -0.3609 -0.0286
    6CHL1  H18A  398   2.552   0.857   9.432 -1.2853 -1.8658 -0.4675
    6CHL1  H18B  399   2.491   0.787   9.574  0.9860  0.0669 -0.3432
    6CHL1  H18C  400   2.378   0.819   9.435  1.0503 -1.0092 -2.3501
    6CHL1   C12  401   2.559   1.050   9.633  1.0268 -0.5107  1.4351
    6CHL1  H12A  402   2.651   1.041   9.572 -0.5068  1.1824 -1.2249
    6CHL1  H12B  403   2.541   1.154   9.667 -1.4082 -1.1204  2.1307
    6CHL1   C11  404   2.580   0.954   9.757  0.0290 -0.3506 -0.8912
    6CHL1  H11A  405   2.610   0.856   9.715  1.7078 -0.1068 -0.3146
    6CHL1  H11B  406   2.667   0.986   9.817  1.8543 -1.5932 -2.8048
    6CHL1    C9  407   2.461   0.931   9.847 -0.0042 -0.2095 -0.3428
    6CHL1    H9  408   2.435   1.031   9.889  0.4903  0.1114 -0.7978
    6CHL1   C10  409   2.486   0.833   9.970 -0.0876 -0.1721 -0.1985
    6CHL1   C19  410   2.557   0.705   9.916  0.6764 -0.1874 -0.0972
    6CHL1  H19A  411   2.512   0.670   9.821 -1.2197 -0.7645  0.9621
    6CHL1  H19B  412   2.666   0.724   9.911  1.0742 -1.8010  1.7192
    6CHL1  H19C  413   2.546   0.613   9.978 -0.8479  0.4886  0.6712
    6CHL1    C1  414   2.579   0.908  10.071 -0.0668  0.1922 -0.6713
    6CHL1   H1A  415   2.665   0.960  10.023  0.1639 -0.0540 -0.5225
    6CHL1   H1B  416   2.519   0.996  10.104  1.4570  1.3973 -1.0730
    6CHL1    C2  417   2.602   0.831  10.208 -0.0204 -0.5249  0.4793
    6CHL1   H2A  418   2.663   0.891  10.278 -0.0335 -0.5074  0.4759
    6CHL1   H2B  419   2.650   0.732  10.196 -0.8288 -0.8674  0.0217
    6CHL1   C20  420   2.471   1.092   9.311 -0.3451  0.7642  0.5730
    6CHL1   H20  421   2.469   0.986   9.278  1.6671  1.0387 -0.5037
    6CHL1   C21  422   2.614   1.148   9.323 -0.2811  0.2288  0.1020
    6CHL1  H21A  423   2.662   1.163   9.224  1.9037 -0.9803  0.9397
    6CHL1  H21B  424   2.677   1.071   9.374  1.2633  1.5891  0.2717
    6CHL1  H21C  425   2.625   1.235   9.390  1.1786 -1.1959  1.7741
    6CHL1   C22  426   2.401   1.172   9.195  0.3038  0.2516 -0.8446
    6CHL1  H22A  427   2.302   1.123   9.182  0.7643 -0.7899 -0.4636
    6CHL1  H22B  428   2.389   1.279   9.224 -0.8351  0.4823 -2.0917
    6CHL1   C23  429   2.474   1.183   9.056  0.9761  0.1119  0.6755
    6CHL1  H23A  430   2.552   1.261   9.066  0.9697  0.2154 -0.0823
    6CHL1  H23B  431   2.517   1.086   9.023  2.3267 -0.0872  2.9185
    6CHL1   C24  432   2.366   1.212   8.953 -0.2383  0.3874 -0.4651
    6CHL1  H24A  433   2.271   1.154   8.963 -0.4932  0.5200 -1.9680
    6CHL1  H24B  434   2.339   1.319   8.960 -0.5569  0.2618  0.3409
    6CHL1   C25  435   2.409   1.180   8.808  0.4312 -0.0348 -0.3023
    6CHL1   H25  436   2.427   1.071   8.804  1.9841  0.1976 -0.0619
    6CHL1   C26  437   2.291   1.224   8.713  0.5059  0.5209  0.1342
    6CHL1  H26A  438   2.189   1.185   8.732  1.0733  0.6925  3.7850
    6CHL1  H26B  439   2.271   1.333   8.727 -2.6427  0.0439 -0.1546
    6CHL1  H26C  440   2.319   1.190   8.611 -1.5427 -1.3822  0.1617
    6CHL1   C27  441   2.544   1.241   8.773  0.8559 -0.1688 -0.0221
    6CHL1  H27A  442   2.575   1.177   8.688  0.8448 -1.6256  1.0584
    6CHL1  H27B  443   2.543   1.349   8.745 -3.8714  0.1758  1.1140
    6CHL1  H27C  444   2.618   1.243   8.856  2.0409  3.1340 -1.0934
    7CHL1    C3  445   5.559   3.859  10.505  0.2983 -0.1375  0.3193
    7CHL1    H3  446   5.544   3.752  10.476 -0.0182 -0.0644  0.2122
    7CHL1    O3  447   5.551   3.854  10.646  0.2242  0.0452 -1.3276
    7CHL1   H3'  448   5.511   3.939  10.667  0.5499  0.1675 -1.1956
    7CHL1    C4  449   5.686   3.922  10.454  0.4185 -0.6507 -0.1330
    7CHL1   H4A  450   5.704   4.016  10.510  0.5762 -0.4208 -0.5651
    7CHL1   H4B  451   5.770   3.857  10.485  2.8442  1.6576 -1.6776
    7CHL1    C5  452   5.684   3.927  10.301 -0.0204 -0.0236  0.1578
    7CHL1    C6  453   5.775   3.856  10.229  0.0678 -0.5617 -0.6185
    7CHL1    H6  454   5.861   3.807  10.275  2.0511  2.2877 -1.1069
    7CHL1    C7  455   5.786   3.867  10.077  0.1190 -0.2760 -0.7578
    7CHL1   H7A  456   5.888   3.877  10.034 -0.3260  2.9023 -1.1541
    7CHL1   H7B  457   5.747   3.772  10.034  1.6089 -1.4353  0.4103
    7CHL1    C8  458   5.697   3.978  10.012 -0.6907 -0.0604  0.3533
    7CHL1    H8  459   5.754   4.071  10.036 -0.2691  0.1504 -1.4171
    7CHL1   C14  460   5.682   3.952   9.862 -0.8825 -0.0598  0.1461
    7CHL1   H14  461   5.638   3.850   9.857  1.6932 -1.1666 -0.8392
    7CHL1   C15  462   5.802   3.942   9.767 -0.4120 -0.2359  0.1013
    7CHL1  H15A  463   5.860   4.034   9.791  0.7151 -0.3874 -1.9309
    7CHL1  H15B  464   5.862   3.849   9.775 -1.4276 -0.7128  2.5105
    7CHL1   C16  465   5.731   3.950   9.629 -0.0550  0.5433  0.0717
    7CHL1  H16A  466   5.798   4.018   9.573  1.7922 -0.0931  1.4475
    7CHL1  H16B  467   5.729   3.849   9.583 -0.5080  1.1495 -1.2603
    7CHL1   C17  468   5.584   4.000   9.649  0.0792 -1.0364  0.2273
    7CHL1   H17  469   5.519   3.911   9.659  0.5259 -1.4188 -0.3159
    7CHL1   C13  470   5.583   4.049   9.797 -0.0260  0.3590 -0.3582
    7CHL1   C18  471   5.634   4.195   9.811 -1.0314 -0.0368  0.0286
    7CHL1  H18A  472   5.561   4.263   9.762  0.2199  0.6362 -0.9288
    7CHL1  H18B  473   5.648   4.226   9.917 -2.0054  2.1514 -0.4462
    7CHL1  H18C  474   5.736   4.202   9.768 -1.9905  1.9045 -1.9942
    7CHL1   C12  475   5.453   4.023   9.870 -0.0841 -0.5833  0.6103
    7CHL1  H12A  476   5.375   4.084   9.821  2.1226  1.2954 -0.6566
    7CHL1  H12B  477   5.431   3.914   9.875 -0.7044 -0.5175 -0.6052
    7CHL1   C11  478   5.459   4.069  10.019  0.1800 -0.2688 -0.0758
    7CHL1  H11A  479   5.474   4.178  10.031 -2.1563  0.0828 -0.2199
    7CHL1  H11B  480   5.362   4.042  10.065 -0.8112  0.9106 -1.4207
    7CHL1    C9  481   5.566   3.985  10.085 -0.6252  0.2755  0.5511
    7CHL1    H9  482   5.525   3.882  10.073  1.7348 -0.7452  1.0192
    7CHL1   C10  483   5.573   4.009  10.235  0.1074  0.6704  0.3776
    7CHL1   C19  484   5.591   4.165  10.266 -0.2586  0.7434 -0.7699
    7CHL1  H19A  485   5.679   4.206  10.213  1.5593 -2.9362 -0.7922
    7CHL1  H19B  486   5.504   4.218  10.222  0.7505  0.3812 -3.3275
    7CHL1  H19C  487   5.596   4.187  10.374  0.3117 -0.8190 -0.4537
    7CHL1    C1  488   5.436   3.977  10.295 -0.1860 -0.1261 -0.2013
    7CHL1   H1A  489   5.367   4.062  10.280  0.9090  1.0882  1.5628
    7CHL1   H1B  490   5.390   3.887  10.249  0.9866  0.1880 -2.0467
    7CHL1    C2  491   5.441   3.948  10.451 -0.1792 -0.4026  1.1159
    7CHL1   H2A  492   5.343   3.906  10.483 -0.5733  0.8154  1.5190
    7CHL1   H2B  493   5.462   4.041  10.509  2.5375 -0.8786  0.9562
    7CHL1   C20  494   5.531   4.091   9.535  0.2055 -0.1088 -0.3639
    7CHL1   H20  495   5.588   4.186   9.531  0.5522 -0.2495  0.8815
    7CHL1   C21  496   5.387   4.136   9.558 -0.4523 -0.1723 -0.4783
    7CHL1  H21A  497   5.352   4.174   9.460  0.8902 -1.1223 -1.3348
    7CHL1  H21B  498   5.385   4.216   9.636 -0.7600 -0.8763  0.2452
    7CHL1  H21C  499   5.316   4.055   9.583 -0.4566  0.5166  1.9461
    7CHL1   C22  500   5.542   4.042   9.391  0.1570 -0.4329 -0.6696
    7CHL1  H22A  501   5.506   4.115   9.316  0.0291 -0.0552 -0.2426
    7CHL1  H22B  502   5.651   4.046   9.372  0.0638  1.4634 -0.8706
    7CHL1   C23  503   5.478   3.907   9.355  0.1980  0.1140  0.0546
    7CHL1  H23A  504   5.537   3.835   9.417  0.9456 -0.0032 -0.7878
    7CHL1  H23B  505   5.373   3.907   9.392 -0.5055  0.2219 -1.9139
    7CHL1   C24  506   5.482   3.859   9.208  0.4083  0.0032  0.0169
    7CHL1  H24A  507   5.432   3.760   9.201 -1.8561  1.2055 -1.3794
    7CHL1  H24B  508   5.435   3.925   9.132 -1.7638 -2.1123 -0.5314
    7CHL1   C25  509   5.632   3.827   9.169 -0.0456 -0.5950  0.4513
    7CHL1   H25  510   5.689   3.918   9.198 -3.1132  0.9716  1.8062
    7CHL1   C26  511   5.697   3.704   9.224  0.4269  0.1960  0.3238
    7CHL1  H26A  512   5.798   3.688   9.180 -0.2075 -0.6033 -0.8897
    7CHL1  H26B  513   5.704   3.710   9.334 -0.4158 -2.4138  0.5614
    7CHL1  H26C  514   5.632   3.618   9.198  1.0495 -0.7087  1.7582
    7CHL1   C27  515   5.634   3.810   9.024  0.6580  0.2448  0.4801
    7CHL1  H27A  516   5.560   3.733   8.992  0.8947 -0.1452  0.8703
    7CHL1  H27B  517   5.610   3.893   8.953 -1.1702  0.6832  1.5832
    7CHL1  H27C  518   5.732   3.777   8.981  0.6759 -0.2942  0.9298
    8CHL1    C3  519   6.430   5.613  10.264 -0.2557  0.1864 -0.4134
    8CHL1    H3  520   6.335   5.671  10.259 -0.4184  0.1570  1.7673
    8CHL1    O3  521   6.492   5.637  10.385 -0.3007  0.5712 -0.0977
    8CHL1   H3'  522   6.488   5.730  10.406  1.6624  0.7049 -0.2021
    8CHL1    C4  523   6.383   5.463  10.259 -0.7164 -0.4301 -0.8361
    8CHL1   H4A  524   6.471   5.400  10.281 -1.8382 -2.6068 -2.3851
    8CHL1   H4B  525   6.321   5.460  10.351  0.6912 -2.1511  0.0871
    8CHL1    C5  526   6.312   5.431  10.132  0.3061 -0.5382  0.2099
    8CHL1    C6  527   6.194   5.379  10.118 -0.0199 -0.0285 -0.7147
    8CHL1    H6  528   6.141   5.361  10.213  0.4570 -0.0944 -0.4595
    8CHL1    C7  529   6.137   5.325   9.989  0.3257  0.1899  0.1886
    8CHL1   H7A  530   6.105   5.219   9.999 -1.1468  0.6853  0.8100
    8CHL1   H7B  531   6.058   5.396   9.960 -0.8644 -1.7371 -1.3886
    8CHL1    C8  532   6.238   5.322   9.875  0.1815  0.3814  0.5372
    8CHL1    H8  533   6.300   5.232   9.894  0.5474  1.1671  3.2637
    8CHL1   C14  534   6.167   5.326   9.735 -0.3098 -0.1050 -0.0423
    8CHL1   H14  535   6.137   5.432   9.722 -0.0951  0.0043  0.3613
    8CHL1   C15  536   6.051   5.235   9.706  0.4841  0.7750 -0.1097
    8CHL1  H15A  537   6.069   5.129   9.736  0.4905  0.3730 -1.5317
    8CHL1  H15B  538   5.961   5.264   9.764 -0.2011  0.8990 -1.2188
    8CHL1   C16  539   6.031   5.240   9.558  0.0375 -0.3636  0.3975
    8CHL1  H16A  540   6.024   5.134   9.525  1.7607 -0.3747  0.0213
    8CHL1  H16B  541   5.938   5.288   9.521  1.4439  2.2130  0.0468
    8CHL1   C17  542   6.156   5.310   9.497 -0.2993 -0.0985 -0.3429
    8CHL1   H17  543   6.141   5.418   9.478 -1.2820 -0.3842 -1.2304
    8CHL1   C13  544   6.261   5.308   9.613 -0.5651 -0.1777  0.3843
    8CHL1   C18  545   6.328   5.169   9.631  0.1397  0.1020  0.9522
    8CHL1  H18A  546   6.394   5.144   9.545  1.2160  0.5982  1.6205
    8CHL1  H18B  547   6.395   5.175   9.720  0.6139  1.7020  0.5081
    8CHL1  H18C  548   6.248   5.092   9.640 -0.2930  0.6152  1.5632
    8CHL1   C12  549   6.370   5.419   9.614  1.2690 -0.0093  0.8869
    8CHL1  H12A  550   6.443   5.381   9.540 -1.0174  1.0639 -2.0248
    8CHL1  H12B  551   6.313   5.510   9.583 -1.7163 -1.8020  0.8858
    8CHL1   C11  552   6.435   5.438   9.753  0.3844 -0.5246  0.1167
    8CHL1  H11A  553   6.502   5.350   9.757 -0.6657 -1.3432 -0.0459
    8CHL1  H11B  554   6.486   5.536   9.743  1.5173 -1.2105 -0.8167
    8CHL1    C9  555   6.332   5.443   9.874 -0.1653  0.0026  0.3156
    8CHL1    H9  556   6.278   5.539   9.860 -0.6052 -0.3907 -0.7477
    8CHL1   C10  557   6.405   5.464  10.010 -0.3303 -0.0485 -0.5376
    8CHL1   C19  558   6.523   5.368  10.018 -0.0748  0.4794  0.4580
    8CHL1  H19A  559   6.580   5.356  10.112 -0.0534 -0.3641  0.3412
    8CHL1  H19B  560   6.496   5.266   9.984  0.4942  0.7490 -0.8581
    8CHL1  H19C  561   6.597   5.405   9.944 -0.4542 -0.7405 -0.5657
    8CHL1    C1  562   6.451   5.614  10.017 -0.3753 -0.7903 -0.2272
    8CHL1   H1A  563   6.527   5.644   9.941  1.0910  0.1436  1.5628
    8CHL1   H1B  564   6.371   5.677   9.973 -0.8214 -1.7652 -0.8372
    8CHL1    C2  565   6.520   5.661  10.152 -0.2477  0.3600 -0.3027
    8CHL1   H2A  566   6.515   5.772  10.159 -1.0382  0.4235 -1.7439
    8CHL1   H2B  567   6.621   5.617  10.168  0.6183  2.4543  0.0928
    8CHL1   C20  568   6.188   5.250   9.363 -0.1603  0.4717  0.5258
    8CHL1   H20  569   6.213   5.143   9.379  1.7968  0.4381 -2.2875
    8CHL1   C21  570   6.321   5.305   9.305 -0.4046 -0.2607 -0.0638
    8CHL1  H21A  571   6.336   5.259   9.205 -1.1413 -0.4903 -0.0757
    8CHL1  H21B  572   6.410   5.279   9.366  0.8329  2.7052 -0.5381
    8CHL1  H21C  573   6.314   5.415   9.292  0.7620 -0.4838 -2.8873
    8CHL1   C22  574   6.072   5.255   9.265  0.2534  0.8715  0.1888
    8CHL1  H22A  575   6.106   5.207   9.170  1.8144  0.0642  1.1458
    8CHL1  H22B  576   5.985   5.196   9.302 -1.8008  1.9801 -2.6183
    8CHL1   C23  577   6.028   5.396   9.234  0.1840 -1.1817  0.1496
    8CHL1  H23A  578   6.002   5.448   9.328 -1.2493 -1.5245 -0.0397
    8CHL1  H23B  579   6.117   5.446   9.190 -0.2157 -0.1433  0.4837
    8CHL1   C24  580   5.921   5.416   9.124 -0.2872 -0.2493  0.2070
    8CHL1  H24A  581   5.911   5.524   9.096  3.1009  0.1733  0.4830
    8CHL1  H24B  582   5.947   5.356   9.034 -1.4544 -1.0391  0.3892
    8CHL1   C25  583   5.785   5.366   9.155 -0.1802  0.3237 -0.4680
    8CHL1   H25  584   5.797   5.256   9.167 -0.7458  0.2839 -0.2694
    8CHL1   C26  585   5.718   5.414   9.279  0.4526 -0.1252 -0.9516
    8CHL1  H26A  586   5.614   5.376   9.286  0.8728 -0.8349  1.9097
    8CHL1  H26B  587   5.765   5.383   9.374 -1.2323 -1.3692 -0.5163
    8CHL1  H26C  588   5.705   5.525   9.278 -3.3983 -0.4899 -1.3587
    8CHL1   C27  589   5.686   5.381   9.035  0.1924 -0.5880 -0.3418
    8CHL1  H27A  590   5.661   5.486   9.012  1.1207  0.0693  1.6050
    8CHL1  H27B  591   5.732   5.346   8.939 -0.3145 -0.1810 -0.7378
    8CHL1  H27C  592   5.595   5.317   9.041  0.1123 -0.5496 -1.0985
    9CHL1    C3  593   1.805   1.567  10.098  0.2259  0.4084 -0.0586
    9CHL1    H3  594   1.828   1.665  10.146  2.2129 -0.3960  0.6722
    9CHL1    O3  595   1.781   1.482  10.207  0.3524 -0.1474  0.4404
    9CHL1   H3'  596   1.866   1.482  10.251 -0.0112  1.4243  1.1808
    9CHL1    C4  597   1.684   1.576  10.001 -0.0493 -0.1193  0.5110
    9CHL1   H4A  598   1.665   1.472   9.967  1.8042  0.1562 -1.4334
    9CHL1   H4B  599   1.589   1.591  10.057  0.0773 -0.2509  0.7636
    9CHL1    C5  600   1.713   1.676   9.890  0.5601 -0.2788  0.7082
    9CHL1    C6  601   1.634   1.785   9.868  0.2901 -0.1061  0.3148
    9CHL1    H6  602   1.550   1.819   9.929  0.3081  2.2061 -0.8998
    9CHL1    C7  603   1.649   1.877   9.752  0.3176 -0.0636  0.1008
    9CHL1   H7A  604   1.549   1.900   9.709 -0.7109 -0.9604  1.9211
    9CHL1   H7B  605   1.689   1.975   9.785  0.7686 -0.9406  2.2185
    9CHL1    C8  606   1.744   1.813   9.647  0.2350  0.2490  0.2534
    9CHL1    H8  607   1.680   1.738   9.596  0.4145 -0.0190  0.4234
    9CHL1   C14  608   1.793   1.930   9.552 -0.8249 -0.7150 -0.2811
    9CHL1   H14  609   1.853   1.998   9.616 -2.7776  1.2440 -0.4660
    9CHL1   C15  610   1.687   2.011   9.491 -0.7442 -0.8100 -0.2285
    9CHL1  H15A  611   1.606   1.942   9.457 -0.2561 -1.8241  0.6404
    9CHL1  H15B  612   1.641   2.082   9.563  0.8570  1.0518 -0.9983
    9CHL1   C16  613   1.753   2.089   9.377 -0.5146  0.7291  1.0621
    9CHL1  H16A  614   1.690   2.093   9.286  1.1654  1.1875 -0.0879
    9CHL1  H16B  615   1.770   2.199   9.383  2.4382  0.6153 -3.2500
    9CHL1   C17  616   1.896   2.018   9.353 -0.9498 -0.2238  0.0906
    9CHL1   H17  617   1.965   2.096   9.391 -0.6434  0.6479 -2.1954
    9CHL1   C13  618   1.893   1.886   9.438 -0.7088 -1.3013 -0.0821
    9CHL1   C18  619   1.817   1.786   9.345 -0.3493  0.0479  0.1147
    9CHL1  H18A  620   1.876   1.765   9.254 -0.4052 -1.0083  0.3108
    9CHL1  H18B  621   1.794   1.685   9.386 -0.4184  0.2496  0.5807
    9CHL1  H18C  622   1.712   1.817   9.321 -1.5052 -0.8854  3.6118
    9CHL1   C12  623   2.023   1.839   9.514 -0.0040 -0.3662 -0.0878
    9CHL1  H12A  624   2.111   1.822   9.448 -1.6550 -0.0359 -2.4329
    9CHL1  H12B  625   2.064   1.924   9.572  2.6596 -1.1358 -0.7477
    9CHL1   C11  626   1.981   1.721   9.604 -0.0324  0.0612 -0.1932
    9CHL1  H11A  627   1.938   1.645   9.537  1.1693  0.0323 -0.9413
    9CHL1  H11B  628   2.069   1.681   9.660 -0.9477 -1.0322  0.4694
    9CHL1    C9  629   1.874   1.760   9.714 -0.4731  0.3701  0.1863
    9CHL1    H9  630   1.915   1.848   9.767  2.9178  0.2846 -2.0821
    9CHL1   C10  631   1.842   1.646   9.811  0.0553  0.9021  0.3494
    9CHL1   C19  632   1.802   1.519   9.730  1.2592  0.2205  0.7706
    9CHL1  H19A  633   1.753   1.436   9.785  0.8684  0.3556  0.6184
    9CHL1  H19B  634   1.743   1.548   9.641  0.6451 -0.3255  0.9999
    9CHL1  H19C  635   1.899   1.480   9.693  0.1029 -0.7518 -1.2978
    9CHL1    C1  636   1.965   1.620   9.912  0.5950  0.2533 -0.2245
    9CHL1   H1A  637   2.055   1.581   9.861  0.8226  2.4045 -1.5066
    9CHL1   H1B  638   1.991   1.717   9.960 -0.1450  0.4643 -0.2434
    9CHL1    C2  639   1.925   1.518  10.027  0.3271  0.0429  0.5330
    9CHL1   H2A  640   2.001   1.513  10.107  0.6286 -1.1208  0.1883
    9CHL1   H2B  641   1.908   1.418   9.981 -2.5534  0.1807  1.2074
    9CHL1   C20  642   1.951   2.005   9.208 -0.2984 -0.5670 -0.2048
    9CHL1   H20  643   1.870   1.952   9.153 -0.3630  0.2213 -0.8743
    9CHL1   C21  644   2.082   1.929   9.199  0.4863 -0.0854 -0.8142
    9CHL1  H21A  645   2.072   1.819   9.207 -0.1811  0.1153  1.5633
    9CHL1  H21B  646   2.148   1.956   9.285 -1.5171  0.5967  0.5490
    9CHL1  H21C  647   2.141   1.959   9.109  2.6608 -0.9815  0.2774
    9CHL1   C22  648   1.955   2.141   9.136 -0.2439 -0.1510 -0.2148
    9CHL1  H22A  649   1.900   2.222   9.188 -1.8426 -1.4586  0.1514
    9CHL1  H22B  650   2.062   2.170   9.151 -0.6858  1.0846  0.5959
    9CHL1   C23  651   1.908   2.136   8.987  0.4317 -0.0542  0.2165
    9CHL1  H23A  652   1.979   2.063   8.941 -1.2552 -0.1301 -2.2959
    9CHL1  H23B  653   1.803   2.108   8.966  0.6707 -0.2911 -0.6813
    9CHL1   C24  654   1.930   2.267   8.911 -0.2787 -0.1299  0.1616
    9CHL1  H24A  655   1.845   2.330   8.946 -1.4406 -0.5453 -1.8309
    9CHL1  H24B  656   2.021   2.321   8.945 -0.0868 -0.3160 -0.0531
    9CHL1   C25  657   1.923   2.245   8.760  0.3851  0.4625 -0.2019
    9CHL1   H25  658   1.971   2.148   8.733  1.2537  0.4502  1.2830
    9CHL1   C26  659   1.780   2.234   8.702 -0.2960 -0.1250 -0.5135
    9CHL1  H26A  660   1.721   2.155   8.754 -0.3390  0.4601  0.3397
    9CHL1  H26B  661   1.732   2.334   8.710  1.1067  0.3852  1.8061
    9CHL1  H26C  662   1.779   2.211   8.594 -0.8903  0.7038 -0.6961
    9CHL1   C27  663   2.003   2.360   8.692 -0.5313  0.4417 -0.8485
    9CHL1  H27A  664   2.007   2.352   8.581 -1.5448  1.2660 -0.9531
    9CHL1  H27B  665   1.958   2.460   8.714  1.2905  1.6556 -2.4553
    9CHL1  H27C  666   2.102   2.364   8.743 -0.2676  0.9180 -1.3802
   10CHL1    C3  667   1.524   5.965   9.973  0.0154 -0.7548 -0.1034
   10CHL1    H3  668   1.526   5.856   9.948  0.8779 -0.5270 -1.0362
   10CHL1    O3  669   1.532   5.970  10.118  0.5710  0.0335 -0.6546
   10CHL1   H3'  670   1.588   6.047  10.138  1.3165 -0.2633 -1.5719
   10CHL1    C4  671   1.640   6.038   9.919 -0.5841  0.0874  0.6423
   10CHL1   H4A  672   1.655   6.135   9.970 -0.2953  1.1759 -1.4745
   10CHL1   H4B  673   1.737   5.993   9.950  0.3223  0.2345 -1.8557
   10CHL1    C5  674   1.622   6.057   9.774  0.3389 -0.0509  0.0542
   10CHL1    C6  675   1.725   6.035   9.691  0.3911  0.3658  0.1286
   10CHL1    H6  676   1.823   6.007   9.732  0.5382 -0.0718 -0.5082
   10CHL1    C7  677   1.722   6.060   9.540 -0.1163  0.2787  0.2050
   10CHL1   H7A  678   1.810   6.124   9.513 -1.9992  2.1369 -1.6843
   10CHL1   H7B  679   1.719   5.964   9.484 -2.9993 -0.1358  1.0279
   10CHL1    C8  680   1.596   6.146   9.504 -0.5924  0.0762  0.0608
   10CHL1    H8  681   1.619   6.251   9.533 -0.5418 -0.2129  1.1040
   10CHL1   C14  682   1.593   6.150   9.359  0.1129 -0.5337  0.3309
   10CHL1   H14  683   1.585   6.044   9.324 -1.4985  0.0990 -1.2905
   10CHL1   C15  684   1.713   6.204   9.275  0.4450 -0.0569 -0.0267
   10CHL1  H15A  685   1.740   6.297   9.330 -0.1938  0.1353 -0.0267
   10CHL1  H15B  686   1.793   6.128   9.286  0.1997 -0.2544  0.4161
   10CHL1   C16  687   1.654   6.219   9.137 -0.5242 -0.5161  1.2804
   10CHL1  H16A  688   1.675   6.321   9.098 -1.4692 -0.0172  2.0764
   10CHL1  H16B  689   1.694   6.132   9.081 -0.1189 -1.4172  2.9091
   10CHL1   C17  690   1.499   6.204   9.150  0.8585 -0.6545  0.3144
   10CHL1   H17  691   1.489   6.095   9.131  1.3800 -0.7122  0.3761
   10CHL1   C13  692   1.465   6.217   9.296  0.0556  0.6606 -0.2323
   10CHL1   C18  693   1.451   6.365   9.341 -0.4234  0.4087  0.5857
   10CHL1  H18A  694   1.352   6.410   9.318  0.7097  2.2841 -0.7660
   10CHL1  H18B  695   1.462   6.363   9.452  0.3788  1.6572  0.5455
   10CHL1  H18C  696   1.530   6.432   9.300  1.9712 -0.5786  3.4210
   10CHL1   C12  697   1.350   6.126   9.348 -0.0495 -0.3518  0.1467
   10CHL1  H12A  698   1.247   6.152   9.316  0.6166  2.3794  0.1147
   10CHL1  H12B  699   1.374   6.022   9.315  2.4233  0.3831 -0.4888
   10CHL1   C11  700   1.336   6.117   9.500  0.4199  0.6192 -0.0128
   10CHL1  H11A  701   1.297   6.213   9.541 -3.5475 -0.8508 -0.1691
   10CHL1  H11B  702   1.254   6.045   9.521 -0.3811  1.4478 -0.2602
   10CHL1    C9  703   1.474   6.077   9.570  0.2796 -0.6140 -0.1535
   10CHL1    H9  704   1.487   5.968   9.553 -1.8098 -0.9670  0.3225
   10CHL1   C10  705   1.481   6.104   9.728  0.1329 -0.3737 -0.3498
   10CHL1   C19  706   1.460   6.252   9.763 -1.0159  0.2592 -0.0419
   10CHL1  H19A  707   1.360   6.290   9.734 -0.2382 -0.0091 -3.2827
   10CHL1  H19B  708   1.464   6.271   9.872 -0.3655  0.8454 -0.1663
   10CHL1  H19C  709   1.540   6.317   9.722  0.8049 -0.4031  2.3325
   10CHL1    C1  710   1.362   6.015   9.789 -0.5597 -0.0401 -0.5010
   10CHL1   H1A  711   1.262   6.055   9.761  0.6137  0.8585 -3.6188
   10CHL1   H1B  712   1.370   5.911   9.749  1.6632  1.2504 -3.5672
   10CHL1    C2  713   1.381   6.012   9.941 -0.3682 -0.1690  0.7373
   10CHL1   H2A  714   1.309   5.950   9.997 -0.6485  2.2733  3.2350
   10CHL1   H2B  715   1.364   6.118   9.972 -0.2134 -0.0623  0.4663
   10CHL1   C20  716   1.416   6.283   9.052 -0.0073 -0.8337  0.1895
   10CHL1   H20  717   1.437   6.389   9.075 -0.1391 -0.6473 -0.5389
   10CHL1   C21  718   1.266   6.264   9.061 -0.3076  0.4701  0.0651
   10CHL1  H21A  719   1.217   6.279   9.160 -0.6853 -0.2182 -0.0170
   10CHL1  H21B  720   1.247   6.157   9.037 -0.3898 -0.2440  3.0991
   10CHL1  H21C  721   1.213   6.338   8.997  0.5760  0.6674 -0.4406
   10CHL1   C22  722   1.460   6.253   8.907  0.3462  0.8001  0.3077
   10CHL1  H22A  723   1.548   6.185   8.910 -0.3234 -0.0760  0.4938
   10CHL1  H22B  724   1.376   6.211   8.848  1.1670 -2.2346  1.1959
   10CHL1   C23  725   1.508   6.378   8.834 -0.7520 -0.3842  0.1234
   10CHL1  H23A  726   1.432   6.459   8.824 -1.6021 -1.0300  1.2522
   10CHL1  H23B  727   1.589   6.432   8.888  0.0488  0.5810 -2.0069
   10CHL1   C24  728   1.553   6.334   8.697 -0.2781  0.2176  0.4527
   10CHL1  H24A  729   1.620   6.248   8.716  0.4035  0.7262  0.3656
   10CHL1  H24B  730   1.477   6.291   8.628 -0.3187 -0.1768  0.7396
   10CHL1   C25  731   1.629   6.448   8.624 -0.0644  0.7446  0.2107
   10CHL1   H25  732   1.708   6.452   8.702 -0.8694  0.1846  1.0656
   10CHL1   C26  733   1.711   6.412   8.501 -0.3179 -0.0599  0.4928
   10CHL1  H26A  734   1.637   6.394   8.420 -0.1971  1.3293  0.0612
   10CHL1  H26B  735   1.784   6.492   8.474 -0.3686  0.8446  2.8783
   10CHL1  H26C  736   1.773   6.323   8.523  1.3309 -0.1899 -3.9952
   10CHL1   C27  737   1.555   6.580   8.591  0.0960  0.8850 -0.4972
   10CHL1  H27A  738   1.497   6.563   8.498 -1.8436  1.2766  0.6282
   10CHL1  H27B  739   1.485   6.618   8.669 -0.3277 -2.0796  0.6515
   10CHL1  H27C  740   1.628   6.658   8.561 -1.0242  1.6444 -1.2372
   11CHL1    C3  741   3.337   2.417  10.004 -0.0791 -0.0532 -0.0774
   11CHL1    H3  742   3.242   2.360   9.996 -1.2811  1.7746  0.9188
   11CHL1    O3  743   3.365   2.434  10.142  0.5086 -0.1543  0.4435
   11CHL1   H3'  744   3.457   2.460  10.146  0.8007 -1.1833  0.2976
   11CHL1    C4  745   3.454   2.347   9.936 -0.3144  0.0551 -0.8766
   11CHL1   H4A  746   3.551   2.386   9.973 -0.8177 -0.9191  1.5939
   11CHL1   H4B  747   3.444   2.243   9.974  0.3638  0.0240 -0.7699
   11CHL1    C5  748   3.440   2.341   9.781  0.5973  0.0193 -0.2751
   11CHL1    C6  749   3.441   2.225   9.709  0.1464 -0.5941 -0.2763
   11CHL1    H6  750   3.453   2.130   9.764 -2.0815  0.5990  2.3779
   11CHL1    C7  751   3.430   2.232   9.560 -0.3984  0.6453  0.0060
   11CHL1   H7A  752   3.500   2.155   9.520 -0.0413  1.0608 -0.1641
   11CHL1   H7B  753   3.325   2.208   9.532 -0.5955  2.8322 -1.2243
   11CHL1    C8  754   3.445   2.368   9.492  0.2242  0.0695  0.4249
   11CHL1    H8  755   3.555   2.385   9.493  0.2033  0.2053  0.4174
   11CHL1   C14  756   3.400   2.365   9.351 -0.5840  0.9144  0.0700
   11CHL1   H14  757   3.294   2.337   9.362  0.2633 -1.6928  1.9252
   11CHL1   C15  758   3.468   2.265   9.250  0.3434  0.4350  0.2087
   11CHL1  H15A  759   3.575   2.261   9.280 -0.4770 -1.0277  3.1652
   11CHL1  H15B  760   3.428   2.163   9.269  4.6913 -1.4458 -0.2211
   11CHL1   C16  761   3.421   2.316   9.118  1.1246  0.2585 -0.7611
   11CHL1  H16A  762   3.515   2.312   9.059  1.2551  0.0276 -0.5364
   11CHL1  H16B  763   3.336   2.255   9.081  1.3281 -1.5995  1.7302
   11CHL1   C17  764   3.359   2.462   9.137  0.0619  0.5801 -0.0157
   11CHL1   H17  765   3.251   2.441   9.149  0.0471  0.6997  0.0599
   11CHL1   C13  766   3.410   2.500   9.278 -0.8413  0.4038  0.2052
   11CHL1   C18  767   3.553   2.559   9.259  0.1148  0.7892 -0.2052
   11CHL1  H18A  768   3.623   2.493   9.202  1.3077  1.4695  0.4513
   11CHL1  H18B  769   3.539   2.654   9.203  0.4375  0.8550 -0.1757
   11CHL1  H18C  770   3.609   2.588   9.350 -0.9309  2.6984 -0.1447
   11CHL1   C12  771   3.321   2.598   9.356  0.1364  0.3652 -0.3600
   11CHL1  H12A  772   3.310   2.696   9.304 -0.8336  1.2784  1.4847
   11CHL1  H12B  773   3.223   2.546   9.358  0.7787 -0.8524  2.0528
   11CHL1   C11  774   3.365   2.620   9.499  0.0092  0.0322  0.3639
   11CHL1  H11A  775   3.467   2.663   9.503 -0.6190  1.7549 -1.2111
   11CHL1  H11B  776   3.284   2.686   9.539  0.4201  0.0203  1.2352
   11CHL1    C9  777   3.367   2.477   9.569 -0.0609 -0.3103 -0.7101
   11CHL1    H9  778   3.259   2.454   9.560 -0.8537  3.2442 -1.2480
   11CHL1   C10  779   3.407   2.483   9.717 -0.1990 -0.4912 -0.1611
   11CHL1   C19  780   3.543   2.557   9.719  0.4951  0.7420 -0.4802
   11CHL1  H19A  781   3.606   2.522   9.634 -0.9964 -0.9828 -0.9020
   11CHL1  H19B  782   3.531   2.668   9.715  0.8130  0.7216 -2.5064
   11CHL1  H19C  783   3.595   2.539   9.815  1.5306 -0.4410 -1.2481
   11CHL1    C1  784   3.299   2.558   9.791  0.3506  1.4796 -0.5616
   11CHL1   H1A  785   3.283   2.660   9.750 -1.9422  0.6310 -1.8898
   11CHL1   H1B  786   3.204   2.504   9.769  1.8164 -1.2398 -0.4408
   11CHL1    C2  787   3.319   2.558   9.948  0.1745  0.5956  0.4197
   11CHL1   H2A  788   3.228   2.598   9.998  0.0548  0.6527  0.1532
   11CHL1   H2B  789   3.416   2.608   9.970  0.3545  0.0923  0.7803
   11CHL1   C20  790   3.378   2.563   9.011  0.2654 -0.1822  0.8326
   11CHL1   H20  791   3.479   2.609   9.009  0.0839  0.1456 -1.2107
   11CHL1   C21  792   3.294   2.694   9.038 -0.1852  0.1672 -0.7800
   11CHL1  H21A  793   3.282   2.740   8.938  1.8768  0.4004 -0.9485
   11CHL1  H21B  794   3.347   2.757   9.113 -0.9399  0.1229 -0.2044
   11CHL1  H21C  795   3.188   2.680   9.070  0.2367  1.8030  1.4431
   11CHL1   C22  796   3.362   2.497   8.869 -0.0226  0.1708 -0.3634
   11CHL1  H22A  797   3.388   2.576   8.796  1.5995 -0.0746 -0.0566
   11CHL1  H22B  798   3.431   2.411   8.862 -0.0983 -0.6241  5.8270
   11CHL1   C23  799   3.216   2.435   8.842 -0.0014 -0.0464 -0.3892
   11CHL1  H23A  800   3.185   2.392   8.940  1.0114  1.4129  0.6021
   11CHL1  H23B  801   3.152   2.523   8.819  0.5590  0.4153 -0.1869
   11CHL1   C24  802   3.191   2.326   8.735 -0.0408  1.0927 -0.3240
   11CHL1  H24A  803   3.246   2.237   8.772  0.4926  1.7291  0.4236
   11CHL1  H24B  804   3.088   2.286   8.729  0.0983  0.6880  0.0381
   11CHL1   C25  805   3.265   2.356   8.599  0.6875  0.7109 -0.3318
   11CHL1   H25  806   3.357   2.412   8.627  1.4484  0.9397 -3.0748
   11CHL1   C26  807   3.309   2.236   8.506 -0.5359  0.0243 -1.1548
   11CHL1  H26A  808   3.221   2.168   8.503 -0.0868 -0.5039 -3.5655
   11CHL1  H26B  809   3.331   2.275   8.405 -0.6967  1.2187 -0.7290
   11CHL1  H26C  810   3.395   2.189   8.558 -1.5532 -1.8922 -1.1486
   11CHL1   C27  811   3.189   2.453   8.512 -0.0038  0.5346  0.1339
   11CHL1  H27A  812   3.104   2.397   8.468  0.6952 -1.7477  1.5946
   11CHL1  H27B  813   3.150   2.543   8.564 -1.1680  0.5669 -0.7721
   11CHL1  H27C  814   3.239   2.487   8.419 -3.3437 -0.0530 -1.9610
   12CHL1    C3  815   0.280   5.277  10.256 -0.4941 -0.4225 -0.3271
   12CHL1    H3  816   0.349   5.352  10.211 -0.5772  0.3407  0.7928
   12CHL1    O3  817   0.294   5.256  10.394 -0.3529  0.4099  0.4099
   12CHL1   H3'  818   0.260   5.334  10.439 -0.1330  1.9027 -1.9088
   12CHL1    C4  819   0.133   5.316  10.212 -0.3029  0.3142 -0.4954
   12CHL1   H4A  820   0.051   5.250  10.249  1.1198 -0.9537  0.4351
   12CHL1   H4B  821   0.104   5.410  10.264 -1.8241  0.2172 -1.1222
   12CHL1    C5  822   0.122   5.326  10.059 -0.1398 -0.1675  0.3309
   12CHL1    C6  823   0.084   5.440  10.000 -0.1176  0.4103 -0.5748
   12CHL1    H6  824   0.059   5.520  10.072 -0.1819 -1.4491  1.5472
   12CHL1    C7  825   0.062   5.463   9.859 -0.3578 -0.3424  0.2970
   12CHL1   H7A  826  -0.033   5.519   9.846  1.0958  2.4281  1.2272
   12CHL1   H7B  827   0.138   5.533   9.819 -1.6049  1.1796  0.5185
   12CHL1    C8  828   0.060   5.331   9.782  0.1471  0.6199  0.2587
   12CHL1    H8  829  -0.040   5.285   9.799  1.2217 -1.5131  0.9524
   12CHL1   C14  830   0.075   5.364   9.632 -0.3781 -0.4284 -0.9890
   12CHL1   H14  831   0.178   5.400   9.615 -0.6667 -0.0536 -1.9714
   12CHL1   C15  832  -0.024   5.464   9.567 -0.8133  0.4779 -0.2099
   12CHL1  H15A  833  -0.123   5.429   9.603 -0.3108 -0.7085  0.0284
   12CHL1  H15B  834  -0.010   5.567   9.607  0.1887  1.0581 -1.9768
   12CHL1   C16  835  -0.009   5.450   9.419  0.6631 -0.8565 -0.6102
   12CHL1  H16A  836  -0.110   5.441   9.375  0.9386 -2.6355 -0.9092
   12CHL1  H16B  837   0.036   5.544   9.379  2.0487 -1.3804 -0.3172
   12CHL1   C17  838   0.085   5.323   9.405  0.2977 -0.6512  0.6818
   12CHL1   H17  839   0.191   5.351   9.384  0.6038 -3.8976 -2.5905
   12CHL1   C13  840   0.075   5.245   9.540  0.3467 -0.1641 -1.0768
   12CHL1   C18  841  -0.058   5.161   9.554 -0.3828 -0.4902 -0.8490
   12CHL1  H18A  842  -0.054   5.069   9.491  0.2120 -0.1059 -1.3721
   12CHL1  H18B  843  -0.069   5.104   9.649  1.6776  1.0995  0.3807
   12CHL1  H18C  844  -0.148   5.219   9.526  0.3725  0.7832 -0.6538
   12CHL1   C12  845   0.196   5.150   9.583  0.1597  0.8252 -0.1683
   12CHL1  H12A  846   0.203   5.054   9.527 -0.0094 -1.2592  3.2436
   12CHL1  H12B  847   0.293   5.198   9.560  0.5092  1.6732  2.8511
   12CHL1   C11  848   0.190   5.110   9.734 -0.3603 -0.7879 -0.9817
   12CHL1  H11A  849   0.108   5.035   9.741  0.2185 -1.3733 -0.3544
   12CHL1  H11B  850   0.279   5.049   9.761  0.0564 -0.8231 -2.3927
   12CHL1    C9  851   0.175   5.236   9.831 -0.3804  0.4745 -0.4048
   12CHL1    H9  852   0.268   5.297   9.825 -1.6985  2.7847  1.5177
   12CHL1   C10  853   0.166   5.202   9.978  0.4708 -0.8109  0.6429
   12CHL1   C19  854   0.055   5.094  10.005 -0.8990 -0.8843  0.3620
   12CHL1  H19A  855   0.029   5.085  10.112 -1.2173 -2.1813  0.1819
   12CHL1  H19B  856  -0.039   5.124   9.953 -1.1103 -1.4717  0.4080
   12CHL1  H19C  857   0.081   4.996   9.961 -1.9465 -1.6484  1.4101
   12CHL1    C1  858   0.299   5.152  10.034  0.0441  1.0769 -0.4929
   12CHL1   H1A  859   0.328   5.053   9.992 -1.5868  0.7926 -0.9869
   12CHL1   H1B  860   0.378   5.226  10.011  1.0728  0.3409  0.6396
   12CHL1    C2  861   0.296   5.143  10.191  0.1929 -0.2332  0.2388
   12CHL1   H2A  862   0.396   5.099  10.214  0.7693  1.8285  1.8378
   12CHL1   H2B  863   0.225   5.063  10.222  0.4540 -0.6726 -0.2748
   12CHL1   C20  864   0.059   5.243   9.272 -0.1764  0.3986 -1.2649
   12CHL1   H20  865  -0.045   5.206   9.272  0.4638 -1.5360  0.8911
   12CHL1   C21  866   0.162   5.129   9.261  0.3577 -0.0317 -0.1671
   12CHL1  H21A  867   0.253   5.151   9.321 -1.3488  1.1255  2.0880
   12CHL1  H21B  868   0.170   5.110   9.152 -2.9177  0.5510 -0.5577
   12CHL1  H21C  869   0.114   5.038   9.305  0.7501 -0.4425 -0.5760
   12CHL1   C22  870   0.079   5.324   9.143  0.0487  0.1271 -0.2604
   12CHL1  H22A  871   0.057   5.431   9.164 -1.6280  0.3089 -2.6870
   12CHL1  H22B  872   0.186   5.319   9.114  0.0471 -1.4943  0.0260
   12CHL1   C23  873  -0.005   5.290   9.018 -0.6020  0.5713 -0.7397
   12CHL1  H23A  874  -0.008   5.180   9.001  0.4492  0.3015  0.6775
   12CHL1  H23B  875  -0.111   5.315   9.039 -0.0372  0.5641  2.4296
   12CHL1   C24  876   0.044   5.348   8.884 -0.3825 -0.0656  1.2463
   12CHL1  H24A  877   0.018   5.456   8.888  3.4564  1.0137 -0.3615
   12CHL1  H24B  878   0.150   5.321   8.865 -0.6143  0.1259 -0.4057
   12CHL1   C25  879  -0.026   5.295   8.759  0.7663  0.1829  0.3904
   12CHL1   H25  880   0.008   5.191   8.738 -2.8077 -1.5873  2.7855
   12CHL1   C26  881  -0.183   5.278   8.767  0.6348 -0.5702 -0.1556
   12CHL1  H26A  882  -0.236   5.375   8.765  0.8875 -0.4244  0.1200
   12CHL1  H26B  883  -0.227   5.225   8.680 -0.3199  1.0469 -0.6741
   12CHL1  H26C  884  -0.218   5.210   8.848  1.6838  1.1870  1.8137
   12CHL1   C27  885   0.016   5.370   8.634 -0.1697 -0.7205 -0.3478
   12CHL1  H27A  886   0.127   5.374   8.626 -0.2063  4.4375 -0.2504
   12CHL1  H27B  887  -0.031   5.319   8.547 -0.9383 -0.7308  0.0713
   12CHL1  H27C  888  -0.018   5.476   8.629  0.6759 -0.3880  0.7218
   13CHL1    C3  889   5.566   0.284   9.721  0.3659  0.3418 -0.3084
   13CHL1    H3  890   5.655   0.218   9.714 -0.8558 -1.3009 -0.8750
   13CHL1    O3  891   5.519   0.296   9.856 -0.0274 -0.1909 -0.5252
   13CHL1   H3'  892   5.431   0.259   9.849 -0.9951  1.7510  1.0815
   13CHL1    C4  893   5.606   0.420   9.687  0.4519 -0.5407  1.0247
   13CHL1   H4A  894   5.527   0.497   9.699 -0.6601 -1.1437 -2.0147
   13CHL1   H4B  895   5.687   0.442   9.760  1.6057 -1.8767  0.1843
   13CHL1    C5  896   5.656   0.429   9.547 -0.3453 -0.3282  0.3222
   13CHL1    C6  897   5.778   0.483   9.512 -0.5183 -0.0931 -0.0873
   13CHL1    H6  898   5.845   0.512   9.594  0.4663 -2.6283  0.0413
   13CHL1    C7  899   5.826   0.495   9.368 -0.6486  0.5716 -0.6212
   13CHL1   H7A  900   5.875   0.594   9.365 -0.8541  0.6521 -4.2050
   13CHL1   H7B  901   5.904   0.422   9.336  0.2521  0.9040  0.7866
   13CHL1    C8  902   5.707   0.485   9.264 -0.1360 -0.2772  0.5626
   13CHL1    H8  903   5.644   0.576   9.269  0.7646  0.2884  2.1062
   13CHL1   C14  904   5.767   0.456   9.124  0.9318 -0.6099 -0.6336
   13CHL1   H14  905   5.830   0.367   9.141 -1.8486 -2.2435  1.3804
   13CHL1   C15  906   5.848   0.570   9.058  0.0199 -0.1543 -0.6551
   13CHL1  H15A  907   5.788   0.664   9.066 -0.0009 -0.1339 -1.0199
   13CHL1  H15B  908   5.944   0.582   9.111  0.6302 -4.5270 -0.6497
   13CHL1   C16  909   5.857   0.527   8.908 -0.2067 -0.6484  0.4141
   13CHL1  H16A  910   5.825   0.601   8.832 -0.8370 -2.2433 -0.9007
   13CHL1  H16B  911   5.963   0.498   8.891  0.6046  1.8363  1.0514
   13CHL1   C17  912   5.757   0.403   8.898 -0.0202  0.2304 -0.1059
   13CHL1   H17  913   5.821   0.315   8.917 -1.6062 -0.8343  0.4591
   13CHL1   C13  914   5.668   0.411   9.021 -0.5239  0.2353  0.1941
   13CHL1   C18  915   5.556   0.516   9.006  0.0481  0.0723 -0.1335
   13CHL1  H18A  916   5.499   0.544   9.097  1.3408  1.5800  0.2242
   13CHL1  H18B  917   5.598   0.610   8.965 -2.0171  0.1124 -2.3052
   13CHL1  H18C  918   5.480   0.480   8.933 -1.9039 -0.3077  2.0263
   13CHL1   C12  919   5.614   0.271   9.060 -0.0746  0.2865 -0.5741
   13CHL1  H12A  920   5.548   0.221   8.987  0.1750 -0.9480  0.0289
   13CHL1  H12B  921   5.691   0.192   9.076 -0.2899 -0.1364 -1.6069
   13CHL1   C11  922   5.540   0.286   9.199  0.4842 -0.6447  0.0745
   13CHL1  H11A  923   5.457   0.359   9.194 -0.2946 -1.5946 -1.1466
   13CHL1  H11B  924   5.515   0.189   9.247  1.8260  0.1097  2.4051
   13CHL1    C9  925   5.629   0.357   9.310 -0.6172 -0.3934  0.1479
   13CHL1    H9  926   5.710   0.283   9.321  1.2880  1.4531 -1.0239
   13CHL1   C10  927   5.555   0.379   9.445  0.0576  0.6130 -0.2796
   13CHL1   C19  928   5.439   0.477   9.424 -0.4958  0.5194  0.2482
   13CHL1  H19A  929   5.357   0.419   9.377  0.2153 -0.1159 -0.2384
   13CHL1  H19B  930   5.416   0.508   9.528  3.9935 -0.2718  1.6046
   13CHL1  H19C  931   5.463   0.568   9.365  0.5233  0.3664  0.4183
   13CHL1    C1  932   5.501   0.236   9.487 -0.0057  0.2457  0.3879
   13CHL1   H1A  933   5.419   0.201   9.422 -0.3804 -2.0529  2.0120
   13CHL1   H1B  934   5.582   0.160   9.478 -0.9892 -0.7066 -0.4770
   13CHL1    C2  935   5.451   0.233   9.632  0.2712  0.3422  0.2487
   13CHL1   H2A  936   5.422   0.129   9.658  0.0610  0.0236 -1.2138
   13CHL1   H2B  937   5.362   0.299   9.642  0.9711  1.2093  0.8838
   13CHL1   C20  938   5.697   0.384   8.754  0.0297 -0.0422 -0.0834
   13CHL1   H20  939   5.629   0.471   8.738  0.2353  0.5355  1.9400
   13CHL1   C21  940   5.600   0.264   8.749  0.4774  0.0452  0.4753
   13CHL1  H21A  941   5.578   0.242   8.642  1.5595  0.6160  0.1240
   13CHL1  H21B  942   5.499   0.288   8.788 -0.5158 -1.4869 -1.0906
   13CHL1  H21C  943   5.637   0.171   8.797 -1.0269 -0.5106  0.5839
   13CHL1   C22  944   5.810   0.390   8.652  0.3092  0.5828  0.0105
   13CHL1  H22A  945   5.868   0.484   8.657  1.6645 -0.2465  0.2825
   13CHL1  H22B  946   5.877   0.302   8.658 -0.4866 -0.1529 -1.3885
   13CHL1   C23  947   5.757   0.385   8.505 -0.0054  0.2677  0.1422
   13CHL1  H23A  948   5.739   0.278   8.481  1.3675  0.2214 -0.7093
   13CHL1  H23B  949   5.660   0.437   8.486  1.3990  2.8166 -0.3615
   13CHL1   C24  950   5.852   0.435   8.393 -0.6882 -0.7233 -0.1787
   13CHL1  H24A  951   5.863   0.546   8.391 -1.0433 -0.7021 -1.7279
   13CHL1  H24B  952   5.957   0.407   8.413 -0.9149 -0.2430  1.7766
   13CHL1   C25  953   5.822   0.390   8.248 -0.3881  0.6750 -1.0125
   13CHL1   H25  954   5.760   0.297   8.249  1.7266 -0.7727 -0.6566
   13CHL1   C26  955   5.727   0.487   8.173  0.0314  0.8965  0.6585
   13CHL1  H26A  956   5.630   0.493   8.227 -0.8954  2.6364 -1.1364
   13CHL1  H26B  957   5.778   0.583   8.150 -2.1057  2.3763  1.9204
   13CHL1  H26C  958   5.703   0.440   8.076 -1.4625 -2.0228  2.3808
   13CHL1   C27  959   5.942   0.359   8.165  0.0654 -0.2748 -0.1609
   13CHL1  H27A  960   5.927   0.318   8.063  0.3971 -0.9517  0.0555
   13CHL1  H27B  961   6.006   0.447   8.141  2.3648 -1.8531 -0.0311
   13CHL1  H27C  962   6.003   0.285   8.223  0.5055 -0.4604 -0.8606
   14CHL1    C3  963   5.443   3.362  10.499 -0.2688 -0.3422 -0.0806
   14CHL1    H3  964   5.410   3.256  10.490 -0.6892 -0.1706 -0.5696
   14CHL1    O3  965   5.444   3.394  10.634 -0.2822 -0.7522  0.0839
   14CHL1   H3'  966   5.530   3.432  10.650  0.5372 -2.3834 -0.3516
   14CHL1    C4  967   5.585   3.371  10.442 -0.6273  0.2541  0.4458
   14CHL1   H4A  968   5.633   3.467  10.472 -1.9276  0.9633  0.2952
   14CHL1   H4B  969   5.645   3.283  10.473 -0.3189 -0.2025 -1.4017
   14CHL1    C5  970   5.570   3.357  10.284  0.0522 -0.1125  0.1548
   14CHL1    C6  971   5.625   3.259  10.224 -0.0339 -0.2773  0.8676
   14CHL1    H6  972   5.696   3.195  10.279  1.1290 -0.5310 -0.9058
   14CHL1    C7  973   5.631   3.222  10.083  0.1119 -0.1821 -0.0206
   14CHL1   H7A  974   5.734   3.200  10.047  0.4104  1.0125  0.0782
   14CHL1   H7B  975   5.574   3.129  10.060 -0.2802 -0.0039  0.2250
   14CHL1    C8  976   5.559   3.335  10.001 -0.2040  0.1015 -0.3007
   14CHL1    H8  977   5.627   3.422  10.005 -0.6748  0.4442  0.2580
   14CHL1   C14  978   5.527   3.285   9.863  0.6936  0.6024  0.8633
   14CHL1   H14  979   5.466   3.192   9.871  1.7006 -0.0316  1.2488
   14CHL1   C15  980   5.650   3.253   9.779  0.2181  0.2898  0.4612
   14CHL1  H15A  981   5.736   3.322   9.787  1.3851 -0.7632 -2.3680
   14CHL1  H15B  982   5.687   3.153   9.810 -1.9344 -1.0618 -1.1371
   14CHL1   C16  983   5.591   3.242   9.641  0.0753  0.3928 -0.1356
   14CHL1  H16A  984   5.652   3.319   9.589  0.8184  0.8908  1.4320
   14CHL1  H16B  985   5.603   3.144   9.592  1.1493 -0.2245  1.3284
   14CHL1   C17  986   5.447   3.302   9.640  0.3418 -0.2815 -0.5271
   14CHL1   H17  987   5.381   3.217   9.667  1.2859 -0.9600 -0.3473
   14CHL1   C13  988   5.446   3.379   9.776  0.4611  0.8077  0.2622
   14CHL1   C18  989   5.506   3.522   9.761  0.3120 -0.6352  0.3447
   14CHL1  H18A  990   5.544   3.561   9.858  0.3963  0.9217 -0.3049
   14CHL1  H18B  991   5.587   3.516   9.684  1.6444 -1.4250  1.7722
   14CHL1  H18C  992   5.425   3.589   9.725  0.0171 -1.1874 -0.0304
   14CHL1   C12  993   5.307   3.393   9.847 -0.2729  0.1252  1.1786
   14CHL1  H12A  994   5.240   3.459   9.787 -0.8479 -2.1801 -0.7888
   14CHL1  H12B  995   5.250   3.299   9.859  3.5174 -2.0416  3.1169
   14CHL1   C11  996   5.332   3.455   9.986  0.2528 -0.2252 -0.1429
   14CHL1  H11A  997   5.366   3.561   9.985 -2.6007  0.7565  0.4827
   14CHL1  H11B  998   5.232   3.454  10.036 -1.3495  1.0728 -3.1833
   14CHL1    C9  999   5.431   3.369  10.070 -0.0021 -0.4283  0.2448
   14CHL1    H9 1000   5.376   3.274  10.087 -1.8792  0.9712  2.2756
   14CHL1   C10 1001   5.460   3.435  10.210 -0.0324  0.7780 -0.1469
   14CHL1   C19 1002   5.516   3.579  10.195 -0.6890  0.4726  0.4337
   14CHL1  H19A 1003   5.610   3.571  10.135 -0.1665  0.3891  1.2514
   14CHL1  H19B 1004   5.451   3.656  10.147 -1.8073 -1.3040 -0.9392
   14CHL1  H19C 1005   5.547   3.624  10.292 -2.5428 -0.3634  1.4350
   14CHL1    C1 1006   5.327   3.437  10.287  0.9507 -0.2063 -0.0979
   14CHL1   H1A 1007   5.267   3.522  10.247 -0.7721 -0.7524  1.2600
   14CHL1   H1B 1008   5.279   3.337  10.279 -0.7385  0.4631  1.3209
   14CHL1    C2 1009   5.343   3.458  10.438  0.1238  0.2857 -0.3366
   14CHL1   H2A 1010   5.248   3.435  10.491 -0.1022  1.9963  0.0359
   14CHL1   H2B 1011   5.380   3.562  10.452 -0.0350  0.1039  1.5372
   14CHL1   C20 1012   5.402   3.371   9.511  0.9923  0.1565 -0.8190
   14CHL1   H20 1013   5.459   3.464   9.490  2.8715 -0.9577 -0.7173
   14CHL1   C21 1014   5.254   3.411   9.532  0.3333  0.1199 -0.1745
   14CHL1  H21A 1015   5.221   3.337   9.609 -0.4976  1.1358  0.4662
   14CHL1  H21B 1016   5.196   3.404   9.438  0.1482  1.1303 -0.1379
   14CHL1  H21C 1017   5.246   3.512   9.577 -0.0205 -0.3730  0.9009
   14CHL1   C22 1018   5.414   3.277   9.398 -0.4080 -0.2194  0.0624
   14CHL1  H22A 1019   5.512   3.225   9.400 -1.0016 -1.2853  2.4767
   14CHL1  H22B 1020   5.329   3.205   9.400 -2.0012  1.6516  1.7414
   14CHL1   C23 1021   5.401   3.347   9.260 -0.7841  0.7347 -1.0695
   14CHL1  H23A 1022   5.298   3.385   9.246 -1.8667 -2.0584 -0.8796
   14CHL1  H23B 1023   5.471   3.433   9.248  0.3180 -0.3753 -2.7704
   14CHL1   C24 1024   5.422   3.255   9.136 -0.2256 -0.6710 -0.0938
   14CHL1  H24A 1025   5.531   3.236   9.131 -0.4261 -1.4305 -1.8559
   14CHL1  H24B 1026   5.358   3.166   9.157 -1.0514  0.2693  1.4712
   14CHL1   C25 1027   5.395   3.312   8.989  0.3844  0.1611  0.0014
   14CHL1   H25 1028   5.446   3.410   8.977 -1.3957  1.2569  1.2038
   14CHL1   C26 1029   5.457   3.217   8.891 -0.8292  0.3143  0.2591
   14CHL1  H26A 1030   5.558   3.254   8.861 -0.1360 -0.7742  1.2086
   14CHL1  H26B 1031   5.466   3.109   8.913 -1.6236  0.1953 -0.0027
   14CHL1  H26C 1032   5.393   3.219   8.801  1.1434  1.1462 -1.1724
   14CHL1   C27 1033   5.245   3.336   8.955  0.0612 -0.1253  0.2964
   14CHL1  H27A 1034   5.200   3.235   8.951  2.1039 -1.0553 -0.0186
   14CHL1  H27B 1035   5.201   3.401   9.033  1.1529  1.1684 -0.1469
   14CHL1  H27C 1036   5.242   3.381   8.854  1.1913 -1.7394 -0.4800
   15CHL1    C3 1037   5.071   2.159  10.244  0.3660 -0.0347  0.1928
   15CHL1    H3 1038   5.043   2.055  10.216 -1.6953 -0.0164  1.9781
   15CHL1    O3 1039   5.038   2.169  10.384  0.1119  0.1791 -0.4407
   15CHL1   H3' 1040   5.031   2.265  10.393  1.3511  0.2265 -0.0194
   15CHL1    C4 1041   5.221   2.206  10.229  1.0302  0.3507  0.0652
   15CHL1   H4A 1042   5.238   2.308  10.268 -0.2453  0.8886 -0.7525
   15CHL1   H4B 1043   5.272   2.130  10.293 -0.5653 -0.0768  0.8558
   15CHL1    C5 1044   5.254   2.211  10.077 -0.0232  0.0515  0.6345
   15CHL1    C6 1045   5.360   2.142  10.034 -0.6973 -0.7450  0.6577
   15CHL1    H6 1046   5.426   2.090  10.104 -1.2391 -3.3054 -0.6510
   15CHL1    C7 1047   5.390   2.130   9.882  0.3274 -0.2704  0.4374
   15CHL1   H7A 1048   5.498   2.113   9.866  0.2496  0.5670 -1.1341
   15CHL1   H7B 1049   5.351   2.028   9.861  2.8083 -0.4969 -3.6177
   15CHL1    C8 1050   5.328   2.229   9.787  0.2066 -0.2265  0.5678
   15CHL1    H8 1051   5.392   2.320   9.789  0.8737 -0.6431 -1.0923
   15CHL1   C14 1052   5.339   2.179   9.635  0.0287 -0.3197  0.0336
   15CHL1   H14 1053   5.280   2.085   9.643 -1.0142  0.3717  0.5645
   15CHL1   C15 1054   5.468   2.145   9.574 -0.2549 -0.3974 -0.8543
   15CHL1  H15A 1055   5.552   2.215   9.594 -2.1942  1.4928  0.8416
   15CHL1  H15B 1056   5.496   2.045   9.614 -0.8859  0.3366  1.4704
   15CHL1   C16 1057   5.437   2.140   9.426  0.3098 -0.2787 -0.1325
   15CHL1  H16A 1058   5.491   2.220   9.372 -2.8622  0.5856 -2.1537
   15CHL1  H16B 1059   5.459   2.044   9.374  1.1521 -1.2528  1.9416
   15CHL1   C17 1060   5.287   2.182   9.408  0.5852  0.6779  0.8221
   15CHL1   H17 1061   5.225   2.090   9.420  0.2104  0.9028  0.6366
   15CHL1   C13 1062   5.262   2.270   9.536 -0.2533 -0.3179 -0.3156
   15CHL1   C18 1063   5.329   2.414   9.537 -0.3134 -0.5521  0.2999
   15CHL1  H18A 1064   5.269   2.477   9.468  0.1321 -2.3356 -1.7758
   15CHL1  H18B 1065   5.323   2.460   9.638  1.1875  2.5863 -0.9614
   15CHL1  H18C 1066   5.433   2.401   9.500 -0.2219 -0.4851  0.5368
   15CHL1   C12 1067   5.116   2.279   9.589 -0.9038 -0.8165  0.1249
   15CHL1  H12A 1068   5.060   2.356   9.532  0.2835  1.0471  1.3904
   15CHL1  H12B 1069   5.075   2.176   9.588 -1.8704 -0.4871  2.3890
   15CHL1   C11 1070   5.101   2.339   9.736 -0.1356  0.0737  0.0960
   15CHL1  H11A 1071   5.151   2.439   9.732  2.6342 -1.2902 -1.4283
   15CHL1  H11B 1072   4.993   2.342   9.758 -0.9460  0.4322 -3.6688
   15CHL1    C9 1073   5.183   2.247   9.833 -0.0096 -0.3255 -1.4964
   15CHL1    H9 1074   5.144   2.144   9.823  2.0225 -1.3486  0.6507
   15CHL1   C10 1075   5.160   2.286   9.983  0.3596  0.1131 -0.2827
   15CHL1   C19 1076   5.185   2.442   9.996  1.2481 -0.2732 -0.3802
   15CHL1  H19A 1077   5.274   2.461   9.932 -0.4957 -0.9913 -3.0731
   15CHL1  H19B 1078   5.102   2.503   9.956  1.3507 -0.8239 -1.4394
   15CHL1  H19C 1079   5.207   2.474  10.101 -0.5756  0.7665 -0.3036
   15CHL1    C1 1080   5.015   2.248  10.024 -0.3272  0.1962  0.4008
   15CHL1   H1A 1081   4.948   2.316   9.968 -0.0097 -0.0721 -0.3258
   15CHL1   H1B 1082   4.999   2.150   9.973 -0.4964  1.5454 -2.2413
   15CHL1    C2 1083   4.975   2.251  10.167 -0.2526  0.0972 -0.9730
   15CHL1   H2A 1084   4.868   2.222  10.178  0.0398 -0.3385  0.7939
   15CHL1   H2B 1085   4.991   2.354  10.206 -1.7249 -1.0083  2.7221
   15CHL1   C20 1086   5.250   2.243   9.266  0.2137 -0.0939 -0.3090
   15CHL1   H20 1087   5.298   2.343   9.252 -2.6028  1.1412 -1.5877
   15CHL1   C21 1088   5.093   2.257   9.260 -1.1342 -0.2671 -0.0065
   15CHL1  H21A 1089   5.055   2.347   9.313 -2.0104 -0.6290 -0.0147
   15CHL1  H21B 1090   5.036   2.169   9.297 -0.2024 -0.3599  1.2732
   15CHL1  H21C 1091   5.058   2.269   9.155 -0.5071 -1.0961 -0.3123
   15CHL1   C22 1092   5.291   2.148   9.151 -0.3558  0.9293 -0.3185
   15CHL1  H22A 1093   5.394   2.109   9.163 -0.8290 -0.2044  0.0777
   15CHL1  H22B 1094   5.220   2.063   9.142 -1.6669  1.8974  0.6746
   15CHL1   C23 1095   5.299   2.226   9.020 -0.3372  0.1875 -0.2744
   15CHL1  H23A 1096   5.208   2.284   8.995  0.1954  0.9503 -0.4598
   15CHL1  H23B 1097   5.381   2.299   9.038 -0.4879  0.6219 -1.3502
   15CHL1   C24 1098   5.328   2.132   8.905  0.3747  0.1613 -0.7637
   15CHL1  H24A 1099   5.402   2.052   8.927  0.8511  1.0393  0.8997
   15CHL1  H24B 1100   5.227   2.091   8.883  0.3418  1.8082 -4.0810
   15CHL1   C25 1101   5.377   2.200   8.768  0.4939  0.0391  1.2076
   15CHL1   H25 1102   5.296   2.270   8.739 -0.6317 -1.4796  0.6035
   15CHL1   C26 1103   5.513   2.267   8.782  0.0978  0.1305 -0.0259
   15CHL1  H26A 1104   5.508   2.359   8.845  1.3834 -0.2792  0.6899
   15CHL1  H26B 1105   5.598   2.201   8.809  0.7090  0.6781 -0.5899
   15CHL1  H26C 1106   5.524   2.290   8.673 -0.0560  1.6400  0.2678
   15CHL1   C27 1107   5.382   2.094   8.654 -0.4573 -0.8378 -0.2592
   15CHL1  H27A 1108   5.274   2.074   8.635 -0.3894 -1.4864  0.0389
   15CHL1  H27B 1109   5.425   2.128   8.558  1.2219 -0.3762  0.6403
   15CHL1  H27C 1110   5.442   2.005   8.681  3.2007  1.8264  0.9073
   16CHL1    C3 1111   6.402   2.737  10.295  0.1239 -0.6151 -0.0168
   16CHL1    H3 1112   6.495   2.794  10.318  0.3829 -0.9853 -0.1409
   16CHL1    O3 1113   6.335   2.703  10.414  0.3193  0.6437  0.3638
   16CHL1   H3' 1114   6.401   2.681  10.480 -0.3103  0.5797  0.9694
   16CHL1    C4 1115   6.299   2.821  10.216 -0.0812  0.1131  0.6191
   16CHL1   H4A 1116   6.208   2.758  10.204 -0.5847  1.4339 -3.0137
   16CHL1   H4B 1117   6.266   2.908  10.277 -0.9949  0.9477 -1.0238
   16CHL1    C5 1118   6.357   2.864  10.083  0.6970  0.2518  0.1202
   16CHL1    C6 1119   6.364   2.992  10.046  0.2600 -0.7310 -0.2571
   16CHL1    H6 1120   6.358   3.064  10.129 -0.2031  0.0295 -0.9416
   16CHL1    C7 1121   6.385   3.035   9.905 -0.2063  0.3310  0.2366
   16CHL1   H7A 1122   6.320   3.120   9.874  1.5563  2.2218  1.6042
   16CHL1   H7B 1123   6.490   3.070   9.897 -0.2287  1.0885  3.0259
   16CHL1    C8 1124   6.365   2.918   9.806 -0.6104 -0.1945 -0.4816
   16CHL1    H8 1125   6.257   2.891   9.796 -1.0558  0.8835  1.2018
   16CHL1   C14 1126   6.423   2.947   9.664 -0.3278 -0.0461  0.7710
   16CHL1   H14 1127   6.531   2.970   9.680 -0.3505 -0.4492  1.5497
   16CHL1   C15 1128   6.374   3.077   9.591  0.0932  0.1165 -0.1076
   16CHL1  H15A 1129   6.263   3.086   9.590 -0.0161 -0.8066  1.8667
   16CHL1  H15B 1130   6.409   3.162   9.654 -0.9494  0.2422  0.3124
   16CHL1   C16 1131   6.442   3.073   9.453  0.3606 -0.3352 -0.4476
   16CHL1  H16A 1132   6.383   3.106   9.365  1.3513 -1.7468 -1.6831
   16CHL1  H16B 1133   6.535   3.133   9.463 -0.2079  0.7374 -1.4533
   16CHL1   C17 1134   6.488   2.922   9.444  1.0788 -0.3387 -0.3852
   16CHL1   H17 1135   6.596   2.922   9.469  1.0602 -0.0960 -0.2993
   16CHL1   C13 1136   6.417   2.842   9.564  0.6504 -0.5631 -0.0677
   16CHL1   C18 1137   6.273   2.812   9.529  0.5976  0.0202 -0.6072
   16CHL1  H18A 1138   6.204   2.791   9.613  0.2414  0.5760 -0.7547
   16CHL1  H18B 1139   6.230   2.885   9.456  1.0108  1.4473  0.5624
   16CHL1  H18C 1140   6.274   2.719   9.468 -0.5382 -0.7860  0.5997
   16CHL1   C12 1141   6.497   2.719   9.611 -0.1509 -0.6540 -1.0801
   16CHL1  H12A 1142   6.487   2.640   9.534 -0.6144 -0.5170 -1.1608
   16CHL1  H12B 1143   6.604   2.749   9.622 -0.2947 -0.8251  1.0545
   16CHL1   C11 1144   6.448   2.676   9.746  0.0993 -0.7589  0.1299
   16CHL1  H11A 1145   6.351   2.632   9.715  0.7061  1.0652 -4.8292
   16CHL1  H11B 1146   6.511   2.592   9.781 -0.2556 -0.4898  1.4650
   16CHL1    C9 1147   6.440   2.790   9.855 -0.5294 -0.3577 -0.5715
   16CHL1    H9 1148   6.546   2.818   9.867 -0.2349 -1.4098 -0.6843
   16CHL1   C10 1149   6.380   2.742   9.991  0.4157  0.8091 -0.8953
   16CHL1   C19 1150   6.245   2.672   9.963  0.7659  0.2615 -0.0773
   16CHL1  H19A 1151   6.179   2.748   9.915 -0.9924 -1.5630 -0.6167
   16CHL1  H19B 1152   6.249   2.582   9.897 -0.9195  0.6879 -0.7967
   16CHL1  H19C 1153   6.198   2.631  10.055 -1.2323  1.2325 -0.6388
   16CHL1    C1 1154   6.468   2.641  10.067 -0.2240  0.0835 -0.5305
   16CHL1   H1A 1155   6.477   2.538  10.026 -0.1378 -0.8432  1.7346
   16CHL1   H1B 1156   6.568   2.689  10.070 -0.5867  0.7918  2.4379
   16CHL1    C2 1157   6.430   2.600  10.218 -1.3636  0.1818  0.6875
   16CHL1   H2A 1158   6.517   2.559  10.273 -2.1265  1.3052  2.8141
   16CHL1   H2B 1159   6.341   2.535  10.215  0.4329 -2.2844 -0.4356
   16CHL1   C20 1160   6.478   2.851   9.304 -0.1260 -0.0794 -0.2176
   16CHL1   H20 1161   6.448   2.745   9.321  0.1331  0.0392  1.0129
   16CHL1   C21 1162   6.622   2.850   9.239  0.1058  0.0499  0.3271
   16CHL1  H21A 1163   6.645   2.951   9.199 -1.2243  1.0728  2.0670
   16CHL1  H21B 1164   6.636   2.777   9.157 -0.5215  1.4505 -1.0441
   16CHL1  H21C 1165   6.702   2.841   9.316  1.1489 -0.6640 -0.8265
   16CHL1   C22 1166   6.377   2.902   9.198  0.2073  0.2140  1.1902
   16CHL1  H22A 1167   6.271   2.902   9.232 -0.3806 -2.4985 -0.5301
   16CHL1  H22B 1168   6.413   3.002   9.165  0.8040 -0.9886 -1.9913
   16CHL1   C23 1169   6.376   2.828   9.073 -0.6765 -0.3398  0.0688
   16CHL1  H23A 1170   6.479   2.808   9.036 -1.1997 -1.6665 -0.7057
   16CHL1  H23B 1171   6.340   2.725   9.096  0.2269 -0.5669  0.4994
   16CHL1   C24 1172   6.295   2.887   8.947  0.1590  0.0310 -0.1247
   16CHL1  H24A 1173   6.189   2.908   8.974  0.1515 -0.0314 -0.1063
   16CHL1  H24B 1174   6.327   2.994   8.944 -2.3253  0.8648  1.2276
   16CHL1   C25 1175   6.321   2.817   8.815 -0.5975 -0.2885 -0.1102
   16CHL1   H25 1176   6.338   2.711   8.842 -0.0267 -0.4416 -1.0531
   16CHL1   C26 1177   6.205   2.842   8.720 -0.6022  0.7673 -0.4721
   16CHL1  H26A 1178   6.239   2.819   8.616 -0.2696 -2.0772  0.2277
   16CHL1  H26B 1179   6.127   2.764   8.729  1.3996 -1.3191 -0.7808
   16CHL1  H26C 1180   6.172   2.948   8.715  0.1508  1.0573  0.4836
   16CHL1   C27 1181   6.448   2.868   8.754 -0.1148 -0.3425  0.0350
   16CHL1  H27A 1182   6.539   2.828   8.804 -0.1990 -0.6855 -0.0816
   16CHL1  H27B 1183   6.448   2.835   8.648 -0.8488  0.8973 -0.3523
   16CHL1  H27C 1184   6.451   2.978   8.761  1.8116 -0.3886  0.2686
   17CHL1    C3 1185   2.141   6.501  10.428  0.1991  0.1556 -0.2263
   17CHL1    H3 1186   2.057   6.459  10.368  0.1450  0.0329 -0.0669
   17CHL1    O3 1187   2.113   6.467  10.568  0.3917 -0.1445  0.3075
   17CHL1   H3' 1188   2.053   6.534  10.601  0.5739  0.9423 -1.5284
   17CHL1    C4 1189   2.273   6.434  10.377 -0.3914 -0.2434  0.1056
   17CHL1   H4A 1190   2.359   6.479  10.432  1.2209 -0.7804 -1.9363
   17CHL1   H4B 1191   2.272   6.326  10.404 -1.7731 -0.1860  0.3229
   17CHL1    C5 1192   2.290   6.453  10.224  0.3629  0.0430  0.3809
   17CHL1    C6 1193   2.309   6.351  10.135 -0.7126  0.4281 -0.0587
   17CHL1    H6 1194   2.319   6.254  10.185 -2.0782  0.8911  1.1475
   17CHL1    C7 1195   2.329   6.365   9.979  0.0297  0.0741 -0.3433
   17CHL1   H7A 1196   2.419   6.307   9.949 -0.5218 -0.1823 -1.5021
   17CHL1   H7B 1197   2.241   6.318   9.931 -1.0273  1.5956  0.0451
   17CHL1    C8 1198   2.339   6.517   9.944 -0.0866  0.2091 -0.0398
   17CHL1    H8 1199   2.447   6.539   9.959 -0.4471  2.2737 -0.3261
   17CHL1   C14 1200   2.311   6.539   9.796 -1.2640 -0.0825 -1.2238
   17CHL1   H14 1201   2.200   6.536   9.792 -1.4127  0.2732  1.5727
   17CHL1   C15 1202   2.370   6.436   9.694 -0.5113 -0.2831  0.0834
   17CHL1  H15A 1203   2.476   6.412   9.716 -0.5118 -0.7718 -0.4468
   17CHL1  H15B 1204   2.306   6.346   9.682 -0.9282  0.0208  0.0477
   17CHL1   C16 1205   2.382   6.509   9.562 -0.1042 -0.1052 -0.2981
   17CHL1  H16A 1206   2.483   6.506   9.517  0.2435 -0.6277  0.5150
   17CHL1  H16B 1207   2.307   6.476   9.486 -1.0315 -0.3561  0.7130
   17CHL1   C17 1208   2.333   6.658   9.596 -0.2036  0.2645 -0.2549
   17CHL1   H17 1209   2.222   6.660   9.586 -0.1507  2.8392 -0.6603
   17CHL1   C13 1210   2.342   6.676   9.745 -0.1074  0.7250  0.7038
   17CHL1   C18 1211   2.492   6.706   9.784  0.2135 -0.1684 -0.1354
   17CHL1  H18A 1212   2.501   6.716   9.895  0.5690  1.3562 -0.2963
   17CHL1  H18B 1213   2.559   6.628   9.740 -0.9761 -1.6335  0.6016
   17CHL1  H18C 1214   2.520   6.798   9.729  1.4882 -0.5678 -0.1830
   17CHL1   C12 1215   2.249   6.763   9.824 -0.2115  0.1585  0.9203
   17CHL1  H12A 1216   2.257   6.871   9.798  1.7372 -0.5828 -1.7804
   17CHL1  H12B 1217   2.147   6.736   9.788 -0.4027  2.3693 -0.3153
   17CHL1   C11 1218   2.256   6.753   9.977 -0.1779 -0.2570 -0.2165
   17CHL1  H11A 1219   2.342   6.817  10.007 -0.9190  1.8500 -2.4742
   17CHL1  H11B 1220   2.169   6.813  10.010  0.1023 -0.3512  0.7214
   17CHL1    C9 1221   2.246   6.609  10.027  0.0072  0.1058  0.6473
   17CHL1    H9 1222   2.136   6.592  10.015 -0.7711  2.5319  3.6919
   17CHL1   C10 1223   2.271   6.601  10.175 -0.7806  0.1240 -0.4239
   17CHL1   C19 1224   2.401   6.681  10.207 -0.3859 -0.9792 -0.3066
   17CHL1  H19A 1225   2.458   6.651  10.298 -1.2001  1.4918  1.0757
   17CHL1  H19B 1226   2.478   6.670  10.128 -0.6581  0.2728 -0.7515
   17CHL1  H19C 1227   2.379   6.789  10.221 -2.3799 -1.4089 -0.0074
   17CHL1    C1 1228   2.153   6.663  10.250 -0.3009  0.2264  0.4555
   17CHL1   H1A 1229   2.138   6.770  10.224 -0.6039  0.0043 -0.3136
   17CHL1   H1B 1230   2.056   6.629  10.206 -0.3345 -0.5592  1.1183
   17CHL1    C2 1231   2.147   6.649  10.406  0.0492  0.0044 -0.1514
   17CHL1   H2A 1232   2.047   6.687  10.437  0.0448 -1.0539  1.1636
   17CHL1   H2B 1233   2.235   6.696  10.454 -0.1016 -0.4771  0.6076
   17CHL1   C20 1234   2.400   6.763   9.498  0.4432  0.5549 -0.7695
   17CHL1   H20 1235   2.510   6.767   9.509  0.7687  3.1766 -4.1196
   17CHL1   C21 1236   2.339   6.901   9.535  0.6114 -0.5464 -0.1559
   17CHL1  H21A 1237   2.364   6.982   9.463 -1.2216 -0.9073 -1.2317
   17CHL1  H21B 1238   2.378   6.929   9.635 -0.7665 -0.2851  0.3148
   17CHL1  H21C 1239   2.229   6.897   9.547  0.4944  0.7845 -0.6951
   17CHL1   C22 1240   2.368   6.730   9.352  0.1887 -0.0825 -0.6311
   17CHL1  H22A 1241   2.434   6.643   9.331 -0.3269 -0.8851  0.9583
   17CHL1  H22B 1242   2.264   6.699   9.330  0.6918  0.1228 -3.5407
   17CHL1   C23 1243   2.401   6.842   9.253  0.5549 -0.4299 -0.1512
   17CHL1  H23A 1244   2.337   6.932   9.270  0.4944 -0.5252  0.1347
   17CHL1  H23B 1245   2.504   6.882   9.259  0.9989 -1.6610  0.5932
   17CHL1   C24 1246   2.372   6.794   9.112 -0.7282  0.2702  0.1233
   17CHL1  H24A 1247   2.428   6.699   9.099  0.4417  0.9427  0.1659
   17CHL1  H24B 1248   2.262   6.790   9.099 -0.6627 -1.8308  0.0546
   17CHL1   C25 1249   2.418   6.888   8.995 -0.5127  0.1765 -0.3135
   17CHL1   H25 1250   2.529   6.900   8.992 -0.5107  0.6368  1.4331
   17CHL1   C26 1251   2.388   6.823   8.858 -0.9460  0.0033  0.4031
   17CHL1  H26A 1252   2.280   6.801   8.844 -0.7512 -0.8093  0.1246
   17CHL1  H26B 1253   2.421   6.889   8.776  1.1691 -1.6420 -0.1200
   17CHL1  H26C 1254   2.444   6.727   8.845  1.8650  1.7471 -0.8939
   17CHL1   C27 1255   2.359   7.038   9.008  0.8205  0.0296  0.3201
   17CHL1  H27A 1256   2.398   7.083   9.102 -0.3288  0.0166  0.8085
   17CHL1  H27B 1257   2.376   7.105   8.921 -0.2340  1.4290  1.1673
   17CHL1  H27C 1258   2.252   7.017   9.027  0.3467  0.0265 -2.2333
   18CHL1    C3 1259   1.029   5.491  10.224 -0.4884 -0.4309 -0.9880
   18CHL1    H3 1260   0.918   5.488  10.217 -0.3708 -0.7391 -3.2034
   18CHL1    O3 1261   1.077   5.448  10.346 -0.1392  0.6633 -1.0832
   18CHL1   H3' 1262   1.164   5.409  10.332  0.5646  3.1429 -4.2795
   18CHL1    C4 1263   1.085   5.396  10.110  0.1619 -0.5763 -0.2032
   18CHL1   H4A 1264   1.196   5.393  10.117  0.1207  0.2184  1.0380
   18CHL1   H4B 1265   1.047   5.292  10.121  1.1180 -0.8914  0.2118
   18CHL1    C5 1266   1.048   5.449   9.971  0.0856 -0.0633 -0.0805
   18CHL1    C6 1267   0.985   5.373   9.883 -0.3320 -0.4563  0.1349
   18CHL1    H6 1268   0.959   5.268   9.906 -1.8737 -0.1394 -0.1118
   18CHL1    C7 1269   0.955   5.417   9.741  0.5652 -1.0443  0.0199
   18CHL1   H7A 1270   0.988   5.338   9.671  1.9688  0.3379 -0.9272
   18CHL1   H7B 1271   0.846   5.434   9.727  0.8748  1.6871  0.5320
   18CHL1    C8 1272   1.017   5.548   9.702 -0.4731 -0.1478  0.5029
   18CHL1    H8 1273   1.123   5.526   9.678 -0.5189 -0.2807  0.4242
   18CHL1   C14 1274   0.946   5.602   9.575 -1.1245 -0.1908  1.4557
   18CHL1   H14 1275   0.838   5.609   9.600 -1.4587 -0.5896  0.1910
   18CHL1   C15 1276   0.942   5.502   9.447 -0.1716 -0.0078 -0.4727
   18CHL1  H15A 1277   1.033   5.440   9.431 -1.2838 -1.6471 -0.6281
   18CHL1  H15B 1278   0.854   5.435   9.459  0.8548 -1.5034 -1.0105
   18CHL1   C16 1279   0.909   5.606   9.337 -0.2189 -0.0765 -0.6834
   18CHL1  H16A 1280   0.965   5.589   9.243  1.1218 -1.7363  0.3849
   18CHL1  H16B 1281   0.801   5.589   9.314 -0.8797 -0.1719  2.3324
   18CHL1   C17 1282   0.922   5.755   9.390 -0.6064 -0.6740 -0.2046
   18CHL1   H17 1283   0.819   5.779   9.424  0.1173  2.5507 -0.1289
   18CHL1   C13 1284   1.002   5.742   9.520  0.4244  0.3658  0.0386
   18CHL1   C18 1285   1.150   5.733   9.487 -0.4715 -0.2112  0.0066
   18CHL1  H18A 1286   1.200   5.832   9.488 -0.6149 -0.1500  1.6881
   18CHL1  H18B 1287   1.203   5.675   9.565 -0.8641  0.3290  0.6824
   18CHL1  H18C 1288   1.166   5.709   9.380  1.0008  2.9390 -0.5437
   18CHL1   C12 1289   0.979   5.836   9.645  0.1297 -0.0323  0.5731
   18CHL1  H12A 1290   0.993   5.944   9.622  1.5760  0.0541  1.8175
   18CHL1  H12B 1291   0.875   5.834   9.685 -0.2236 -0.8419 -0.3773
   18CHL1   C11 1292   1.062   5.793   9.766  0.0780  0.1314 -0.7247
   18CHL1  H11A 1293   1.170   5.801   9.741  0.6139  0.4244  1.5641
   18CHL1  H11B 1294   1.042   5.865   9.848 -1.6270 -2.9371  1.6820
   18CHL1    C9 1295   1.018   5.654   9.814  0.0205 -0.0720  1.1144
   18CHL1    H9 1296   0.912   5.659   9.846 -1.1599 -0.6633 -2.4405
   18CHL1   C10 1297   1.082   5.593   9.940 -0.6587 -0.4115 -0.1112
   18CHL1   C19 1298   1.239   5.606   9.934 -0.0180  0.5363  0.4033
   18CHL1  H19A 1299   1.285   5.562  10.026  1.6720  0.2221 -0.5694
   18CHL1  H19B 1300   1.281   5.549   9.848 -1.0165 -1.3664  1.1454
   18CHL1  H19C 1301   1.268   5.713   9.938 -0.2477  0.6303 -0.4348
   18CHL1    C1 1302   1.024   5.682  10.057 -0.1676  0.4451  0.4948
   18CHL1   H1A 1303   1.062   5.786  10.050  1.3905 -0.1133  0.4840
   18CHL1   H1B 1304   0.914   5.677  10.045 -0.2195 -0.9131  1.5234
   18CHL1    C2 1305   1.059   5.646  10.198 -0.0748  0.3083 -0.3087
   18CHL1   H2A 1306   1.014   5.716  10.271 -2.3886 -0.9690 -0.4804
   18CHL1   H2B 1307   1.169   5.645  10.217 -0.2000 -2.4184  0.4587
   18CHL1   C20 1308   0.962   5.854   9.286  0.0684  0.2875 -0.1924
   18CHL1   H20 1309   1.068   5.838   9.257  0.4947  0.9153  0.9807
   18CHL1   C21 1310   0.954   5.993   9.357  0.2938  0.3132  0.3672
   18CHL1  H21A 1311   0.856   6.004   9.408 -0.9137 -1.6418 -1.4331
   18CHL1  H21B 1312   0.965   6.075   9.283  0.0392  0.3003  0.3131
   18CHL1  H21C 1313   1.037   5.999   9.430  0.8124 -1.7687 -0.0183
   18CHL1   C22 1314   0.864   5.852   9.172  0.1185  0.3571 -0.0399
   18CHL1  H22A 1315   0.873   5.752   9.124 -0.7444  0.3158 -0.1228
   18CHL1  H22B 1316   0.760   5.850   9.211  0.5198  0.4510  1.0484
   18CHL1   C23 1317   0.897   5.962   9.069  0.0737  0.3427 -0.1634
   18CHL1  H23A 1318   0.853   6.060   9.099  1.4029  0.7095  0.6279
   18CHL1  H23B 1319   1.003   5.993   9.075  0.1384 -0.0452  0.8593
   18CHL1   C24 1320   0.856   5.926   8.929  0.8690  0.3504 -0.1750
   18CHL1  H24A 1321   0.913   5.843   8.883  0.1410 -0.4808  0.4013
   18CHL1  H24B 1322   0.753   5.888   8.945  1.2491 -0.3134  0.7667
   18CHL1   C25 1323   0.871   6.044   8.831  0.2487  0.1987 -0.5368
   18CHL1   H25 1324   0.822   6.137   8.869 -1.2089 -0.3037 -1.1437
   18CHL1   C26 1325   1.014   6.091   8.822 -0.9071  0.5909 -0.1221
   18CHL1  H26A 1326   1.075   6.027   8.756 -1.9860  0.1421 -0.7022
   18CHL1  H26B 1327   1.004   6.185   8.764 -1.1645 -0.9098 -2.5744
   18CHL1  H26C 1328   1.073   6.103   8.915  1.8996  0.5839 -1.8520
   18CHL1   C27 1329   0.806   6.013   8.695  0.0763  0.1848  0.0953
   18CHL1  H27A 1330   0.850   6.079   8.617  0.0415  1.9028  1.5064
   18CHL1  H27B 1331   0.841   5.912   8.662  0.1328  0.8662 -2.0340
   18CHL1  H27C 1332   0.696   6.022   8.703 -0.0848  1.0465 -2.4699
   19CHL1    C3 1333   4.928   1.709  10.069 -0.4189  0.3712  0.5371
   19CHL1    H3 1334   4.959   1.602  10.067  1.0411  0.7485  2.0525
   19CHL1    O3 1335   4.910   1.742  10.207 -0.5757 -0.1265 -0.1040
   19CHL1   H3' 1336   4.872   1.830  10.211  0.8798  0.4468  1.8390
   19CHL1    C4 1337   5.038   1.796  10.009 -0.0137  0.7919 -0.7525
   19CHL1   H4A 1338   5.019   1.905  10.019  1.2548  0.9692 -0.2622
   19CHL1   H4B 1339   5.131   1.773  10.065 -0.2354  1.6774 -0.0096
   19CHL1    C5 1340   5.064   1.776   9.864 -0.3082  0.3861 -0.1338
   19CHL1    C6 1341   5.187   1.746   9.811  0.4974  1.0734  0.2853
   19CHL1    H6 1342   5.273   1.724   9.877 -0.0733 -2.2107  0.0258
   19CHL1    C7 1343   5.225   1.731   9.668  0.0648  0.4675  0.6042
   19CHL1   H7A 1344   5.306   1.805   9.651  1.2407 -1.0517 -0.5503
   19CHL1   H7B 1345   5.259   1.627   9.648 -0.8725  0.3440 -0.3968
   19CHL1    C8 1346   5.103   1.779   9.583  0.2449  0.7412  0.5703
   19CHL1    H8 1347   5.095   1.889   9.573 -0.1335  0.7139  0.5765
   19CHL1   C14 1348   5.122   1.728   9.442  0.1445  0.2169  0.5044
   19CHL1   H14 1349   5.118   1.619   9.460 -1.7028  0.1325 -0.2896
   19CHL1   C15 1350   5.257   1.745   9.365  0.2328  0.8596  0.1880
   19CHL1  H15A 1351   5.296   1.849   9.375  1.7962  0.2524  0.4727
   19CHL1  H15B 1352   5.339   1.691   9.416 -1.3747 -1.7976  0.0390
   19CHL1   C16 1353   5.221   1.716   9.219 -0.0342  0.2874  0.1491
   19CHL1  H16A 1354   5.236   1.811   9.162 -1.2014  2.0670  2.7384
   19CHL1  H16B 1355   5.288   1.643   9.169  1.8655  1.5700  0.7567
   19CHL1   C17 1356   5.070   1.685   9.210 -0.7264 -0.1829  0.5845
   19CHL1   H17 1357   5.068   1.575   9.227 -1.6985 -0.1781  0.5562
   19CHL1   C13 1358   5.006   1.746   9.344  0.4476  0.3580 -0.3606
   19CHL1   C18 1359   4.983   1.893   9.307  0.1393 -1.2157 -0.5339
   19CHL1  H18A 1360   4.899   1.912   9.237 -2.3123 -0.2626  2.5562
   19CHL1  H18B 1361   4.950   1.943   9.401  0.2628 -1.9044 -0.1229
   19CHL1  H18C 1362   5.075   1.937   9.263 -2.5353  0.9114 -4.3257
   19CHL1   C12 1363   4.886   1.682   9.401  0.3949  0.0009  0.1556
   19CHL1  H12A 1364   4.793   1.689   9.340 -0.3597 -1.5138  1.0747
   19CHL1  H12B 1365   4.904   1.574   9.418 -1.1030 -0.2489  0.2757
   19CHL1   C11 1366   4.862   1.738   9.545  0.2727  0.2652 -0.2344
   19CHL1  H11A 1367   4.821   1.841   9.533 -2.9101 -0.8241  0.7743
   19CHL1  H11B 1368   4.771   1.682   9.575  0.1519 -0.0321 -1.1276
   19CHL1    C9 1369   4.970   1.727   9.647  0.9207  0.4206  0.5394
   19CHL1    H9 1370   4.974   1.617   9.656  1.1958  0.4123  0.3591
   19CHL1   C10 1371   4.936   1.787   9.785  0.3077 -0.0449 -0.5820
   19CHL1   C19 1372   4.908   1.936   9.793  0.3461  0.5004  0.0217
   19CHL1  H19A 1373   4.872   1.959   9.896  0.3988  1.4454 -0.1669
   19CHL1  H19B 1374   4.995   1.998   9.763  0.8682 -0.9148 -1.4568
   19CHL1  H19C 1375   4.822   1.968   9.731 -1.1854 -0.9807  1.3181
   19CHL1    C1 1376   4.816   1.705   9.837  0.3734  0.1795 -0.2232
   19CHL1   H1A 1377   4.723   1.739   9.787 -0.5719 -0.8139  0.8199
   19CHL1   H1B 1378   4.827   1.595   9.824  0.1876 -0.0063  1.0763
   19CHL1    C2 1379   4.795   1.723   9.991  0.2134 -0.4136 -0.4848
   19CHL1   H2A 1380   4.725   1.643  10.023  0.6998 -0.1303  1.3611
   19CHL1   H2B 1381   4.751   1.822  10.013 -4.8009 -2.4243 -0.8178
   19CHL1   C20 1382   5.017   1.716   9.070  0.2214  0.1700  0.4792
   19CHL1   H20 1383   5.016   1.827   9.056  0.6049 -0.0180 -1.0812
   19CHL1   C21 1384   4.875   1.653   9.070 -0.2273  0.3677  1.1399
   19CHL1  H21A 1385   4.832   1.654   8.967  2.1025 -1.3288  0.0967
   19CHL1  H21B 1386   4.807   1.688   9.149 -0.2490  1.5940  0.5914
   19CHL1  H21C 1387   4.891   1.543   9.074 -0.1187  0.2690 -1.1066
   19CHL1   C22 1388   5.098   1.666   8.954 -0.7270 -0.1756 -0.2806
   19CHL1  H22A 1389   5.201   1.704   8.970 -0.5450  0.3245 -2.5117
   19CHL1  H22B 1390   5.110   1.556   8.959 -0.9397 -0.4077 -3.6017
   19CHL1   C23 1391   5.053   1.716   8.820 -0.7501 -0.2327 -0.0449
   19CHL1  H23A 1392   4.961   1.660   8.793 -1.3913  0.7214  0.1116
   19CHL1  H23B 1393   5.022   1.822   8.835  1.7030  0.7147 -1.4515
   19CHL1   C24 1394   5.147   1.693   8.705  0.0368  0.3357 -0.4358
   19CHL1  H24A 1395   5.248   1.731   8.730  0.2936 -0.9165  0.4790
   19CHL1  H24B 1396   5.164   1.584   8.694 -0.3210  0.3421 -1.0874
   19CHL1   C25 1397   5.095   1.740   8.571  0.3801 -0.2519 -0.7552
   19CHL1   H25 1398   4.999   1.685   8.559  0.1933  0.2245 -1.4976
   19CHL1   C26 1399   5.033   1.887   8.573  0.5709 -0.0643 -0.0648
   19CHL1  H26A 1400   4.948   1.897   8.643 -0.8710  0.1038 -1.8203
   19CHL1  H26B 1401   5.105   1.966   8.604 -1.4671  2.3517 -1.2909
   19CHL1  H26C 1402   4.989   1.905   8.472  0.1676 -1.0008 -0.0591
   19CHL1   C27 1403   5.179   1.717   8.450 -0.5115 -0.0159  0.2216
   19CHL1  H27A 1404   5.214   1.612   8.446 -1.0349 -0.2825  2.0312
   19CHL1  H27B 1405   5.121   1.736   8.358  0.1225  0.6951 -0.0394
   19CHL1  H27C 1406   5.263   1.789   8.445  0.7067 -1.3819  0.6307
   20CHL1    C3 1407   0.208   2.523  10.242  0.3728 -0.0842  0.3831
   20CHL1    H3 1408   0.202   2.631  10.216 -2.2977 -0.0509  0.9450
   20CHL1    O3 1409   0.182   2.522  10.384 -0.0305 -0.7173  0.1237
   20CHL1   H3' 1410   0.198   2.430  10.405 -0.4852 -0.4638  1.5832
   20CHL1    C4 1411   0.091   2.459  10.160  0.0274 -0.0080 -0.0582
   20CHL1   H4A 1412   0.058   2.354  10.175 -1.6324  0.5181  0.0565
   20CHL1   H4B 1413  -0.001   2.516  10.182 -0.7596 -0.0164 -3.0188
   20CHL1    C5 1414   0.127   2.480  10.010 -0.2877  0.1492 -0.1604
   20CHL1    C6 1415   0.045   2.552   9.935 -0.1128 -0.0463  0.5107
   20CHL1    H6 1416  -0.044   2.591   9.986 -0.0659 -1.1202  1.4333
   20CHL1    C7 1417   0.060   2.569   9.791  0.1551 -0.0075  0.3181
   20CHL1   H7A 1418  -0.037   2.562   9.738  0.5538 -1.3456 -0.2649
   20CHL1   H7B 1419   0.101   2.672   9.781  1.9095 -0.7317 -0.2067
   20CHL1    C8 1420   0.158   2.468   9.730  0.0353 -0.2682  0.1135
   20CHL1    H8 1421   0.115   2.367   9.717  2.3000 -1.4156  1.2304
   20CHL1   C14 1422   0.195   2.511   9.592  0.0166  0.0085 -0.2820
   20CHL1   H14 1423   0.238   2.613   9.601  0.1484  0.1664 -2.4649
   20CHL1   C15 1424   0.082   2.533   9.493  0.1617 -0.5337  0.3421
   20CHL1  H15A 1425  -0.002   2.460   9.503 -0.7099  0.1256 -1.8057
   20CHL1  H15B 1426   0.038   2.633   9.512  0.8440 -0.5843  2.2116
   20CHL1   C16 1427   0.152   2.533   9.360  0.7404  0.2521  0.8281
   20CHL1  H16A 1428   0.094   2.464   9.295  0.6970 -1.3776  2.5514
   20CHL1  H16B 1429   0.152   2.633   9.312  0.8824 -0.7804 -1.3750
   20CHL1   C17 1430   0.294   2.490   9.377 -0.3663 -0.0239 -0.5073
   20CHL1   H17 1431   0.360   2.579   9.388 -1.3486  0.6302  0.1545
   20CHL1   C13 1432   0.303   2.428   9.518 -0.2780  0.6934 -0.3977
   20CHL1   C18 1433   0.251   2.284   9.496  0.2389  0.0442 -0.3592
   20CHL1  H18A 1434   0.325   2.224   9.438 -1.3361 -0.4415 -1.8773
   20CHL1  H18B 1435   0.242   2.229   9.593 -0.6201 -0.5319 -0.7641
   20CHL1  H18C 1436   0.153   2.285   9.445  0.9980 -1.9900 -1.9246
   20CHL1   C12 1437   0.429   2.443   9.610 -0.3878  0.9290  0.1512
   20CHL1  H12A 1438   0.511   2.388   9.560  1.4497  0.9528  3.0217
   20CHL1  H12B 1439   0.457   2.550   9.615  1.9802  0.3902 -1.2549
   20CHL1   C11 1440   0.405   2.383   9.750  0.3809  0.8098  0.4443
   20CHL1  H11A 1441   0.382   2.275   9.739  0.0393  0.8836  0.4203
   20CHL1  H11B 1442   0.496   2.405   9.810  0.7830 -1.5481  0.7601
   20CHL1    C9 1443   0.286   2.461   9.821  1.2475 -0.3042 -0.0852
   20CHL1    H9 1444   0.324   2.564   9.836  2.5918 -1.2378  3.5991
   20CHL1   C10 1445   0.258   2.415   9.971  0.1398 -0.5474  0.0776
   20CHL1   C19 1446   0.256   2.259   9.984  0.1538 -0.8998  0.3016
   20CHL1  H19A 1447   0.258   2.231  10.091 -0.9410  2.1050  1.1724
   20CHL1  H19B 1448   0.163   2.213   9.942  1.2763 -2.5314 -0.4534
   20CHL1  H19C 1449   0.351   2.215   9.946  0.3217 -0.1343 -0.1877
   20CHL1    C1 1450   0.371   2.473  10.060  0.3810 -0.2775 -0.1413
   20CHL1   H1A 1451   0.472   2.431  10.040  0.8061 -1.4341  3.9323
   20CHL1   H1B 1452   0.376   2.582  10.039 -1.5777 -0.2477 -0.5621
   20CHL1    C2 1453   0.342   2.461  10.208  0.6140 -0.3182 -0.4068
   20CHL1   H2A 1454   0.423   2.517  10.261 -0.1995 -0.8545  1.4360
   20CHL1   H2B 1455   0.360   2.357  10.241 -0.3801 -1.4881 -3.3342
   20CHL1   C20 1456   0.355   2.424   9.251  0.1038 -0.1119  0.0610
   20CHL1   H20 1457   0.297   2.333   9.228 -0.1537 -0.0288  0.3778
   20CHL1   C21 1458   0.507   2.395   9.271  0.2630 -0.1045  0.3491
   20CHL1  H21A 1459   0.540   2.322   9.194  1.2082  0.9569 -0.2607
   20CHL1  H21B 1460   0.515   2.336   9.365  0.9867  2.3226  1.8646
   20CHL1  H21C 1461   0.571   2.485   9.278  1.5205 -0.9662  0.0735
   20CHL1   C22 1462   0.342   2.520   9.127  0.6390  0.3908 -0.1107
   20CHL1  H22A 1463   0.236   2.518   9.094 -0.0078 -0.5980  1.9413
   20CHL1  H22B 1464   0.375   2.618   9.166  3.1523  0.3983 -2.1418
   20CHL1   C23 1465   0.438   2.484   9.010 -0.0619  0.0929  0.5133
   20CHL1  H23A 1466   0.539   2.519   9.042  0.2120 -0.8849  0.7390
   20CHL1  H23B 1467   0.442   2.373   8.997 -2.2779  0.0865 -0.2703
   20CHL1   C24 1468   0.382   2.543   8.884 -0.1490 -0.5612 -0.3682
   20CHL1  H24A 1469   0.287   2.489   8.863 -0.8410 -0.3580  2.1225
   20CHL1  H24B 1470   0.365   2.652   8.898  0.2843 -0.3534 -1.4082
   20CHL1   C25 1471   0.486   2.543   8.768  0.3123  0.3018 -0.6531
   20CHL1   H25 1472   0.583   2.579   8.811 -1.5198  2.1996  2.0657
   20CHL1   C26 1473   0.505   2.401   8.714 -0.1153 -0.2476  0.3441
   20CHL1  H26A 1474   0.543   2.346   8.803 -1.3039  1.5035  1.9792
   20CHL1  H26B 1475   0.417   2.340   8.685 -1.0805  2.1968 -2.1495
   20CHL1  H26C 1476   0.573   2.397   8.626  0.3300  3.1088  0.4479
   20CHL1   C27 1477   0.450   2.641   8.656 -1.1161 -0.5322  0.1485
   20CHL1  H27A 1478   0.466   2.751   8.664  0.2981 -0.5114 -2.3803
   20CHL1  H27B 1479   0.512   2.605   8.571 -2.4131  1.6003 -1.7661
   20CHL1  H27C 1480   0.341   2.634   8.638 -1.5758  0.8885  2.1561
   21CHL1    C3 1481   0.676   5.601  10.297  0.5331 -0.4418  0.4157
   21CHL1    H3 1482   0.782   5.618  10.271  0.8784 -0.9775  1.4708
   21CHL1    O3 1483   0.672   5.602  10.439 -0.3222 -0.2911  0.3366
   21CHL1   H3' 1484   0.609   5.532  10.459  0.4245 -1.1635 -0.2837
   21CHL1    C4 1485   0.598   5.725  10.245 -0.2355  0.2505 -0.2381
   21CHL1   H4A 1486   0.494   5.732  10.282 -0.2504 -0.4666 -0.1247
   21CHL1   H4B 1487   0.658   5.808  10.288 -1.3193  1.7230 -1.5219
   21CHL1    C5 1488   0.604   5.739  10.096  0.0007  0.7256  0.2790
   21CHL1    C6 1489   0.664   5.842  10.037  0.0123 -0.2689  0.4179
   21CHL1    H6 1490   0.707   5.924  10.098 -0.2335  1.8346 -2.1422
   21CHL1    C7 1491   0.659   5.868   9.889 -0.4349 -0.2407  0.4443
   21CHL1   H7A 1492   0.638   5.973   9.857 -0.1638 -0.7356 -1.3987
   21CHL1   H7B 1493   0.755   5.832   9.848 -0.6799  0.6155 -0.9378
   21CHL1    C8 1494   0.549   5.770   9.824 -0.6070 -0.1594  0.3103
   21CHL1    H8 1495   0.452   5.812   9.855 -0.5082  0.0820  0.2912
   21CHL1   C14 1496   0.559   5.768   9.671 -0.6804  0.1980 -0.1744
   21CHL1   H14 1497   0.661   5.735   9.644 -0.6578  1.5169 -1.7499
   21CHL1   C15 1498   0.547   5.901   9.592 -0.1721 -0.3366 -0.0931
   21CHL1  H15A 1499   0.457   5.951   9.634  0.5291  0.9225 -0.0432
   21CHL1  H15B 1500   0.641   5.960   9.590  0.4441 -1.3112 -0.1678
   21CHL1   C16 1501   0.514   5.852   9.450 -0.0709 -0.1888 -0.4746
   21CHL1  H16A 1502   0.409   5.872   9.419  0.0462 -2.2929 -2.3158
   21CHL1  H16B 1503   0.597   5.891   9.387  0.3590 -0.5926 -0.1625
   21CHL1   C17 1504   0.513   5.694   9.452 -0.3202 -0.1730  0.4709
   21CHL1   H17 1505   0.616   5.660   9.429  0.2087  0.5842  1.7300
   21CHL1   C13 1506   0.476   5.659   9.596  0.3372  0.4045  0.2047
   21CHL1   C18 1507   0.326   5.699   9.612  0.1429  0.0360  0.1450
   21CHL1  H18A 1508   0.256   5.622   9.573 -0.0850 -0.4163  1.4346
   21CHL1  H18B 1509   0.302   5.699   9.720 -0.8753 -1.6646 -0.0593
   21CHL1  H18C 1510   0.312   5.802   9.572  0.1765  0.0003  0.0418
   21CHL1   C12 1511   0.505   5.520   9.648 -0.4317 -0.4372  0.2789
   21CHL1  H12A 1512   0.437   5.447   9.600 -0.2933 -1.0002  0.9466
   21CHL1  H12B 1513   0.605   5.499   9.603 -0.6340  1.1694 -0.9596
   21CHL1   C11 1514   0.495   5.512   9.799  0.0246 -0.1395 -0.6038
   21CHL1  H11A 1515   0.387   5.506   9.824  0.5187  2.2055  2.4497
   21CHL1  H11B 1516   0.540   5.414   9.824  0.0096  0.1383  0.5304
   21CHL1    C9 1517   0.567   5.624   9.876  0.7138  0.9954 -0.1913
   21CHL1    H9 1518   0.675   5.597   9.871  0.4074 -0.5014  0.9546
   21CHL1   C10 1519   0.551   5.613  10.026  0.5269 -0.1585 -0.5709
   21CHL1   C19 1520   0.402   5.610  10.062  0.0806 -0.0565  0.1373
   21CHL1  H19A 1521   0.352   5.515  10.032  0.0793 -0.4607  1.3622
   21CHL1  H19B 1522   0.388   5.617  10.172  1.5277  0.8616  0.2670
   21CHL1  H19C 1523   0.354   5.696  10.010 -2.2604  0.2575  2.6913
   21CHL1    C1 1524   0.618   5.480  10.085  0.1985  0.2027 -0.6621
   21CHL1   H1A 1525   0.561   5.393  10.045 -0.2763 -0.0558  0.5349
   21CHL1   H1B 1526   0.718   5.481  10.037  0.6124  2.0673  0.1815
   21CHL1    C2 1527   0.629   5.467  10.239 -0.3057  0.2751  0.1287
   21CHL1   H2A 1528   0.692   5.379  10.265  1.2163  2.2945  3.5152
   21CHL1   H2B 1529   0.527   5.447  10.277 -0.7591  2.4435  0.1001
   21CHL1   C20 1530   0.438   5.629   9.330  0.3729  0.6871 -0.3196
   21CHL1   H20 1531   0.332   5.641   9.359  0.5022 -2.1266  1.5258
   21CHL1   C21 1532   0.483   5.478   9.307 -0.1317 -0.5851 -0.4016
   21CHL1  H21A 1533   0.435   5.426   9.221  0.5997  0.5559 -1.5210
   21CHL1  H21B 1534   0.459   5.420   9.399  0.9350  0.6338  0.6569
   21CHL1  H21C 1535   0.592   5.470   9.288  0.0652 -0.2661  0.5827
   21CHL1   C22 1536   0.460   5.699   9.196  0.4102  0.7578 -0.3144
   21CHL1  H22A 1537   0.477   5.808   9.208 -0.3155  0.8186  0.1797
   21CHL1  H22B 1538   0.555   5.658   9.154 -0.7346 -2.6192  0.2369
   21CHL1   C23 1539   0.347   5.669   9.095  0.4877  0.6991  0.2687
   21CHL1  H23A 1540   0.340   5.560   9.078  0.5927  0.7454 -0.0846
   21CHL1  H23B 1541   0.256   5.711   9.144 -0.0370  3.0022 -2.5119
   21CHL1   C24 1542   0.373   5.746   8.961 -0.1016  0.2313 -0.1982
   21CHL1  H24A 1543   0.289   5.713   8.896 -0.6383 -1.8314  1.4766
   21CHL1  H24B 1544   0.353   5.853   8.982 -1.5176  0.0043 -0.3376
   21CHL1   C25 1545   0.504   5.737   8.885  0.6427  0.3679  0.1826
   21CHL1   H25 1546   0.594   5.753   8.948  1.8142  2.0410 -1.8558
   21CHL1   C26 1547   0.527   5.596   8.829 -0.3570 -0.2400  0.1614
   21CHL1  H26A 1548   0.628   5.591   8.782 -0.5294 -1.2097 -0.1238
   21CHL1  H26B 1549   0.533   5.518   8.907  2.4459  1.0707  1.3319
   21CHL1  H26C 1550   0.444   5.571   8.759 -0.4163  0.3788  0.0074
   21CHL1   C27 1551   0.502   5.843   8.774  0.2201 -0.2646  0.8564
   21CHL1  H27A 1552   0.595   5.835   8.714 -0.0342  0.8740  0.3008
   21CHL1  H27B 1553   0.412   5.835   8.708 -0.1080 -1.1638  1.3997
   21CHL1  H27C 1554   0.493   5.945   8.816 -0.7258 -0.7590  1.8807
   22CHL1    C3 1555   0.165   0.016  10.006 -0.0703  0.2191  0.1198
   22CHL1    H3 1556   0.245   0.092  10.013  1.9114 -1.8765  0.8864
   22CHL1    O3 1557   0.120  -0.031  10.140 -0.0821  0.5378  0.1599
   22CHL1   H3' 1558   0.092   0.047  10.189  0.4645  1.9088 -1.6873
   22CHL1    C4 1559   0.047   0.066   9.932  0.6496  0.3512 -0.6615
   22CHL1   H4A 1560  -0.027  -0.017   9.938 -0.9433  1.7047 -1.1760
   22CHL1   H4B 1561   0.006   0.158   9.979  0.8280  1.4775 -2.6613
   22CHL1    C5 1562   0.066   0.084   9.787 -0.0402  0.0739  0.6579
   22CHL1    C6 1563   0.029   0.193   9.723  0.1598 -0.7058  0.0301
   22CHL1    H6 1564  -0.033   0.270   9.770 -0.5734  0.2953 -2.4803
   22CHL1    C7 1565   0.042   0.214   9.579 -1.1923 -0.4915 -1.2317
   22CHL1   H7A 1566  -0.044   0.264   9.529 -2.1185  0.2234  0.9989
   22CHL1   H7B 1567   0.117   0.296   9.575  2.0521 -3.2548  0.0030
   22CHL1    C8 1568   0.100   0.098   9.498  0.6263  0.3476 -0.2296
   22CHL1    H8 1569   0.021   0.020   9.491  0.4451  0.6157 -1.2863
   22CHL1   C14 1570   0.152   0.151   9.369 -0.9617 -0.2617 -1.1137
   22CHL1   H14 1571   0.236   0.211   9.411 -0.1746  0.4259 -3.6131
   22CHL1   C15 1572   0.068   0.246   9.284  0.3190 -0.1809 -0.5260
   22CHL1  H15A 1573  -0.027   0.190   9.269  0.9781 -1.3802 -0.2081
   22CHL1  H15B 1574   0.046   0.336   9.345 -1.0436 -0.3149 -0.8025
   22CHL1   C16 1575   0.145   0.256   9.156  0.3307 -0.5462 -0.7701
   22CHL1  H16A 1576   0.079   0.241   9.068  1.2563  0.8637 -1.7325
   22CHL1  H16B 1577   0.199   0.353   9.149  0.2621 -0.5755 -1.7558
   22CHL1   C17 1578   0.255   0.151   9.161 -0.9410  0.5077  0.5386
   22CHL1   H17 1579   0.354   0.191   9.192 -0.7386 -0.7135  1.4794
   22CHL1   C13 1580   0.223   0.054   9.280 -0.2928 -0.0294  0.6214
   22CHL1   C18 1581   0.113  -0.045   9.223  0.0434  0.4240 -0.3416
   22CHL1  H18A 1582   0.034  -0.000   9.159 -2.5813 -0.3082  2.2206
   22CHL1  H18B 1583   0.169  -0.105   9.149 -2.3140 -1.3766 -0.7205
   22CHL1  H18C 1584   0.072  -0.111   9.303 -1.4600  0.8156 -0.7713
   22CHL1   C12 1585   0.334  -0.011   9.362  0.0396  0.1446 -0.1469
   22CHL1  H12A 1586   0.382  -0.095   9.308  0.4982  0.0442  0.4119
   22CHL1  H12B 1587   0.412   0.069   9.372 -0.2194  0.3589  0.1581
   22CHL1   C11 1588   0.289  -0.065   9.495 -1.2565  0.2278  0.6441
   22CHL1  H11A 1589   0.222  -0.151   9.477  1.0168 -1.1625 -1.5777
   22CHL1  H11B 1590   0.369  -0.104   9.561 -1.5990 -0.7615  0.4785
   22CHL1    C9 1591   0.208   0.033   9.585  0.4274 -0.4627  0.2475
   22CHL1    H9 1592   0.278   0.116   9.608 -0.1538  0.2783 -0.6507
   22CHL1   C10 1593   0.148  -0.031   9.717  0.2843 -0.6938 -0.4465
   22CHL1   C19 1594   0.055  -0.155   9.691 -0.3034 -0.0552 -0.0564
   22CHL1  H19A 1595  -0.031  -0.125   9.628  1.4212  2.6549 -1.1783
   22CHL1  H19B 1596   0.121  -0.236   9.653 -0.1237  0.7822 -1.5346
   22CHL1  H19C 1597   0.007  -0.186   9.787  0.7837 -0.5605  0.3371
   22CHL1    C1 1598   0.269  -0.078   9.798  0.2661  0.3836  0.4017
   22CHL1   H1A 1599   0.319  -0.165   9.752 -4.0918 -0.6752 -2.5764
   22CHL1   H1B 1600   0.336   0.011   9.807  2.0307 -1.0907  2.2772
   22CHL1    C2 1601   0.234  -0.109   9.939  0.0208 -0.4869 -0.2912
   22CHL1   H2A 1602   0.319  -0.141  10.003 -0.2402 -0.5449  0.0278
   22CHL1   H2B 1603   0.163  -0.194   9.942 -0.8177  0.1944 -0.3746
   22CHL1   C20 1604   0.289   0.095   9.018  0.4623 -0.9669 -1.0105
   22CHL1   H20 1605   0.211   0.026   8.979  1.9604 -2.7379 -1.0057
   22CHL1   C21 1606   0.428   0.014   9.033 -0.1859  0.2664 -0.2670
   22CHL1  H21A 1607   0.476  -0.017   8.938 -0.6130  2.8790 -1.3793
   22CHL1  H21B 1608   0.390  -0.076   9.086  3.7942 -0.2287  1.9228
   22CHL1  H21C 1609   0.506   0.067   9.091 -0.4036  0.1713  0.1180
   22CHL1   C22 1610   0.307   0.201   8.907 -0.0398 -0.0981  0.0451
   22CHL1  H22A 1611   0.230   0.279   8.920  0.0953 -0.0778  0.7325
   22CHL1  H22B 1612   0.408   0.247   8.908 -0.2697  0.4071 -0.3253
   22CHL1   C23 1613   0.270   0.145   8.771  0.4520  0.2473 -0.6273
   22CHL1  H23A 1614   0.320   0.051   8.740 -0.2802 -0.6466  0.8668
   22CHL1  H23B 1615   0.159   0.135   8.775  0.4588 -0.5142 -1.9751
   22CHL1   C24 1616   0.284   0.251   8.662  0.0845  0.3589  0.1620
   22CHL1  H24A 1617   0.207   0.329   8.678 -1.3525 -0.4091 -2.5137
   22CHL1  H24B 1618   0.379   0.308   8.668  0.7425 -0.7437  0.4145
   22CHL1   C25 1619   0.264   0.202   8.516  0.0266 -0.3434  0.1825
   22CHL1   H25 1620   0.260   0.285   8.442 -0.1569 -0.9016 -0.4362
   22CHL1   C26 1621   0.377   0.105   8.468 -0.3019  0.2500  0.3845
   22CHL1  H26A 1622   0.388   0.017   8.536  0.1994  1.0231  1.3188
   22CHL1  H26B 1623   0.357   0.062   8.368  2.5887  0.1119 -0.1842
   22CHL1  H26C 1624   0.479   0.148   8.463 -0.2985  0.1183 -0.9218
   22CHL1   C27 1625   0.129   0.135   8.506  0.5864 -0.6274  0.4766
   22CHL1  H27A 1626   0.044   0.183   8.558  0.5050 -2.6562  2.2601
   22CHL1  H27B 1627   0.106   0.114   8.400  0.4539 -0.2428  0.4300
   22CHL1  H27C 1628   0.139   0.037   8.556  2.1717 -1.0106 -0.5481
   23CHL1    C3 1629   3.017   1.145  10.055  0.3213  0.5506  0.8881
   23CHL1    H3 1630   3.101   1.096  10.002 -0.3640  1.0848 -0.7561
   23CHL1    O3 1631   2.989   1.087  10.175  0.4956 -0.1961  0.3733
   23CHL1   H3' 1632   3.076   1.073  10.213  0.8829  0.7577 -0.1482
   23CHL1    C4 1633   3.036   1.294  10.058  0.3801 -0.5239  0.4384
   23CHL1   H4A 1634   2.958   1.334  10.126  2.5170 -0.4391  2.9203
   23CHL1   H4B 1635   3.131   1.310  10.113 -0.1161  0.4523  1.0378
   23CHL1    C5 1636   3.031   1.361   9.927 -0.3437  0.3451 -0.6264
   23CHL1    C6 1637   3.136   1.438   9.885 -0.0069  0.0120  0.4497
   23CHL1    H6 1638   3.221   1.458   9.952  1.0892  0.2572 -0.9871
   23CHL1    C7 1639   3.132   1.516   9.758 -0.3463  0.4805  0.3236
   23CHL1   H7A 1640   3.176   1.615   9.781 -2.0979  0.9398  1.7274
   23CHL1   H7B 1641   3.205   1.474   9.684  0.6548  1.0480  0.9746
   23CHL1    C8 1642   2.994   1.522   9.685 -0.1124  0.6808 -0.1287
   23CHL1    H8 1643   2.929   1.594   9.739  2.3580  1.6881  1.6171
   23CHL1   C14 1644   3.003   1.572   9.543 -0.1024  0.0436  0.9987
   23CHL1   H14 1645   3.076   1.500   9.501  1.0571  2.2291 -0.8267
   23CHL1   C15 1646   3.071   1.706   9.527 -0.0380 -0.1650  0.2578
   23CHL1  H15A 1647   3.011   1.765   9.600 -1.0580 -0.5291 -0.2774
   23CHL1  H15B 1648   3.173   1.696   9.570 -0.3797  0.2661  1.1783
   23CHL1   C16 1649   3.035   1.747   9.378  0.4301  0.7768 -0.0876
   23CHL1  H16A 1650   2.996   1.850   9.362  0.2515  1.2539  3.0010
   23CHL1  H16B 1651   3.118   1.729   9.307  0.1282 -2.0286  0.2163
   23CHL1   C17 1652   2.936   1.638   9.328  0.6227 -0.4592  0.1384
   23CHL1   H17 1653   3.006   1.560   9.290 -0.7282 -2.3691  1.4530
   23CHL1   C13 1654   2.875   1.571   9.458 -0.5071  0.1529  0.1389
   23CHL1   C18 1655   2.768   1.652   9.524  0.4239  0.4560  0.1219
   23CHL1  H18A 1656   2.772   1.644   9.634 -2.9176  1.4199  0.3750
   23CHL1  H18B 1657   2.773   1.758   9.489 -0.8887  0.9729  1.4407
   23CHL1  H18C 1658   2.669   1.618   9.485 -1.4385  3.8753  1.6220
   23CHL1   C12 1659   2.832   1.426   9.453  0.1222  0.1142  0.2013
   23CHL1  H12A 1660   2.745   1.392   9.393 -0.0957 -0.4151  0.8121
   23CHL1  H12B 1661   2.908   1.368   9.397 -0.5499 -0.9912  0.4064
   23CHL1   C11 1662   2.808   1.373   9.592 -0.3756  0.3838 -0.2556
   23CHL1  H11A 1663   2.718   1.422   9.636 -1.0198 -0.8323 -0.1811
   23CHL1  H11B 1664   2.788   1.263   9.588  0.3593  0.1269  2.1176
   23CHL1    C9 1665   2.929   1.378   9.689  0.0874 -0.1234  0.3626
   23CHL1    H9 1666   3.009   1.312   9.649  0.3674  1.9878 -2.7485
   23CHL1   C10 1667   2.906   1.335   9.833  0.5102 -0.5835 -0.0435
   23CHL1   C19 1668   2.784   1.414   9.894 -0.0362  0.2136  0.6930
   23CHL1  H19A 1669   2.797   1.523   9.874 -1.0305 -0.3014 -3.1745
   23CHL1  H19B 1670   2.684   1.391   9.852  0.8753 -2.8887  0.0875
   23CHL1  H19C 1671   2.766   1.402  10.003  0.3136  0.9315  0.8346
   23CHL1    C1 1672   2.897   1.181   9.831 -0.1155 -0.4261  0.4496
   23CHL1   H1A 1673   2.804   1.155   9.775 -0.2413 -1.2776  1.0414
   23CHL1   H1B 1674   2.971   1.134   9.763 -1.0564  0.4213 -1.2077
   23CHL1    C2 1675   2.890   1.112   9.970 -0.9581  0.3136 -0.1162
   23CHL1   H2A 1676   2.889   1.003   9.949 -2.9045  0.1185  0.8932
   23CHL1   H2B 1677   2.794   1.146  10.013  0.0035  1.1735  1.3728
   23CHL1   C20 1678   2.842   1.690   9.218 -0.3523  0.1883  0.2935
   23CHL1   H20 1679   2.785   1.775   9.260  0.1854  0.4717  0.4623
   23CHL1   C21 1680   2.742   1.578   9.168 -0.0220 -0.7015 -0.6742
   23CHL1  H21A 1681   2.671   1.548   9.248 -0.9096  0.9172 -0.8307
   23CHL1  H21B 1682   2.799   1.490   9.129 -0.9109 -1.3307 -0.5736
   23CHL1  H21C 1683   2.684   1.625   9.085  0.1251  1.2776  0.3298
   23CHL1   C22 1684   2.922   1.752   9.099  0.1555  0.2353 -0.3932
   23CHL1  H22A 1685   2.855   1.810   9.032  0.2098 -1.8845 -2.3431
   23CHL1  H22B 1686   2.986   1.830   9.145  1.6772 -1.0277 -0.3461
   23CHL1   C23 1687   3.006   1.661   9.009 -0.1469 -0.0247  0.5738
   23CHL1  H23A 1688   3.082   1.609   9.071  1.0287  1.3474  0.2968
   23CHL1  H23B 1689   2.941   1.582   8.964 -0.7398 -0.4945  2.2055
   23CHL1   C24 1690   3.091   1.742   8.916  0.6958 -0.6219  0.7888
   23CHL1  H24A 1691   3.023   1.809   8.860  1.6724 -1.0641 -0.9609
   23CHL1  H24B 1692   3.169   1.807   8.963  0.2746  0.9064 -0.5785
   23CHL1   C25 1693   3.159   1.657   8.797 -0.0460  0.1678 -0.5671
   23CHL1   H25 1694   3.227   1.590   8.854  1.8763  1.5781 -1.1444
   23CHL1   C26 1695   3.058   1.582   8.710 -0.4036  0.2559 -0.1796
   23CHL1  H26A 1696   3.110   1.520   8.634  0.1683 -1.5445  1.6381
   23CHL1  H26B 1697   3.008   1.508   8.776  1.2538 -1.3482 -0.6759
   23CHL1  H26C 1698   2.994   1.658   8.661  0.3832  2.8241  2.6466
   23CHL1   C27 1699   3.233   1.758   8.718  0.8225 -0.3141 -0.3749
   23CHL1  H27A 1700   3.260   1.717   8.618  0.3048  1.8632 -1.4312
   23CHL1  H27B 1701   3.184   1.857   8.711  0.2440 -0.6450 -1.0796
   23CHL1  H27C 1702   3.328   1.787   8.768  0.3456  1.1736 -0.3154
   24CHL1    C3 1703   3.879   2.147  10.117 -1.1316 -0.1231 -0.4857
   24CHL1    H3 1704   3.959   2.070  10.115 -0.9721  0.0100  0.7872
   24CHL1    O3 1705   3.844   2.185  10.247  0.3014  0.4468 -0.4078
   24CHL1   H3' 1706   3.846   2.281  10.247 -1.3168  0.5303  2.2372
   24CHL1    C4 1707   3.956   2.273  10.059  0.8273  0.6029 -0.6475
   24CHL1   H4A 1708   3.881   2.354  10.070 -1.3201 -1.6458  1.9369
   24CHL1   H4B 1709   4.032   2.293  10.138  0.4800 -0.3564 -0.0574
   24CHL1    C5 1710   3.993   2.271   9.909  0.2554  0.1021 -0.3923
   24CHL1    C6 1711   4.124   2.299   9.876  0.1235  0.5519  0.0665
   24CHL1    H6 1712   4.189   2.332   9.958 -0.9534 -0.7608  1.4735
   24CHL1    C7 1713   4.176   2.282   9.734  0.3417 -0.1534 -0.2679
   24CHL1   H7A 1714   4.239   2.371   9.709  1.3406 -0.4329  1.1679
   24CHL1   H7B 1715   4.238   2.189   9.735  1.0649  0.3225  0.3092
   24CHL1    C8 1716   4.064   2.267   9.628 -0.1049 -0.3953  0.4037
   24CHL1    H8 1717   4.024   2.364   9.594  1.7752  1.5201  3.4276
   24CHL1   C14 1718   4.117   2.192   9.505 -1.1051 -0.5498 -0.2826
   24CHL1   H14 1719   4.142   2.092   9.546 -0.5377  0.5484  2.1513
   24CHL1   C15 1720   4.253   2.239   9.447  0.7988 -0.5828 -0.0761
   24CHL1  H15A 1721   4.252   2.350   9.438  1.0666 -0.5020  0.8534
   24CHL1  H15B 1722   4.346   2.204   9.497 -0.3260 -0.2803  2.2452
   24CHL1   C16 1723   4.251   2.182   9.301  0.0230  0.4009 -0.2670
   24CHL1  H16A 1724   4.272   2.255   9.220 -0.4669  2.9316  1.8298
   24CHL1  H16B 1725   4.338   2.113   9.295  0.1778  0.3044  2.4500
   24CHL1   C17 1726   4.117   2.104   9.276  0.0524 -0.2827 -0.5705
   24CHL1   H17 1727   4.131   1.999   9.311 -2.1431 -0.8185 -1.2401
   24CHL1   C13 1728   4.022   2.171   9.380 -0.6053 -0.2135 -0.5304
   24CHL1   C18 1729   3.975   2.309   9.335  0.0303 -0.9052  0.2976
   24CHL1  H18A 1730   3.910   2.360   9.410 -0.4745 -0.7828 -0.2163
   24CHL1  H18B 1731   4.058   2.366   9.288  1.6948 -1.7010  2.1865
   24CHL1  H18C 1732   3.897   2.292   9.258 -1.1597 -1.7394  1.6575
   24CHL1   C12 1733   3.907   2.092   9.437  0.5366  0.1144  0.1426
   24CHL1  H12A 1734   3.824   2.068   9.367  0.3296 -0.3766  0.5622
   24CHL1  H12B 1735   3.948   1.995   9.472 -1.8959 -1.0449 -0.1320
   24CHL1   C11 1736   3.839   2.148   9.564 -0.4099 -0.6943 -0.2134
   24CHL1  H11A 1737   3.780   2.241   9.546 -0.2576  0.0640  2.8737
   24CHL1  H11B 1738   3.753   2.088   9.601 -2.3349  1.5099 -0.9556
   24CHL1    C9 1739   3.948   2.179   9.677 -0.0774 -0.4431 -0.5975
   24CHL1    H9 1740   3.994   2.078   9.690 -0.3789 -0.5244 -0.1719
   24CHL1   C10 1741   3.887   2.224   9.815 -0.0114 -0.1547  0.3046
   24CHL1   C19 1742   3.800   2.344   9.778  0.2507  0.0924  0.4516
   24CHL1  H19A 1743   3.756   2.406   9.859  1.8894 -1.0578  2.2763
   24CHL1  H19B 1744   3.863   2.417   9.722  2.3571 -1.0795  1.2086
   24CHL1  H19C 1745   3.718   2.314   9.711 -0.9556  0.4711  1.7345
   24CHL1    C1 1746   3.803   2.110   9.879 -0.1467  0.0459  0.7078
   24CHL1   H1A 1747   3.706   2.107   9.824  0.0384  0.7741  0.3268
   24CHL1   H1B 1748   3.852   2.014   9.851  0.6039  0.9622 -1.1829
   24CHL1    C2 1749   3.764   2.119  10.031 -0.7455  0.2948 -0.0294
   24CHL1   H2A 1750   3.709   2.027  10.059 -0.5125  0.3880  0.7543
   24CHL1   H2B 1751   3.692   2.204  10.036 -0.9680  0.0784  0.4439
   24CHL1   C20 1752   4.073   2.094   9.133  0.4913 -0.0609 -0.2857
   24CHL1   H20 1753   4.051   2.195   9.092 -1.5144 -0.3292  0.0585
   24CHL1   C21 1754   3.936   2.029   9.124 -0.5489 -0.4821 -0.3508
   24CHL1  H21A 1755   3.933   1.942   9.194  1.9501 -2.5244 -2.6657
   24CHL1  H21B 1756   3.928   1.986   9.022  0.7943  0.7918 -1.0133
   24CHL1  H21C 1757   3.861   2.107   9.150 -1.3337 -1.6587  0.9899
   24CHL1   C22 1758   4.182   2.024   9.050  0.4623 -0.5254 -1.1549
   24CHL1  H22A 1759   4.276   2.074   9.082 -1.3434  1.1370  1.8078
   24CHL1  H22B 1760   4.185   1.916   9.077 -1.7790  0.2216  2.5500
   24CHL1   C23 1761   4.165   2.040   8.900  0.0850  0.8814 -0.2161
   24CHL1  H23A 1762   4.075   1.981   8.870 -0.4056  0.7045  1.5433
   24CHL1  H23B 1763   4.159   2.145   8.865  0.4529  0.4126 -1.7183
   24CHL1   C24 1764   4.292   1.993   8.829  0.3873  0.7399  0.4149
   24CHL1  H24A 1765   4.374   2.049   8.879 -1.1870  0.8471  2.9354
   24CHL1  H24B 1766   4.311   1.887   8.857  2.0948 -0.1950 -3.8036
   24CHL1   C25 1767   4.279   1.999   8.673 -0.0020  0.0624 -0.5377
   24CHL1   H25 1768   4.172   1.973   8.656 -0.4696  0.9059  0.9937
   24CHL1   C26 1769   4.310   2.143   8.618 -0.1259  0.8956 -0.3204
   24CHL1  H26A 1770   4.333   2.144   8.509  0.6416  0.6818 -0.1662
   24CHL1  H26B 1771   4.232   2.217   8.646  0.4161  0.6736  1.8726
   24CHL1  H26C 1772   4.404   2.182   8.662 -0.4110  1.0059  0.1841
   24CHL1   C27 1773   4.370   1.891   8.616 -0.2191 -0.1266 -0.4643
   24CHL1  H27A 1774   4.342   1.864   8.512  1.2593  1.3988 -1.2814
   24CHL1  H27B 1775   4.479   1.915   8.622 -0.2837 -0.0662  0.6356
   24CHL1  H27C 1776   4.363   1.808   8.689  2.3863  0.9679  1.1132
   25CHL1    C3 1777   6.098   3.387  10.328 -0.0333  0.2128 -0.1164
   25CHL1    H3 1778   6.124   3.493  10.305  0.7977 -0.6320 -3.2515
   25CHL1    O3 1779   6.097   3.356  10.469  0.5489  0.5630  0.4995
   25CHL1   H3' 1780   6.104   3.261  10.471 -1.9063  0.3927  1.8371
   25CHL1    C4 1781   5.960   3.364  10.266 -0.2881 -0.1025  0.8103
   25CHL1   H4A 1782   5.944   3.255  10.274 -0.8867 -0.1682 -1.0509
   25CHL1   H4B 1783   5.890   3.418  10.334  0.0121  2.1965 -0.6588
   25CHL1    C5 1784   5.966   3.411  10.120  1.1659 -1.3533  0.5900
   25CHL1    C6 1785   5.882   3.506  10.071  0.5838 -0.0223  1.0126
   25CHL1    H6 1786   5.810   3.553  10.139  0.2388 -1.2564  1.5042
   25CHL1    C7 1787   5.880   3.560   9.926 -0.4510  0.1239 -0.1389
   25CHL1   H7A 1788   5.777   3.566   9.885 -0.7826  1.2991  0.8291
   25CHL1   H7B 1789   5.928   3.659   9.916  0.7453 -0.5308 -1.0346
   25CHL1    C8 1790   5.971   3.468   9.835 -0.2585  0.5620  0.3307
   25CHL1    H8 1791   5.924   3.370   9.816 -0.4523  0.9831 -1.5006
   25CHL1   C14 1792   5.991   3.528   9.701 -0.3736 -0.0885  0.0170
   25CHL1   H14 1793   6.050   3.620   9.721 -0.6502  0.0321  0.2832
   25CHL1   C15 1794   5.868   3.569   9.623 -0.0451  0.1202  0.5075
   25CHL1  H15A 1795   5.787   3.493   9.620  0.4823 -0.4059 -1.3184
   25CHL1  H15B 1796   5.822   3.659   9.669  0.7842  0.1966  1.2065
   25CHL1   C16 1797   5.915   3.604   9.482 -0.3521 -0.2537 -0.6690
   25CHL1  H16A 1798   5.845   3.549   9.415 -0.2763 -0.0392 -0.9289
   25CHL1  H16B 1799   5.912   3.714   9.467 -1.2069 -0.2983 -0.8637
   25CHL1   C17 1800   6.060   3.539   9.479 -0.3251  0.1717  0.4704
   25CHL1   H17 1801   6.124   3.628   9.495  2.2121 -0.8563 -3.1080
   25CHL1   C13 1802   6.070   3.449   9.607 -0.2440 -0.3933  0.4284
   25CHL1   C18 1803   6.000   3.310   9.569 -0.1130  0.6533  0.0776
   25CHL1  H18A 1804   6.010   3.239   9.654 -0.2256 -1.5427 -1.6889
   25CHL1  H18B 1805   5.892   3.316   9.544  0.0112 -0.9049 -0.8552
   25CHL1  H18C 1806   6.046   3.259   9.482 -0.9808 -0.2084  0.1153
   25CHL1   C12 1807   6.207   3.423   9.675  0.0372  0.1681  0.1752
   25CHL1  H12A 1808   6.270   3.358   9.610 -2.5465  0.2952 -2.5832
   25CHL1  H12B 1809   6.254   3.523   9.680 -0.2906  0.5126 -2.5948
   25CHL1   C11 1810   6.197   3.355   9.808  0.1330 -0.1418 -0.5337
   25CHL1  H11A 1811   6.162   3.250   9.796 -3.3868  0.9819 -0.3553
   25CHL1  H11B 1812   6.296   3.338   9.856 -0.5425 -3.1437 -0.0820
   25CHL1    C9 1813   6.101   3.431   9.910 -0.1932  0.3041  0.1363
   25CHL1    H9 1814   6.155   3.527   9.920  0.6659 -0.2678  1.0407
   25CHL1   C10 1815   6.073   3.349  10.034  0.4465  0.2545  0.1853
   25CHL1   C19 1816   6.015   3.206  10.009 -0.1162 -0.0874 -0.1411
   25CHL1  H19A 1817   6.100   3.152   9.962 -1.1429  0.6761 -3.0074
   25CHL1  H19B 1818   5.995   3.148  10.102 -1.5650  2.0732  0.9347
   25CHL1  H19C 1819   5.926   3.207   9.942  1.1282 -1.5957 -1.8770
   25CHL1    C1 1820   6.197   3.349  10.110  0.2107 -0.0664 -0.0022
   25CHL1   H1A 1821   6.259   3.268  10.067 -0.5332  0.1341 -1.5220
   25CHL1   H1B 1822   6.263   3.438  10.097 -0.4745  0.5670  0.7796
   25CHL1    C2 1823   6.194   3.304  10.254 -0.4462  1.1223 -0.9496
   25CHL1   H2A 1824   6.295   3.325  10.295 -0.8809  0.3284  0.5867
   25CHL1   H2B 1825   6.185   3.194  10.262  1.9675  0.9088 -0.7166
   25CHL1   C20 1826   6.109   3.488   9.338  0.6033  0.0615  1.0504
   25CHL1   H20 1827   6.068   3.389   9.309  1.7003  0.3531 -1.6369
   25CHL1   C21 1828   6.258   3.460   9.352 -0.0852 -0.5652 -0.4195
   25CHL1  H21A 1829   6.319   3.539   9.401  0.4487 -1.3752  0.2460
   25CHL1  H21B 1830   6.305   3.449   9.252  1.9174 -0.5114  0.5030
   25CHL1  H21C 1831   6.262   3.363   9.407 -0.9603  0.2353  1.0597
   25CHL1   C22 1832   6.091   3.595   9.233  0.4320 -0.2369 -0.2987
   25CHL1  H22A 1833   5.983   3.597   9.210  0.1436  0.7051  1.0376
   25CHL1  H22B 1834   6.115   3.694   9.278  0.4549 -0.4785  0.2335
   25CHL1   C23 1835   6.164   3.575   9.103  0.1747 -0.7199  0.1142
   25CHL1  H23A 1836   6.267   3.614   9.123 -0.0822 -1.2562  2.6130
   25CHL1  H23B 1837   6.166   3.466   9.086  1.1651 -0.7455  0.3436
   25CHL1   C24 1838   6.096   3.638   8.981  0.6729 -0.0424  0.2410
   25CHL1  H24A 1839   5.992   3.600   8.968  0.4750  0.1633  1.1472
   25CHL1  H24B 1840   6.088   3.745   9.007  1.3070  0.4573 -1.5749
   25CHL1   C25 1841   6.163   3.623   8.850 -0.6878  0.2352  0.9771
   25CHL1   H25 1842   6.152   3.513   8.842 -1.9414  0.2408  2.4116
   25CHL1   C26 1843   6.099   3.707   8.739 -0.4884  0.4954  0.0323
   25CHL1  H26A 1844   6.097   3.815   8.764 -2.9447  0.5158 -0.1671
   25CHL1  H26B 1845   6.151   3.697   8.642 -2.8842  0.1118 -1.2306
   25CHL1  H26C 1846   5.990   3.689   8.735 -0.3440 -0.1374 -1.2107
   25CHL1   C27 1847   6.316   3.651   8.844  0.7980  0.9117  0.7372
   25CHL1  H27A 1848   6.378   3.601   8.922 -2.3830 -0.9708  2.1554
   25CHL1  H27B 1849   6.359   3.625   8.745  1.8152  2.9403  0.6130
   25CHL1  H27C 1850   6.336   3.758   8.864  0.1116  1.1732  0.0279
   26CHL1    C3 1851   0.746   6.611  10.186  0.0261 -0.2281  0.2602
   26CHL1    H3 1852   0.781   6.705  10.233  0.0283  0.7888 -1.7039
   26CHL1    O3 1853   0.710   6.522  10.291  0.5114  0.2102  0.6425
   26CHL1   H3' 1854   0.631   6.562  10.328 -1.6619 -1.3934 -2.0872
   26CHL1    C4 1855   0.619   6.648  10.116  0.5130 -0.0700 -0.0098
   26CHL1   H4A 1856   0.560   6.562  10.079 -1.1928 -0.2957  3.0282
   26CHL1   H4B 1857   0.547   6.705  10.179 -1.5866 -2.1337 -0.4714
   26CHL1    C5 1858   0.641   6.728   9.990  0.1393  0.2393 -0.2042
   26CHL1    C6 1859   0.594   6.855   9.979 -0.6852  0.1086  0.3775
   26CHL1    H6 1860   0.523   6.901  10.050 -2.0565 -1.1235 -0.1596
   26CHL1    C7 1861   0.598   6.936   9.852  0.7217 -0.3998  0.1130
   26CHL1   H7A 1862   0.495   6.965   9.821  0.8596 -0.8215 -0.7530
   26CHL1   H7B 1863   0.648   7.033   9.870  0.6245 -0.3102 -0.0934
   26CHL1    C8 1864   0.660   6.862   9.723  0.6480 -0.4906  0.1507
   26CHL1    H8 1865   0.580   6.798   9.680  0.0722  1.1573 -1.2721
   26CHL1   C14 1866   0.717   6.963   9.623  1.2893  0.0685  0.1446
   26CHL1   H14 1867   0.792   7.023   9.679 -1.2492  1.1721  2.4727
   26CHL1   C15 1868   0.618   7.072   9.564 -0.2908 -0.5112  0.2706
   26CHL1  H15A 1869   0.516   7.028   9.562 -0.1224 -1.0009  1.5174
   26CHL1  H15B 1870   0.602   7.164   9.625 -1.3410  0.0779 -0.8887
   26CHL1   C16 1871   0.690   7.119   9.433  0.3842 -0.8289  0.9442
   26CHL1  H16A 1872   0.617   7.104   9.351  1.6059  1.8465 -0.7141
   26CHL1  H16B 1873   0.716   7.227   9.441 -3.0868  0.0628  0.7343
   26CHL1   C17 1874   0.821   7.034   9.424 -0.3619  0.0525 -0.1982
   26CHL1   H17 1875   0.903   7.094   9.470 -0.3458  0.4725 -0.7628
   26CHL1   C13 1876   0.793   6.908   9.510  0.0077 -0.3612  0.5162
   26CHL1   C18 1877   0.704   6.812   9.430 -0.0262  0.1356  0.1491
   26CHL1  H18A 1878   0.660   6.734   9.497 -1.1560  0.8484  0.2391
   26CHL1  H18B 1879   0.611   6.858   9.390  0.5753  1.6198  0.4553
   26CHL1  H18C 1880   0.760   6.747   9.359 -2.0176 -1.8595  0.3299
   26CHL1   C12 1881   0.916   6.833   9.566 -0.5567  0.4017  0.7122
   26CHL1  H12A 1882   0.970   6.797   9.476 -1.5283 -0.3338  0.4098
   26CHL1  H12B 1883   0.987   6.904   9.613  0.5808 -2.2647  3.2047
   26CHL1   C11 1884   0.866   6.722   9.660 -0.0721  0.2297 -0.2848
   26CHL1  H11A 1885   0.822   6.638   9.601  0.4061  0.4388 -0.9451
   26CHL1  H11B 1886   0.952   6.679   9.715 -2.3302 -1.8796  1.6930
   26CHL1    C9 1887   0.767   6.770   9.776 -0.6565  0.5014  0.5674
   26CHL1    H9 1888   0.837   6.834   9.834 -0.2415  2.0212 -1.5279
   26CHL1   C10 1889   0.728   6.666   9.884  0.3533 -0.0760 -0.0619
   26CHL1   C19 1890   0.650   6.543   9.810 -0.9068 -0.4264  0.2827
   26CHL1  H19A 1891   0.572   6.583   9.741 -1.6613  0.5150  1.6640
   26CHL1  H19B 1892   0.714   6.492   9.735 -4.8737 -1.3863 -2.6694
   26CHL1  H19C 1893   0.609   6.464   9.876  0.0398 -1.3157 -0.1859
   26CHL1    C1 1894   0.855   6.619   9.957 -0.9412 -0.0659 -0.1932
   26CHL1   H1A 1895   0.891   6.547   9.881 -3.0462 -0.5697 -0.7391
   26CHL1   H1B 1896   0.925   6.704   9.976  0.1235 -0.5126 -1.9627
   26CHL1    C2 1897   0.841   6.545  10.097 -0.0017 -0.0134 -0.3567
   26CHL1   H2A 1898   0.947   6.537  10.130  0.2373  0.4747 -0.9943
   26CHL1   H2B 1899   0.818   6.438  10.080  0.9848 -0.2555 -0.2124
   26CHL1   C20 1900   0.878   7.002   9.282  0.0265  0.1608 -0.1777
   26CHL1   H20 1901   0.938   6.909   9.289  1.0101  0.6906 -1.3813
   26CHL1   C21 1902   0.981   7.120   9.260 -0.4282 -0.3144  0.1044
   26CHL1  H21A 1903   0.913   7.203   9.232 -2.7024 -2.1621 -0.0769
   26CHL1  H21B 1904   1.042   7.096   9.170 -0.9260 -1.2037 -0.0075
   26CHL1  H21C 1905   1.049   7.143   9.344 -0.9633  0.5300  0.3061
   26CHL1   C22 1906   0.771   6.989   9.167 -0.1386  0.2408  0.3803
   26CHL1  H22A 1907   0.711   6.901   9.198  0.7022 -0.8234 -0.9469
   26CHL1  H22B 1908   0.710   7.082   9.174 -0.5263  0.3845 -3.7714
   26CHL1   C23 1909   0.839   6.991   9.029  0.1910 -0.8122  0.1574
   26CHL1  H23A 1910   0.896   7.086   9.022  0.0511 -0.8602 -2.0447
   26CHL1  H23B 1911   0.913   6.909   9.018  1.2504 -0.0332  1.4090
   26CHL1   C24 1912   0.733   7.005   8.920 -0.1474  0.6890 -0.8848
   26CHL1  H24A 1913   0.658   6.923   8.929 -2.0937  2.6758  1.8038
   26CHL1  H24B 1914   0.679   7.096   8.951 -0.1332  0.4566 -0.1780
   26CHL1   C25 1915   0.781   7.014   8.776  0.4121  0.6082 -0.1616
   26CHL1   H25 1916   0.863   7.088   8.765  0.8713  0.0663 -0.4126
   26CHL1   C26 1917   0.847   6.881   8.743  0.8631  0.4430  0.6969
   26CHL1  H26A 1918   0.950   6.867   8.781  0.7423 -2.3969  0.1119
   26CHL1  H26B 1919   0.777   6.796   8.760  1.3204 -0.2661 -0.8814
   26CHL1  H26C 1920   0.875   6.874   8.636 -0.0566 -1.6179  0.5570
   26CHL1   C27 1921   0.674   7.053   8.677  0.3674 -0.3182 -0.4643
   26CHL1  H27A 1922   0.586   6.985   8.679  1.1955 -1.4406 -1.1135
   26CHL1  H27B 1923   0.633   7.150   8.712 -2.4954 -1.8224  0.5006
   26CHL1  H27C 1924   0.706   7.069   8.572 -0.1494  0.1363 -0.5477
   27CHL1    C3 1925   6.669   3.468  10.474  0.3035 -0.0430  0.1342
   27CHL1    H3 1926   6.733   3.558  10.472 -0.9519  0.8266 -1.7133
   27CHL1    O3 1927   6.655   3.439  10.612 -0.4434 -0.0518 -0.0777
   27CHL1   H3' 1928   6.576   3.386  10.620 -0.1686 -0.3357  0.8799
   27CHL1    C4 1929   6.531   3.486  10.401  0.9374  0.4128  0.1433
   27CHL1   H4A 1930   6.468   3.396  10.415 -1.8662  2.0932 -1.1602
   27CHL1   H4B 1931   6.489   3.575  10.452  0.2231 -0.1592  0.5540
   27CHL1    C5 1932   6.552   3.515  10.254 -0.1331  0.4464  0.4841
   27CHL1    C6 1933   6.510   3.626  10.191  0.3079  0.0714 -0.3476
   27CHL1    H6 1934   6.450   3.694  10.254  0.7527  0.8149 -0.7198
   27CHL1    C7 1935   6.530   3.669  10.053  0.2428  0.6023  0.4718
   27CHL1   H7A 1936   6.435   3.701  10.005  0.7975  0.9052 -0.4428
   27CHL1   H7B 1937   6.601   3.754  10.043  0.2487  1.0587  3.8497
   27CHL1    C8 1938   6.579   3.550   9.962 -0.2849  0.3739  0.3048
   27CHL1    H8 1939   6.498   3.475   9.950  1.1157 -1.1344  0.0777
   27CHL1   C14 1940   6.625   3.586   9.825 -0.0237  0.0911 -0.0465
   27CHL1   H14 1941   6.713   3.648   9.854  0.7148 -1.1464  0.4144
   27CHL1   C15 1942   6.537   3.663   9.730 -0.7613 -0.5326  0.5087
   27CHL1  H15A 1943   6.434   3.622   9.728 -0.9142 -0.4847  4.2569
   27CHL1  H15B 1944   6.524   3.772   9.749 -0.9532 -0.4563 -0.0470
   27CHL1   C16 1945   6.592   3.632   9.589  0.0726 -0.0516 -0.3101
   27CHL1  H16A 1946   6.510   3.589   9.527 -2.9534  1.0602  2.7316
   27CHL1  H16B 1947   6.618   3.728   9.539  1.3418  0.5804  1.5059
   27CHL1   C17 1948   6.718   3.546   9.614  0.3939  0.2580  0.2281
   27CHL1   H17 1949   6.799   3.617   9.640 -0.9457  1.9063  0.0236
   27CHL1   C13 1950   6.689   3.474   9.746  0.2599 -0.5888  0.6266
   27CHL1   C18 1951   6.601   3.363   9.707  0.1402 -0.3749  0.1062
   27CHL1  H18A 1952   6.506   3.393   9.658 -0.8663 -2.5242  0.6591
   27CHL1  H18B 1953   6.647   3.285   9.642 -2.6452  0.0883 -2.5477
   27CHL1  H18C 1954   6.560   3.303   9.790  3.5857 -2.1179  0.6500
   27CHL1   C12 1955   6.812   3.410   9.820  0.4385 -0.1943 -0.5946
   27CHL1  H12A 1956   6.856   3.320   9.771  0.9854  0.1487 -0.7333
   27CHL1  H12B 1957   6.890   3.487   9.837  0.3518 -0.2529  0.0910
   27CHL1   C11 1958   6.767   3.367   9.965 -0.6070 -0.3446 -0.1938
   27CHL1  H11A 1959   6.710   3.274   9.942  0.7225 -1.3761  0.5876
   27CHL1  H11B 1960   6.852   3.332  10.027 -1.1515  0.1412  0.8469
   27CHL1    C9 1961   6.694   3.477  10.047 -0.2266 -0.3491  0.1040
   27CHL1    H9 1962   6.767   3.559  10.061 -0.6564  0.4152 -1.9358
   27CHL1   C10 1963   6.649   3.421  10.182  0.8916  0.4844 -0.1420
   27CHL1   C19 1964   6.562   3.292  10.159 -0.3842 -0.7085  0.3734
   27CHL1  H19A 1965   6.619   3.207  10.116  0.5499  0.7900 -1.4098
   27CHL1  H19B 1966   6.511   3.248  10.247  2.0678 -2.0699  1.1443
   27CHL1  H19C 1967   6.484   3.307  10.081 -0.8296 -2.7106  0.4029
   27CHL1    C1 1968   6.780   3.382  10.270  0.5717 -0.6194 -0.2629
   27CHL1   H1A 1969   6.813   3.282  10.235  1.3337 -0.7013  0.6699
   27CHL1   H1B 1970   6.852   3.465  10.257  1.6389 -1.4569  0.2472
   27CHL1    C2 1971   6.751   3.355  10.416 -0.0634  0.0724 -0.3084
   27CHL1   H2A 1972   6.844   3.351  10.477  0.2954  1.8048 -0.7172
   27CHL1   H2B 1973   6.694   3.259  10.420  0.9476 -0.5596 -0.8145
   27CHL1   C20 1974   6.777   3.469   9.489 -0.3440 -0.9176 -0.2978
   27CHL1   H20 1975   6.819   3.371   9.520  1.8745  0.0797 -0.0658
   27CHL1   C21 1976   6.892   3.553   9.436  0.5661 -0.7546  0.0399
   27CHL1  H21A 1977   6.974   3.565   9.510  1.0097  3.2950 -0.9893
   27CHL1  H21B 1978   6.852   3.646   9.391  1.3095  0.2078  1.3342
   27CHL1  H21C 1979   6.938   3.500   9.350  3.5760  1.4115  0.2174
   27CHL1   C22 1980   6.675   3.451   9.379 -0.3408 -0.2940 -0.0405
   27CHL1  H22A 1981   6.582   3.416   9.429  0.7562 -2.2323  0.7101
   27CHL1  H22B 1982   6.657   3.550   9.333  0.2693  0.7894  2.0008
   27CHL1   C23 1983   6.699   3.333   9.274 -0.0865  0.3119 -0.0533
   27CHL1  H23A 1984   6.798   3.354   9.227  0.0983  1.7449  0.9388
   27CHL1  H23B 1985   6.704   3.237   9.329  0.6285 -0.9972 -2.3058
   27CHL1   C24 1986   6.596   3.314   9.156 -0.2029  0.3041 -0.2634
   27CHL1  H24A 1987   6.504   3.274   9.203  1.1100  0.1119  2.2383
   27CHL1  H24B 1988   6.568   3.415   9.119  0.2180  0.9606  1.1522
   27CHL1   C25 1989   6.641   3.227   9.036 -0.6210  0.0673  0.0619
   27CHL1   H25 1990   6.674   3.128   9.073  2.2109  1.5086  1.5498
   27CHL1   C26 1991   6.522   3.210   8.947 -0.5303  0.5723  0.3872
   27CHL1  H26A 1992   6.540   3.149   8.856  0.5097 -0.5877  1.3593
   27CHL1  H26B 1993   6.434   3.163   8.996 -0.6484  2.1373  1.7304
   27CHL1  H26C 1994   6.494   3.307   8.901 -0.2255  0.7302  0.5336
   27CHL1   C27 1995   6.767   3.287   8.966  0.0902 -0.4975 -1.1575
   27CHL1  H27A 1996   6.763   3.396   8.947  0.1759 -0.0882  1.0887
   27CHL1  H27B 1997   6.850   3.261   9.035  0.0572  1.3432 -0.4087
   27CHL1  H27C 1998   6.787   3.247   8.864  1.5859 -1.6302 -0.4308
   28CHL1    C3 1999   5.696   1.860   9.907 -0.3822  0.3863 -0.3794
   28CHL1    H3 2000   5.605   1.919   9.884 -0.6724  0.0591 -0.0876
   28CHL1    O3 2001   5.684   1.828  10.043  0.2251  0.0530  0.3105
   28CHL1   H3' 2002   5.769   1.786  10.058  0.1616 -1.6770 -3.4862
   28CHL1    C4 2003   5.710   1.736   9.822  0.4712 -0.1843 -0.3168
   28CHL1   H4A 2004   5.784   1.663   9.861  0.8828  1.0764  1.3185
   28CHL1   H4B 2005   5.614   1.680   9.824 -0.9055  2.0991 -0.7821
   28CHL1    C5 2006   5.734   1.772   9.677 -0.4514 -0.1340 -0.2426
   28CHL1    C6 2007   5.648   1.737   9.580 -0.0820  0.3598 -0.6409
   28CHL1    H6 2008   5.563   1.672   9.608  1.6613 -1.7658 -0.1714
   28CHL1    C7 2009   5.669   1.756   9.430 -0.2732 -0.2956 -0.0999
   28CHL1   H7A 2010   5.647   1.661   9.378  0.7740 -1.5376  1.6620
   28CHL1   H7B 2011   5.600   1.839   9.402 -0.5135 -1.1096 -1.9888
   28CHL1    C8 2012   5.815   1.804   9.399  0.0239  0.9354 -0.0212
   28CHL1    H8 2013   5.883   1.717   9.408 -1.6325 -0.2091  1.8362
   28CHL1   C14 2014   5.824   1.861   9.262 -0.4496 -0.0403  0.4211
   28CHL1   H14 2015   5.755   1.948   9.268 -1.8356 -0.9839 -1.1881
   28CHL1   C15 2016   5.757   1.780   9.150  0.1037  0.8599  0.6228
   28CHL1  H15A 2017   5.800   1.677   9.151  3.4844  2.1942  1.1218
   28CHL1  H15B 2018   5.647   1.786   9.143  0.1133 -0.1259 -0.4954
   28CHL1   C16 2019   5.807   1.849   9.022 -0.8085  0.4112  0.1826
   28CHL1  H16A 2020   5.871   1.778   8.966  1.0553  1.4613  0.9557
   28CHL1  H16B 2021   5.713   1.882   8.972 -0.4536  1.1046 -0.0319
   28CHL1   C17 2022   5.891   1.973   9.065  0.1836 -0.3536 -0.1272
   28CHL1   H17 2023   5.818   2.053   9.088  1.0556  0.0594  1.2834
   28CHL1   C13 2024   5.947   1.929   9.204 -0.3418 -0.2802 -0.2161
   28CHL1   C18 2025   6.061   1.834   9.184  0.5563 -0.0456 -0.2228
   28CHL1  H18A 2026   6.155   1.889   9.160 -0.3533  1.6618  0.0045
   28CHL1  H18B 2027   6.071   1.770   9.274  0.9810  0.8663  0.3901
   28CHL1  H18C 2028   6.050   1.760   9.102  0.2570  1.9973 -2.0936
   28CHL1   C12 2029   5.982   2.041   9.311 -0.4085 -0.4912 -0.3903
   28CHL1  H12A 2030   6.084   2.080   9.290 -0.3612  0.1153  0.9383
   28CHL1  H12B 2031   5.909   2.125   9.320  2.2654  1.8527  0.3331
   28CHL1   C11 2032   5.995   1.981   9.452 -0.3428 -0.3556  0.2135
   28CHL1  H11A 2033   6.075   1.905   9.455  0.0159 -0.0056 -0.2631
   28CHL1  H11B 2034   6.021   2.068   9.516 -0.4352  0.2356 -0.5417
   28CHL1    C9 2035   5.862   1.915   9.500 -0.3803  0.2187  0.7318
   28CHL1    H9 2036   5.779   1.988   9.499 -1.6229 -1.0912  2.8128
   28CHL1   C10 2037   5.857   1.864   9.648 -0.3076  0.8265 -0.0113
   28CHL1   C19 2038   5.978   1.771   9.673  0.0199  0.1797  0.2321
   28CHL1  H19A 2039   5.986   1.692   9.596 -0.1335  0.3456  0.0454
   28CHL1  H19B 2040   6.069   1.834   9.658  1.3319 -1.2759  1.9227
   28CHL1  H19C 2041   5.975   1.718   9.770  3.3260 -1.8825 -0.6944
   28CHL1    C1 2042   5.854   1.988   9.749  0.7301 -0.0610 -0.1153
   28CHL1   H1A 2043   5.949   2.045   9.742  0.8747 -0.1532  0.9566
   28CHL1   H1B 2044   5.763   2.042   9.714 -0.1197  0.0950  2.2195
   28CHL1    C2 2045   5.826   1.943   9.898  0.7417 -0.6567 -0.1987
   28CHL1   H2A 2046   5.815   2.034   9.961  0.5597 -0.8379  0.0363
   28CHL1   H2B 2047   5.918   1.889   9.930  1.0354  0.1247  0.2961
   28CHL1   C20 2048   5.986   2.010   8.942  0.3250 -0.0460 -0.4946
   28CHL1   H20 2049   6.050   1.922   8.922 -0.2717 -0.6907  0.4236
   28CHL1   C21 2050   6.073   2.127   8.998  0.4053 -0.6349  0.5713
   28CHL1  H21A 2051   6.153   2.157   8.926 -1.3574 -1.0626 -1.6212
   28CHL1  H21B 2052   6.121   2.103   9.096 -0.7634  0.5382  1.4448
   28CHL1  H21C 2053   6.012   2.217   9.020  2.7007  0.8578  1.0572
   28CHL1   C22 2054   5.911   2.049   8.818 -0.4751  0.0302  0.5331
   28CHL1  H22A 2055   5.859   1.956   8.786 -0.2055 -0.8666  2.6378
   28CHL1  H22B 2056   5.844   2.133   8.847 -0.5667 -0.6169  2.1967
   28CHL1   C23 2057   5.996   2.094   8.695 -0.0049 -0.0076 -0.2898
   28CHL1  H23A 2058   6.052   2.183   8.732 -3.0307  2.3486 -1.1086
   28CHL1  H23B 2059   6.055   2.008   8.658 -2.0522 -1.3654 -0.5071
   28CHL1   C24 2060   5.903   2.135   8.590  0.0544 -0.1793 -0.3176
   28CHL1  H24A 2061   5.853   2.047   8.544  1.8255 -0.4705 -1.7663
   28CHL1  H24B 2062   5.827   2.209   8.623  0.2583  0.1145 -0.5047
   28CHL1   C25 2063   5.964   2.210   8.469 -0.1188  0.1355 -0.0635
   28CHL1   H25 2064   6.055   2.151   8.445 -0.1739  0.8615 -2.1451
   28CHL1   C26 2065   5.865   2.194   8.358  0.0805 -0.7281  0.7389
   28CHL1  H26A 2066   5.875   2.096   8.307  1.5424 -1.3053  2.0978
   28CHL1  H26B 2067   5.761   2.197   8.398  0.0743  1.6128  0.6415
   28CHL1  H26C 2068   5.864   2.280   8.287  1.0411 -0.3687  1.1577
   28CHL1   C27 2069   5.996   2.361   8.490 -0.0646 -0.6419 -0.4293
   28CHL1  H27A 2070   6.051   2.407   8.405 -0.9769 -1.7721 -1.6523
   28CHL1  H27B 2071   5.904   2.422   8.505  2.2338  3.2781 -1.5286
   28CHL1  H27C 2072   6.053   2.368   8.585 -0.9424  2.2306 -0.0635
   29CHL1    C3 2073   0.125   0.110   6.601 -0.1303 -0.1906 -0.2491
   29CHL1    H3 2074   0.080   0.210   6.621  2.7366  0.8795  1.0247
   29CHL1    O3 2075   0.138   0.083   6.457  0.0310 -0.3185 -0.2186
   29CHL1   H3' 2076   0.205   0.015   6.447  1.7455  0.9170  2.5612
   29CHL1    C4 2077   0.261   0.092   6.668 -0.0112 -0.2292 -0.2456
   29CHL1   H4A 2078   0.300  -0.009   6.645 -1.8272 -1.1214  0.4779
   29CHL1   H4B 2079   0.334   0.167   6.632 -0.2113 -0.2990 -0.8047
   29CHL1    C5 2080   0.258   0.092   6.822  0.1803  0.8174 -0.3519
   29CHL1    C6 2081   0.345   0.173   6.888 -0.5624 -0.3000  0.4149
   29CHL1    H6 2082   0.413   0.235   6.827 -2.8886  2.8759  0.9026
   29CHL1    C7 2083   0.351   0.195   7.030 -0.2446 -0.3520 -0.2671
   29CHL1   H7A 2084   0.457   0.187   7.062 -0.6019 -1.2783  0.7272
   29CHL1   H7B 2085   0.318   0.297   7.060  1.7106  0.1026  0.4263
   29CHL1    C8 2086   0.267   0.089   7.108 -0.0265 -0.2902  0.2424
   29CHL1    H8 2087   0.333   0.005   7.137  3.5496  2.2474 -0.2585
   29CHL1   C14 2088   0.225   0.154   7.240  0.2104 -0.5053 -0.3140
   29CHL1   H14 2089   0.161   0.236   7.201  0.2129 -1.3654 -2.1964
   29CHL1   C15 2090   0.334   0.229   7.312 -0.1922 -0.5055 -0.2890
   29CHL1  H15A 2091   0.413   0.151   7.327 -1.3890 -1.8969 -1.0659
   29CHL1  H15B 2092   0.370   0.318   7.255  2.7267 -1.8722 -0.7070
   29CHL1   C16 2093   0.275   0.254   7.450  0.5069 -0.1606 -0.2970
   29CHL1  H16A 2094   0.339   0.199   7.523 -1.4175 -0.6571  1.0363
   29CHL1  H16B 2095   0.279   0.361   7.476 -3.6982 -0.1636  0.6766
   29CHL1   C17 2096   0.134   0.187   7.448  0.3576  0.0828 -0.1166
   29CHL1   H17 2097   0.062   0.263   7.412  0.8607  0.3917 -0.4888
   29CHL1   C13 2098   0.137   0.078   7.337  0.0042  0.7292  0.3029
   29CHL1   C18 2099   0.210  -0.050   7.386 -0.3684  0.7735  0.1769
   29CHL1  H18A 2100   0.314  -0.024   7.416 -0.9285  2.5367  0.6826
   29CHL1  H18B 2101   0.157  -0.091   7.474  0.5676  1.7930  1.2320
   29CHL1  H18C 2102   0.212  -0.124   7.303  1.1387 -1.3018  2.0259
   29CHL1   C12 2103   0.005   0.054   7.262 -0.5814  0.6781 -0.3825
   29CHL1  H12A 2104  -0.065  -0.014   7.316 -0.6889 -0.8395 -2.3377
   29CHL1  H12B 2105  -0.049   0.148   7.237  2.4272  2.5813  0.1168
   29CHL1   C11 2106   0.035  -0.011   7.118  0.2121 -0.4086  0.8090
   29CHL1  H11A 2107   0.081  -0.109   7.140 -3.0242 -2.3389 -0.6979
   29CHL1  H11B 2108  -0.060  -0.030   7.063 -0.0723  1.2365  0.6986
   29CHL1    C9 2109   0.135   0.065   7.030 -0.3193  0.1732 -0.3947
   29CHL1    H9 2110   0.091   0.166   7.015 -2.5783 -0.2857  2.7060
   29CHL1   C10 2111   0.153   0.014   6.889  0.4649 -0.7058 -0.1126
   29CHL1   C19 2112   0.211  -0.129   6.895  0.1619  0.1611  0.2315
   29CHL1  H19A 2113   0.208  -0.189   6.801  0.7282  2.4520 -1.3021
   29CHL1  H19B 2114   0.312  -0.136   6.941  2.0159  2.5218 -3.2566
   29CHL1  H19C 2115   0.161  -0.188   6.974  2.2534  0.4094  1.8029
   29CHL1    C1 2116   0.020   0.028   6.817  0.1676 -1.0746 -0.0224
   29CHL1   H1A 2117  -0.059  -0.041   6.855 -0.4189  0.8041  2.2651
   29CHL1   H1B 2118  -0.026   0.127   6.835  0.0092 -1.1954  0.2395
   29CHL1    C2 2119   0.022   0.020   6.662 -0.0050 -0.3521  0.0100
   29CHL1   H2A 2120  -0.079   0.036   6.618 -0.8630 -2.5184  1.1214
   29CHL1   H2B 2121   0.044  -0.087   6.641 -0.8638 -0.3140 -1.0991
   29CHL1   C20 2122   0.090   0.146   7.594  0.3667 -0.5969 -0.6777
   29CHL1   H20 2123   0.165   0.077   7.639  0.1122  0.8083  1.9922
   29CHL1   C21 2124  -0.047   0.077   7.582 -0.2567 -0.2805 -0.0002
   29CHL1  H21A 2125  -0.032  -0.027   7.545 -0.3836 -0.2769 -0.0592
   29CHL1  H21B 2126  -0.109   0.133   7.509  2.1980  1.4726 -0.8033
   29CHL1  H21C 2127  -0.100   0.083   7.679  1.1583  0.7592  0.7291
   29CHL1   C22 2128   0.082   0.273   7.685 -0.2218  0.3529 -0.9530
   29CHL1  H22A 2129   0.159   0.347   7.654  1.5100 -1.8616 -1.9941
   29CHL1  H22B 2130  -0.015   0.316   7.652  0.1584  0.6992 -1.6279
   29CHL1   C23 2131   0.093   0.231   7.834 -0.0147 -0.1606  0.3581
   29CHL1  H23A 2132   0.002   0.175   7.863  0.8631 -1.2371  1.0578
   29CHL1  H23B 2133   0.185   0.169   7.842  0.6858  0.8775  0.6505
   29CHL1   C24 2134   0.098   0.342   7.946  0.0738  0.2746  0.4336
   29CHL1  H24A 2135   0.162   0.428   7.916 -0.8933  0.5528 -0.9054
   29CHL1  H24B 2136   0.005   0.401   7.959 -0.3058 -0.0746 -0.6210
   29CHL1   C25 2137   0.135   0.278   8.082  0.6567 -0.2336 -0.6114
   29CHL1   H25 2138   0.075   0.187   8.106  0.9357  0.2047  1.8838
   29CHL1   C26 2139   0.283   0.233   8.089  0.1928 -0.1235 -0.0043
   29CHL1  H26A 2140   0.301   0.153   8.014  0.5468  0.3275 -0.4115
   29CHL1  H26B 2141   0.339   0.326   8.064 -0.7083  0.4865  0.2062
   29CHL1  H26C 2142   0.312   0.208   8.193  0.3266 -1.2401 -0.3042
   29CHL1   C27 2143   0.112   0.385   8.191 -0.3242 -0.4572  0.6153
   29CHL1  H27A 2144   0.145   0.345   8.289 -0.0765  1.2456  1.2424
   29CHL1  H27B 2145   0.177   0.473   8.172 -0.0681 -1.1131 -1.7226
   29CHL1  H27C 2146   0.008   0.426   8.191 -0.5132 -0.9108 -1.3343
   30CHL1    C3 2147   5.310   5.272   7.313  0.0779  0.3758  0.6073
   30CHL1    H3 2148   5.400   5.206   7.317  0.2620  0.5595 -0.3487
   30CHL1    O3 2149   5.276   5.297   7.175  0.1047 -0.6291 -0.2065
   30CHL1   H3' 2150   5.358   5.331   7.139 -0.0577  0.6760  0.5999
   30CHL1    C4 2151   5.190   5.208   7.393 -0.6951 -0.1208  0.4642
   30CHL1   H4A 2152   5.096   5.261   7.372  0.0383  1.6969  1.6194
   30CHL1   H4B 2153   5.166   5.113   7.341 -1.3427  1.1919 -1.6745
   30CHL1    C5 2154   5.213   5.195   7.543  0.1972 -0.2041 -0.1788
   30CHL1    C6 2155   5.205   5.081   7.608  0.2620  0.0542  0.4341
   30CHL1    H6 2156   5.173   4.994   7.550 -1.0322  0.8560 -0.0751
   30CHL1    C7 2157   5.221   5.065   7.756 -0.0494  0.0489 -0.1073
   30CHL1   H7A 2158   5.135   5.006   7.795 -0.0519 -0.4820 -0.8889
   30CHL1   H7B 2159   5.314   5.003   7.759 -1.6713 -2.3896  1.3736
   30CHL1    C8 2160   5.248   5.199   7.831  0.0342 -0.3537  0.4103
   30CHL1    H8 2161   5.146   5.237   7.852  0.1621  0.6383 -0.6974
   30CHL1   C14 2162   5.321   5.163   7.953 -0.0121  0.5699 -0.2572
   30CHL1   H14 2163   5.423   5.125   7.927 -0.9578 -1.2380 -1.4227
   30CHL1   C15 2164   5.258   5.054   8.042 -0.6601  0.3997  0.2494
   30CHL1  H15A 2165   5.149   5.072   8.050 -0.7866 -0.3139  0.2102
   30CHL1  H15B 2166   5.276   4.953   7.999 -0.8383  0.9601 -1.1618
   30CHL1   C16 2167   5.332   5.077   8.178 -0.2288 -0.3233  0.2967
   30CHL1  H16A 2168   5.258   5.117   8.251  0.4815 -0.2901  1.0002
   30CHL1  H16B 2169   5.387   4.989   8.219  0.6891 -0.3881 -1.0468
   30CHL1   C17 2170   5.438   5.197   8.163 -0.3531 -0.1830 -0.0015
   30CHL1   H17 2171   5.532   5.145   8.134  0.8019  2.8951 -1.9814
   30CHL1   C13 2172   5.374   5.279   8.048 -0.4068 -0.3509 -0.3184
   30CHL1   C18 2173   5.265   5.360   8.117 -0.8897 -0.6402 -0.0099
   30CHL1  H18A 2174   5.307   5.455   8.154 -0.5869 -0.4334 -0.8699
   30CHL1  H18B 2175   5.198   5.406   8.041  1.0577  0.4248 -1.1104
   30CHL1  H18C 2176   5.208   5.307   8.197  0.8988 -1.2303  0.8985
   30CHL1   C12 2177   5.473   5.372   7.962 -0.6235  0.0815  0.1702
   30CHL1  H12A 2178   5.515   5.462   8.012 -0.9900  1.2978 -1.6604
   30CHL1  H12B 2179   5.550   5.297   7.935 -1.7161 -1.2906  0.7984
   30CHL1   C11 2180   5.397   5.412   7.832  0.8765  0.3705  0.8930
   30CHL1  H11A 2181   5.311   5.476   7.861 -1.8057 -2.0844 -1.2575
   30CHL1  H11B 2182   5.470   5.469   7.770  1.0032  0.8145  1.4489
   30CHL1    C9 2183   5.333   5.298   7.745  0.7128 -0.1582  0.1224
   30CHL1    H9 2184   5.418   5.235   7.710 -0.5476 -2.8167  1.7037
   30CHL1   C10 2185   5.268   5.329   7.607 -0.1981  0.8319 -0.2386
   30CHL1   C19 2186   5.142   5.422   7.634  0.0935 -0.4665  0.5763
   30CHL1  H19A 2187   5.175   5.518   7.678 -0.3573 -0.0213 -0.0561
   30CHL1  H19B 2188   5.083   5.440   7.541  0.5468 -0.9713  0.1816
   30CHL1  H19C 2189   5.087   5.363   7.710  1.6589 -0.4065  1.7696
   30CHL1    C1 2190   5.378   5.401   7.522 -0.3577 -0.9645 -0.7133
   30CHL1   H1A 2191   5.401   5.505   7.556  1.9892 -1.6966  0.0064
   30CHL1   H1B 2192   5.476   5.353   7.545 -0.3401 -0.1744  0.9637
   30CHL1    C2 2193   5.342   5.408   7.375 -0.5621 -0.4954  0.1560
   30CHL1   H2A 2194   5.439   5.441   7.333 -0.2156 -1.8812 -0.1402
   30CHL1   H2B 2195   5.256   5.470   7.341 -0.9262  1.2711  4.0923
   30CHL1   C20 2196   5.468   5.260   8.297  0.7196  0.5113  0.2124
   30CHL1   H20 2197   5.375   5.299   8.344  0.5571  0.3867  0.0022
   30CHL1   C21 2198   5.564   5.387   8.291  0.0687  0.1875 -0.1397
   30CHL1  H21A 2199   5.580   5.414   8.398 -3.5087 -2.2525  1.0776
   30CHL1  H21B 2200   5.513   5.477   8.252  2.1555  1.7437  0.6241
   30CHL1  H21C 2201   5.662   5.365   8.242  0.5722  3.1701 -0.5806
   30CHL1   C22 2202   5.532   5.158   8.396  0.0831  0.4730 -0.0284
   30CHL1  H22A 2203   5.483   5.059   8.383  1.3126 -0.0447 -0.8631
   30CHL1  H22B 2204   5.632   5.135   8.352  0.3487  1.5656 -0.0126
   30CHL1   C23 2205   5.550   5.209   8.546 -0.2807 -0.2047 -0.2540
   30CHL1  H23A 2206   5.624   5.292   8.553  0.9305 -1.1819 -1.3392
   30CHL1  H23B 2207   5.448   5.238   8.578 -0.2015 -0.6547  0.4263
   30CHL1   C24 2208   5.612   5.097   8.639 -0.3041 -0.2690 -0.5479
   30CHL1  H24A 2209   5.554   5.006   8.615  0.2466 -0.7669  0.0138
   30CHL1  H24B 2210   5.720   5.086   8.617 -0.0945 -0.2143  0.4297
   30CHL1   C25 2211   5.603   5.121   8.792  0.2261 -0.6193  0.7840
   30CHL1   H25 2212   5.665   5.213   8.801  0.6676 -0.6418 -1.5966
   30CHL1   C26 2213   5.466   5.146   8.847  0.4197  0.6207  0.1128
   30CHL1  H26A 2214   5.459   5.156   8.957  2.1077  1.5453  0.1405
   30CHL1  H26B 2215   5.434   5.244   8.807 -0.5178  0.3749  0.2383
   30CHL1  H26C 2216   5.396   5.066   8.812 -0.4387 -0.0273  3.1252
   30CHL1   C27 2217   5.676   5.004   8.856  0.4641  0.3951  0.3329
   30CHL1  H27A 2218   5.621   4.907   8.855 -0.6922  1.0372  0.9907
   30CHL1  H27B 2219   5.772   4.977   8.808  0.5872  1.3062  0.0700
   30CHL1  H27C 2220   5.689   5.037   8.962 -1.5225  3.6704 -0.3671
   31CHL1    C3 2221   5.011   6.646   6.789 -0.6606 -0.1191  0.0295
   31CHL1    H3 2222   4.904   6.618   6.793 -1.2409  1.8851 -0.9272
   31CHL1    O3 2223   5.055   6.632   6.652 -0.2159  0.4816 -0.5274
   31CHL1   H3' 2224   4.999   6.697   6.609  0.6312  0.0066 -2.4012
   31CHL1    C4 2225   5.023   6.791   6.839  0.3837 -0.4467 -0.1212
   31CHL1   H4A 2226   5.128   6.825   6.826 -0.4476  1.6255 -1.7962
   31CHL1   H4B 2227   4.961   6.860   6.777 -0.6497 -0.5284  0.7946
   31CHL1    C5 2228   4.986   6.792   6.987 -0.5978 -0.4262 -0.2792
   31CHL1    C6 2229   4.884   6.869   7.027 -0.1834  0.2200  0.5031
   31CHL1    H6 2230   4.828   6.932   6.957  0.3725 -1.4136 -1.4659
   31CHL1    C7 2231   4.836   6.885   7.168  0.4221 -0.0909 -0.3432
   31CHL1   H7A 2232   4.816   6.991   7.193  0.2759  0.0619 -1.1001
   31CHL1   H7B 2233   4.740   6.831   7.183 -0.2411  1.7736  2.6945
   31CHL1    C8 2234   4.935   6.833   7.267 -0.7468 -0.0363  0.0190
   31CHL1    H8 2235   5.017   6.907   7.271 -1.5246  0.8495 -0.1846
   31CHL1   C14 2236   4.887   6.825   7.410  0.1459 -0.5298 -0.2771
   31CHL1   H14 2237   4.809   6.746   7.408  0.6234 -1.0580  1.3007
   31CHL1   C15 2238   4.829   6.951   7.474  0.3620  0.2952 -0.7415
   31CHL1  H15A 2239   4.893   7.039   7.451 -0.3393  1.4000  1.3513
   31CHL1  H15B 2240   4.728   6.978   7.435 -0.0377  0.5815  0.4470
   31CHL1   C16 2241   4.835   6.935   7.625 -0.6807  0.1493 -0.3475
   31CHL1  H16A 2242   4.867   7.026   7.680  2.5223 -1.0024 -0.2103
   31CHL1  H16B 2243   4.733   6.919   7.667 -0.9225  0.3413 -0.8518
   31CHL1   C17 2244   4.912   6.801   7.651 -0.2592 -0.0148 -0.1515
   31CHL1   H17 2245   4.834   6.722   7.655  1.2972 -1.7373 -2.6011
   31CHL1   C13 2246   4.991   6.780   7.518  0.5473  0.6346 -0.5916
   31CHL1   C18 2247   5.125   6.865   7.512 -0.3491 -0.0404  0.7177
   31CHL1  H18A 2248   5.166   6.879   7.409  0.2103 -2.7990  0.5142
   31CHL1  H18B 2249   5.104   6.963   7.559 -1.6866  0.0528 -0.0520
   31CHL1  H18C 2250   5.207   6.821   7.573 -0.2566  1.7037  1.8831
   31CHL1   C12 2251   5.024   6.637   7.484 -0.2924 -0.2143 -0.0394
   31CHL1  H12A 2252   5.094   6.592   7.557  0.0956  0.4837  0.0315
   31CHL1  H12B 2253   4.927   6.585   7.478 -0.9035  1.0790 -2.1363
   31CHL1   C11 2254   5.074   6.626   7.337 -0.2626 -1.0005  0.4682
   31CHL1  H11A 2255   5.180   6.656   7.346 -0.2571 -0.3368 -1.3879
   31CHL1  H11B 2256   5.078   6.519   7.307 -1.9589 -1.3176  1.2987
   31CHL1    C9 2257   4.994   6.697   7.223 -0.0330  0.3571  0.3886
   31CHL1    H9 2258   4.896   6.647   7.212  0.7237 -0.8722 -1.0088
   31CHL1   C10 2259   5.061   6.702   7.080 -0.0874  0.3754  0.3282
   31CHL1   C19 2260   5.205   6.753   7.106  0.0437  0.5293 -0.3667
   31CHL1  H19A 2261   5.209   6.843   7.170  1.3715  0.1125  0.1467
   31CHL1  H19B 2262   5.264   6.673   7.155  0.1999  0.9527  0.1364
   31CHL1  H19C 2263   5.245   6.783   7.006 -1.4032 -1.4492 -1.5894
   31CHL1    C1 2264   5.063   6.559   7.015 -0.6194  0.1276  0.6878
   31CHL1   H1A 2265   5.137   6.503   7.076 -1.1510 -0.0849  1.1451
   31CHL1   H1B 2266   4.958   6.527   7.029 -0.5139 -0.3097  0.4823
   31CHL1    C2 2267   5.102   6.554   6.867 -0.8984  0.0782 -0.0288
   31CHL1   H2A 2268   5.098   6.452   6.822 -0.6281  0.0177  0.0806
   31CHL1   H2B 2269   5.207   6.590   6.865 -0.3012 -1.6162 -0.4170
   31CHL1   C20 2270   4.986   6.792   7.786 -0.5367  0.5760 -0.2754
   31CHL1   H20 2271   5.068   6.866   7.789  0.8254 -0.9743  3.6776
   31CHL1   C21 2272   5.043   6.645   7.817 -0.2972  0.0736 -0.6933
   31CHL1  H21A 2273   4.975   6.570   7.771 -2.0014 -0.1257  2.0497
   31CHL1  H21B 2274   5.052   6.622   7.925  1.2463  1.5792 -0.4775
   31CHL1  H21C 2275   5.142   6.628   7.767  1.0086  1.5936  1.2922
   31CHL1   C22 2276   4.881   6.817   7.902 -0.4293  0.1959  0.0849
   31CHL1  H22A 2277   4.818   6.903   7.871  0.2839 -0.0138 -2.0765
   31CHL1  H22B 2278   4.820   6.724   7.904  1.6571 -1.2377 -0.5049
   31CHL1   C23 2279   4.939   6.847   8.045 -0.4403  0.0087 -0.4538
   31CHL1  H23A 2280   4.998   6.758   8.072  0.1969  0.0667 -1.6084
   31CHL1  H23B 2281   5.009   6.934   8.045  1.8429 -1.7853  0.5202
   31CHL1   C24 2282   4.831   6.874   8.149  0.0545 -0.5856  0.6081
   31CHL1  H24A 2283   4.776   6.964   8.113  0.0858 -1.3603 -1.4891
   31CHL1  H24B 2284   4.761   6.791   8.173  1.3129 -1.2672  2.0185
   31CHL1   C25 2285   4.887   6.901   8.292 -0.0557  0.6607  0.1002
   31CHL1   H25 2286   4.951   6.992   8.293 -1.1080  1.3971  0.7639
   31CHL1   C26 2287   4.771   6.924   8.392  0.1161  0.5846 -0.0151
   31CHL1  H26A 2288   4.702   6.837   8.384  0.3634  0.5497 -1.9824
   31CHL1  H26B 2289   4.817   6.941   8.491 -1.4781  0.3002  0.7897
   31CHL1  H26C 2290   4.721   7.018   8.360 -1.0019 -0.2891 -0.8897
   31CHL1   C27 2291   4.969   6.787   8.353 -0.4586 -0.4785 -0.0929
   31CHL1  H27A 2292   4.912   6.701   8.394  0.3182 -0.9885 -0.0853
   31CHL1  H27B 2293   5.024   6.823   8.442  0.6761 -0.4684 -0.7942
   31CHL1  H27C 2294   5.051   6.752   8.287  0.0825 -3.1383  1.8990
   32CHL1    C3 2295   5.785   5.634   7.082 -0.1303 -0.0224 -0.6549
   32CHL1    H3 2296   5.853   5.550   7.058 -0.4119 -0.4865  0.1658
   32CHL1    O3 2297   5.683   5.628   6.982  0.0624  0.1589  0.2702
   32CHL1   H3' 2298   5.704   5.701   6.923 -0.9621 -1.1689 -1.8158
   32CHL1    C4 2299   5.719   5.631   7.227 -0.5761  0.1162 -0.0563
   32CHL1   H4A 2300   5.655   5.719   7.250 -0.6179 -0.1938  1.0674
   32CHL1   H4B 2301   5.646   5.547   7.230 -0.6224  0.1817  2.8942
   32CHL1    C5 2302   5.835   5.626   7.324 -0.3596  0.4800  0.1392
   32CHL1    C6 2303   5.854   5.523   7.405 -0.1992  0.4363  0.1414
   32CHL1    H6 2304   5.773   5.450   7.392  1.4483 -1.0434 -2.2816
   32CHL1    C7 2305   5.971   5.496   7.496  0.1947 -0.3273 -0.4814
   32CHL1   H7A 2306   5.925   5.458   7.590 -2.5521 -1.6479 -2.2932
   32CHL1   H7B 2307   6.034   5.418   7.449  0.6171  0.0266 -0.5029
   32CHL1    C8 2308   6.053   5.629   7.522  0.5081 -0.0291  0.0506
   32CHL1    H8 2309   5.997   5.691   7.594 -0.2724  1.0582 -1.4920
   32CHL1   C14 2310   6.179   5.592   7.591 -0.2372 -0.0554  0.2342
   32CHL1   H14 2311   6.231   5.506   7.543  1.5670 -0.2043  2.3468
   32CHL1   C15 2312   6.172   5.532   7.733  0.8767 -0.7427 -0.4606
   32CHL1  H15A 2313   6.101   5.582   7.802  2.9500  0.0783  1.1644
   32CHL1  H15B 2314   6.136   5.428   7.724 -0.3262 -0.4709  1.1653
   32CHL1   C16 2315   6.304   5.547   7.795  0.0957 -0.5581  0.4119
   32CHL1  H16A 2316   6.283   5.613   7.882  1.6221 -0.5203  0.7795
   32CHL1  H16B 2317   6.365   5.457   7.822 -0.8564 -1.0786  0.8543
   32CHL1   C17 2318   6.392   5.633   7.692 -0.4399  0.8480  0.9830
   32CHL1   H17 2319   6.444   5.559   7.627  0.1047 -0.3457  2.7659
   32CHL1   C13 2320   6.282   5.704   7.601 -0.4778  0.9639 -0.8784
   32CHL1   C18 2321   6.228   5.826   7.685 -0.3971 -0.4373  0.9001
   32CHL1  H18A 2322   6.127   5.855   7.649 -0.1483  0.6139  1.0110
   32CHL1  H18B 2323   6.221   5.795   7.791  1.5999 -0.0007  1.1856
   32CHL1  H18C 2324   6.305   5.906   7.692  1.8942 -2.5116  0.0196
   32CHL1   C12 2325   6.320   5.759   7.461  0.3071  0.0502 -0.3207
   32CHL1  H12A 2326   6.391   5.842   7.485 -0.3829  0.1370  1.4937
   32CHL1  H12B 2327   6.385   5.690   7.404  1.4536 -1.0883  2.2940
   32CHL1   C11 2328   6.191   5.798   7.382  0.0957  0.4526  0.4721
   32CHL1  H11A 2329   6.153   5.894   7.424 -1.1316  0.4916 -0.7244
   32CHL1  H11B 2330   6.215   5.815   7.275 -1.8375  0.5863  0.0500
   32CHL1    C9 2331   6.080   5.686   7.381  0.5364  0.4854  0.0703
   32CHL1    H9 2332   6.115   5.603   7.316 -3.1078 -0.4135 -0.8676
   32CHL1   C10 2333   5.946   5.730   7.315  0.1729  0.1594  0.7693
   32CHL1   C19 2334   5.897   5.858   7.378 -0.6453  0.2513  0.4748
   32CHL1  H19A 2335   5.979   5.930   7.357  1.1087 -1.3782  1.6136
   32CHL1  H19B 2336   5.804   5.905   7.339 -0.5849 -0.4312 -0.5212
   32CHL1  H19C 2337   5.882   5.837   7.486  0.8048  1.2186  0.8791
   32CHL1    C1 2338   5.983   5.770   7.166 -0.0418  0.1193 -0.1212
   32CHL1   H1A 2339   6.028   5.871   7.156 -2.1147  1.0894 -0.0445
   32CHL1   H1B 2340   6.052   5.695   7.121 -0.2766 -0.3469  0.2941
   32CHL1    C2 2341   5.867   5.757   7.063 -0.3469 -0.9090 -0.8384
   32CHL1   H2A 2342   5.899   5.777   6.959 -0.9363  1.4773 -0.5921
   32CHL1   H2B 2343   5.796   5.841   7.079  2.3848  1.2092  0.6461
   32CHL1   C20 2344   6.501   5.712   7.770 -0.2886  0.2617 -0.7050
   32CHL1   H20 2345   6.462   5.793   7.835 -0.9225 -0.7673  0.1997
   32CHL1   C21 2346   6.598   5.776   7.668 -0.1819 -0.1571 -0.2494
   32CHL1  H21A 2347   6.682   5.834   7.712 -0.1060  2.6732 -3.8656
   32CHL1  H21B 2348   6.543   5.856   7.615 -2.4852 -1.0305  0.7520
   32CHL1  H21C 2349   6.647   5.700   7.603  0.9900 -0.1413  0.5967
   32CHL1   C22 2350   6.568   5.624   7.878 -0.2809  0.8462  0.1592
   32CHL1  H22A 2351   6.491   5.595   7.952  0.4971 -2.6483 -0.3119
   32CHL1  H22B 2352   6.621   5.539   7.830  1.9424  1.4614  1.4310
   32CHL1   C23 2353   6.685   5.690   7.961  0.0014 -0.3057  0.3057
   32CHL1  H23A 2354   6.776   5.707   7.899 -1.3852  2.9453 -0.9417
   32CHL1  H23B 2355   6.655   5.795   7.983  2.5724  0.8560 -1.3979
   32CHL1   C24 2356   6.716   5.617   8.095  0.3747 -0.0348 -0.2385
   32CHL1  H24A 2357   6.624   5.627   8.158  0.4038 -0.5196 -0.1123
   32CHL1  H24B 2358   6.725   5.509   8.069 -0.5782  0.1141 -1.2334
   32CHL1   C25 2359   6.841   5.666   8.165 -0.2828 -0.2329 -0.8020
   32CHL1   H25 2360   6.845   5.777   8.170  1.0005 -0.2733 -0.6316
   32CHL1   C26 2361   6.851   5.607   8.312 -0.1766  0.6622  0.1318
   32CHL1  H26A 2362   6.947   5.645   8.352  0.7030 -0.7909 -0.5997
   32CHL1  H26B 2363   6.775   5.652   8.380 -0.5505  0.2801 -0.0317
   32CHL1  H26C 2364   6.856   5.496   8.312  2.1097  0.7623 -0.6590
   32CHL1   C27 2365   6.974   5.630   8.093  0.0115 -0.1948  0.5865
   32CHL1  H27A 2366   7.062   5.667   8.150  0.4365 -1.2001  0.5871
   32CHL1  H27B 2367   6.993   5.521   8.080 -0.6949 -0.3804  1.0796
   32CHL1  H27C 2368   6.976   5.679   7.993  1.0951  0.1164  0.7485
   33CHL1    C3 2369   6.783   5.515   6.865  0.4336 -0.2102 -0.0775
   33CHL1    H3 2370   6.865   5.585   6.895 -0.1057  0.2352  0.3705
   33CHL1    O3 2371   6.735   5.536   6.732 -0.6319 -0.0649  0.4434
   33CHL1   H3' 2372   6.673   5.463   6.721 -3.2229  1.7746  2.0117
   33CHL1    C4 2373   6.841   5.376   6.881  0.5224 -0.0758 -0.4299
   33CHL1   H4A 2374   6.759   5.306   6.855 -1.4491  1.5929  1.1755
   33CHL1   H4B 2375   6.913   5.346   6.801 -0.8351 -2.5594 -0.7837
   33CHL1    C5 2376   6.884   5.346   7.024 -0.3040 -0.0861  0.7657
   33CHL1    C6 2377   7.009   5.306   7.054 -0.5559  0.2709  0.0933
   33CHL1    H6 2378   7.077   5.290   6.969 -1.0822 -0.1802 -0.2520
   33CHL1    C7 2379   7.063   5.282   7.197  0.1056 -0.2547  0.3303
   33CHL1   H7A 2380   7.115   5.184   7.194 -2.0756 -1.5301  1.8547
   33CHL1   H7B 2381   7.130   5.363   7.233 -2.0245  1.5771  0.3228
   33CHL1    C8 2382   6.945   5.270   7.303 -0.5244 -0.3427  0.7634
   33CHL1    H8 2383   6.903   5.168   7.307 -0.8952 -0.3074 -1.6318
   33CHL1   C14 2384   7.008   5.294   7.443  0.0887  0.2263  0.1593
   33CHL1   H14 2385   7.037   5.401   7.436 -0.5484  0.2979 -1.8140
   33CHL1   C15 2386   7.124   5.206   7.483  0.0454  0.8297 -0.1320
   33CHL1  H15A 2387   7.133   5.107   7.434 -2.7132  0.2393  0.4753
   33CHL1  H15B 2388   7.215   5.260   7.451 -0.5701  0.0296 -3.5038
   33CHL1   C16 2389   7.124   5.208   7.637 -0.2083  0.6205  1.3151
   33CHL1  H16A 2390   7.111   5.102   7.668 -2.3958  0.1588 -1.0454
   33CHL1  H16B 2391   7.215   5.253   7.681  1.3559  1.1800 -2.3327
   33CHL1   C17 2392   7.005   5.292   7.683  0.0536  1.0745  0.3134
   33CHL1   H17 2393   7.027   5.400   7.699 -0.6508  1.2148  0.3406
   33CHL1   C13 2394   6.913   5.280   7.563  0.0598 -0.2569 -0.0480
   33CHL1   C18 2395   6.845   5.140   7.571  0.1298  0.0579 -0.1035
   33CHL1  H18A 2396   6.776   5.124   7.656  0.8613 -0.0436  0.4808
   33CHL1  H18B 2397   6.771   5.127   7.489 -0.3278 -0.0964  0.3330
   33CHL1  H18C 2398   6.921   5.060   7.558  1.3913  1.7567 -4.0579
   33CHL1   C12 2399   6.809   5.392   7.539  0.6821  0.2871 -0.3049
   33CHL1  H12A 2400   6.726   5.373   7.610 -0.5788 -3.6924 -2.6803
   33CHL1  H12B 2401   6.853   5.491   7.562  0.3053  0.2174  0.7226
   33CHL1   C11 2402   6.748   5.392   7.396  0.3053 -0.0019  0.5676
   33CHL1  H11A 2403   6.671   5.312   7.405 -0.5751  0.9702  1.7065
   33CHL1  H11B 2404   6.688   5.485   7.388  1.8693  1.1448  1.9477
   33CHL1    C9 2405   6.845   5.375   7.277 -0.0871  0.0010 -0.4945
   33CHL1    H9 2406   6.909   5.466   7.277 -0.5942  0.4088  2.4609
   33CHL1   C10 2407   6.777   5.373   7.138 -0.5405 -0.1793 -0.1917
   33CHL1   C19 2408   6.671   5.272   7.135 -0.4441  0.8202  0.7539
   33CHL1  H19A 2409   6.692   5.171   7.175 -2.0907 -0.5918 -1.8694
   33CHL1  H19B 2410   6.574   5.299   7.184 -0.8413  0.5792  0.1032
   33CHL1  H19C 2411   6.625   5.255   7.036 -0.0157  0.3515  0.6361
   33CHL1    C1 2412   6.714   5.513   7.106  0.0153  0.4409  0.8262
   33CHL1   H1A 2413   6.625   5.532   7.170 -0.3046  0.3806  0.3982
   33CHL1   H1B 2414   6.785   5.594   7.135  0.4006 -0.3847  2.2341
   33CHL1    C2 2415   6.669   5.539   6.963 -1.0404 -0.0899 -0.0791
   33CHL1   H2A 2416   6.620   5.639   6.959  1.4099  1.0900 -2.4837
   33CHL1   H2B 2417   6.586   5.465   6.957  0.0611 -1.3281 -0.0335
   33CHL1   C20 2418   6.957   5.234   7.820 -0.7607  0.5994 -1.0918
   33CHL1   H20 2419   6.940   5.125   7.813  0.5094  0.1883  1.4590
   33CHL1   C21 2420   6.828   5.308   7.857 -0.2591  0.3329 -0.3348
   33CHL1  H21A 2421   6.749   5.289   7.782  0.0347  0.4820 -0.6839
   33CHL1  H21B 2422   6.864   5.413   7.844  2.9155 -0.5901  0.6126
   33CHL1  H21C 2423   6.793   5.285   7.960 -0.3265  0.9497 -0.2155
   33CHL1   C22 2424   7.071   5.233   7.931 -0.1898 -0.2295  0.1773
   33CHL1  H22A 2425   7.161   5.179   7.894  0.5922  0.9068  0.4054
   33CHL1  H22B 2426   7.094   5.339   7.953  0.0540  0.0306 -1.3120
   33CHL1   C23 2427   7.033   5.147   8.058  0.4626 -0.3796  0.0629
   33CHL1  H23A 2428   6.924   5.166   8.073  0.8061  1.6718  0.1402
   33CHL1  H23B 2429   7.048   5.038   8.046  0.8862 -0.4213  0.9299
   33CHL1   C24 2430   7.100   5.190   8.190  0.1577  0.3614  0.4325
   33CHL1  H24A 2431   7.209   5.185   8.174  0.5612  2.7415  2.1967
   33CHL1  H24B 2432   7.082   5.297   8.212 -1.2672  0.6213 -1.8135
   33CHL1   C25 2433   7.049   5.112   8.312  0.2271 -0.5188  0.2054
   33CHL1   H25 2434   7.068   5.005   8.290 -0.1156 -0.6776  0.6783
   33CHL1   C26 2435   7.146   5.154   8.430  0.0059 -0.0727  0.2019
   33CHL1  H26A 2436   7.130   5.263   8.443 -1.4258 -0.2062 -0.3350
   33CHL1  H26B 2437   7.131   5.087   8.518 -0.2797 -0.4489 -0.1322
   33CHL1  H26C 2438   7.253   5.148   8.400 -0.0200 -3.4315  0.6011
   33CHL1   C27 2439   6.900   5.129   8.343 -0.9286 -0.6770  0.2140
   33CHL1  H27A 2440   6.862   5.233   8.346 -0.4352 -0.3828 -2.7766
   33CHL1  H27B 2441   6.851   5.082   8.255  0.0438  1.6155 -1.6122
   33CHL1  H27C 2442   6.876   5.074   8.436 -1.2180 -0.8268  0.0482
   34CHL1    C3 2443   1.272   4.163   7.196 -0.1790  0.5528  0.1159
   34CHL1    H3 2444   1.249   4.057   7.220  0.1885  0.7444  1.3645
   34CHL1    O3 2445   1.253   4.196   7.056  0.1073 -0.2940  0.3161
   34CHL1   H3' 2446   1.313   4.140   7.006 -0.3301  0.9140 -1.6055
   34CHL1    C4 2447   1.176   4.262   7.269  0.7735 -0.7393 -0.0968
   34CHL1   H4A 2448   1.189   4.369   7.243 -0.2321 -0.4753  0.4681
   34CHL1   H4B 2449   1.074   4.234   7.236  0.9954 -0.4452 -1.0526
   34CHL1    C5 2450   1.184   4.239   7.418  0.2409 -0.1888 -0.0044
   34CHL1    C6 2451   1.074   4.199   7.486  0.1096  0.8804 -0.1987
   34CHL1    H6 2452   0.976   4.194   7.436 -0.2123  0.3369  0.4831
   34CHL1    C7 2453   1.084   4.173   7.632  0.0164 -0.4070 -1.0709
   34CHL1   H7A 2454   0.986   4.207   7.671 -0.0385 -1.6065 -0.1287
   34CHL1   H7B 2455   1.081   4.064   7.652  0.8174 -0.2874 -0.2361
   34CHL1    C8 2456   1.207   4.230   7.699  0.1528  0.0171  0.0991
   34CHL1    H8 2457   1.198   4.340   7.702 -0.2873 -0.0677  2.5775
   34CHL1   C14 2458   1.220   4.167   7.836  0.1421  0.0977 -0.7144
   34CHL1   H14 2459   1.234   4.058   7.822 -2.0088 -0.3588  0.4823
   34CHL1   C15 2460   1.098   4.174   7.926  0.5814  0.2392  0.0951
   34CHL1  H15A 2461   1.038   4.266   7.913  0.2258  0.1666  1.2256
   34CHL1  H15B 2462   1.036   4.082   7.919  1.1955 -0.3108  1.6383
   34CHL1   C16 2463   1.150   4.167   8.070  0.3067 -0.2806 -0.4022
   34CHL1  H16A 2464   1.111   4.258   8.120  0.6878 -0.6740  0.6288
   34CHL1  H16B 2465   1.123   4.070   8.119  1.2536 -0.1099  0.4754
   34CHL1   C17 2466   1.312   4.150   8.047  0.4214 -0.0512 -0.1664
   34CHL1   H17 2467   1.324   4.041   8.025 -0.8632  0.0055 -1.2431
   34CHL1   C13 2468   1.340   4.224   7.916 -0.2881  1.4502 -0.1933
   34CHL1   C18 2469   1.326   4.379   7.922 -0.1865 -0.1716 -0.3745
   34CHL1  H18A 2470   1.328   4.431   7.824 -0.2584 -0.6600 -0.6382
   34CHL1  H18B 2471   1.236   4.417   7.974  0.5887  2.2453 -0.7355
   34CHL1  H18C 2472   1.420   4.422   7.963 -0.9002  1.7895 -0.7368
   34CHL1   C12 2473   1.465   4.184   7.842  0.2289  0.4635  0.2205
   34CHL1  H12A 2474   1.548   4.235   7.896  0.7752  0.7452 -0.8832
   34CHL1  H12B 2475   1.498   4.082   7.872 -0.2240  0.5200  0.9284
   34CHL1   C11 2476   1.466   4.228   7.691  0.4806 -0.2991 -0.3763
   34CHL1  H11A 2477   1.490   4.336   7.690  1.8788 -0.5539 -3.9262
   34CHL1  H11B 2478   1.547   4.174   7.637  2.4091  3.7745 -1.7739
   34CHL1    C9 2479   1.333   4.195   7.624 -0.3550  0.5061  0.1393
   34CHL1    H9 2480   1.339   4.084   7.627 -1.4331  0.4837  2.6109
   34CHL1   C10 2481   1.322   4.245   7.480 -0.6791  0.5102  0.6378
   34CHL1   C19 2482   1.358   4.396   7.488 -0.1767 -0.0604  0.3758
   34CHL1  H19A 2483   1.465   4.410   7.514 -0.6790  2.1800  1.3263
   34CHL1  H19B 2484   1.338   4.448   7.392 -0.5537  3.1388  2.1384
   34CHL1  H19C 2485   1.289   4.447   7.558  0.7854  0.3808  1.0086
   34CHL1    C1 2486   1.430   4.170   7.392  0.1614 -0.0874 -0.3229
   34CHL1   H1A 2487   1.536   4.189   7.419  0.3818 -0.0916 -1.1529
   34CHL1   H1B 2488   1.420   4.061   7.414  0.0260  0.3960  2.1598
   34CHL1    C2 2489   1.416   4.193   7.239  0.0319  0.7251 -0.6726
   34CHL1   H2A 2490   1.488   4.134   7.180 -0.4372  0.9055 -1.4349
   34CHL1   H2B 2491   1.448   4.296   7.214 -0.5874  1.0388 -0.1964
   34CHL1   C20 2492   1.391   4.200   8.167 -0.4617 -0.0397  0.1779
   34CHL1   H20 2493   1.492   4.227   8.128  0.0022 -1.0120  0.6733
   34CHL1   C21 2494   1.403   4.087   8.270  0.2090 -0.2674  0.5199
   34CHL1  H21A 2495   1.434   3.989   8.227 -1.3411 -1.7738  2.7783
   34CHL1  H21B 2496   1.305   4.068   8.318 -1.6241 -0.1548 -2.9676
   34CHL1  H21C 2497   1.480   4.104   8.348  3.0164 -1.5824 -1.8549
   34CHL1   C22 2498   1.323   4.327   8.239 -0.0521 -0.0157  0.8207
   34CHL1  H22A 2499   1.269   4.399   8.174 -0.4496  1.1618  2.4212
   34CHL1  H22B 2500   1.250   4.294   8.316 -2.0595 -1.8199 -1.7572
   34CHL1   C23 2501   1.435   4.420   8.299  0.2771 -0.3995  0.4074
   34CHL1  H23A 2502   1.529   4.407   8.242  0.4195  1.6225  0.1751
   34CHL1  H23B 2503   1.411   4.528   8.295  0.8886 -0.0248  4.6110
   34CHL1   C24 2504   1.461   4.401   8.450  0.2731 -0.6434  0.2556
   34CHL1  H24A 2505   1.359   4.412   8.494  0.7197 -1.1428  1.4401
   34CHL1  H24B 2506   1.486   4.296   8.475 -0.2485 -0.4332  1.6935
   34CHL1   C25 2507   1.565   4.489   8.522  0.1146 -0.2827  0.1727
   34CHL1   H25 2508   1.537   4.596   8.510  0.7224  0.2682  3.1076
   34CHL1   C26 2509   1.564   4.477   8.675 -1.0376 -0.2740 -0.5609
   34CHL1  H26A 2510   1.466   4.494   8.724  0.2100 -0.4228  2.1076
   34CHL1  H26B 2511   1.597   4.374   8.699 -2.0671 -0.5516 -0.3058
   34CHL1  H26C 2512   1.627   4.556   8.721 -0.8643 -0.6176 -0.2075
   34CHL1   C27 2513   1.711   4.471   8.481  0.1242  0.6494  0.1473
   34CHL1  H27A 2514   1.781   4.533   8.542 -0.8922  2.7161 -0.7317
   34CHL1  H27B 2515   1.739   4.368   8.512 -1.6802 -0.3718 -1.5072
   34CHL1  H27C 2516   1.715   4.483   8.371 -0.0787 -0.5075  0.0079
   35CHL1    C3 2517   4.479   5.373   7.177  0.4404  0.0102 -0.0447
   35CHL1    H3 2518   4.581   5.407   7.203  0.0541 -1.0777  3.1261
   35CHL1    O3 2519   4.476   5.324   7.042  0.3215  1.2170 -0.1427
   35CHL1   H3' 2520   4.555   5.272   7.029  0.1392  0.6852  0.8473
   35CHL1    C4 2521   4.441   5.257   7.273 -0.2150  0.3613  0.1209
   35CHL1   H4A 2522   4.344   5.214   7.240 -1.6026  2.8683  0.7958
   35CHL1   H4B 2523   4.518   5.182   7.246 -0.6420 -1.1924  3.0341
   35CHL1    C5 2524   4.441   5.306   7.416 -0.4522 -0.3851 -0.6825
   35CHL1    C6 2525   4.519   5.246   7.507  1.0656  0.0014 -0.1592
   35CHL1    H6 2526   4.587   5.163   7.484 -0.7801 -1.4510 -0.4198
   35CHL1    C7 2527   4.517   5.292   7.653 -0.1977  0.3620  0.3189
   35CHL1   H7A 2528   4.498   5.197   7.708 -1.9746  1.8912  2.3798
   35CHL1   H7B 2529   4.615   5.329   7.689  1.4529 -1.5942 -1.9492
   35CHL1    C8 2530   4.393   5.377   7.691 -0.0137  0.9507  0.1643
   35CHL1    H8 2531   4.302   5.313   7.685  0.2916  0.3232  1.7926
   35CHL1   C14 2532   4.423   5.426   7.830  0.2459 -0.5483 -0.3433
   35CHL1   H14 2533   4.512   5.491   7.813 -0.2510  0.4239  0.6735
   35CHL1   C15 2534   4.460   5.327   7.946  0.4226 -0.1018  0.2567
   35CHL1  H15A 2535   4.384   5.247   7.954 -2.1397  2.4077  2.2724
   35CHL1  H15B 2536   4.564   5.290   7.959 -0.0191 -0.0534  4.3782
   35CHL1   C16 2537   4.431   5.415   8.078  0.3402  0.6238 -0.3190
   35CHL1  H16A 2538   4.375   5.358   8.155  2.8090  0.0266  1.1234
   35CHL1  H16B 2539   4.528   5.421   8.132 -0.3591 -3.0284  1.4976
   35CHL1   C17 2540   4.373   5.547   8.034  0.1547 -0.5484 -0.9007
   35CHL1   H17 2541   4.456   5.615   8.005 -0.0761  0.4105  0.6710
   35CHL1   C13 2542   4.318   5.520   7.888  0.4702 -0.4937  0.2598
   35CHL1   C18 2543   4.183   5.452   7.895 -0.5616 -0.5702 -0.1842
   35CHL1  H18A 2544   4.109   5.529   7.924 -1.3370 -1.6302  0.6804
   35CHL1  H18B 2545   4.162   5.406   7.796  3.2775  0.5537 -1.6353
   35CHL1  H18C 2546   4.176   5.368   7.968 -0.6807  1.1288  1.7947
   35CHL1   C12 2547   4.311   5.639   7.794 -0.1043 -0.0675 -0.2921
   35CHL1  H12A 2548   4.236   5.716   7.822 -0.9811 -0.5931 -1.1447
   35CHL1  H12B 2549   4.412   5.685   7.784 -0.2509  0.4545  0.5607
   35CHL1   C11 2550   4.294   5.609   7.640 -0.4317 -0.1170  0.3187
   35CHL1  H11A 2551   4.185   5.589   7.629 -0.7873  1.5031  0.7933
   35CHL1  H11B 2552   4.324   5.702   7.586  0.1177  0.5341  1.7160
   35CHL1    C9 2553   4.376   5.492   7.585  0.3860  0.4638 -0.1198
   35CHL1    H9 2554   4.479   5.534   7.587  0.9887 -1.0197  2.1502
   35CHL1   C10 2555   4.347   5.428   7.443 -0.2355 -0.1531  0.6203
   35CHL1   C19 2556   4.198   5.385   7.430 -0.7312 -1.1530 -0.1089
   35CHL1  H19A 2557   4.175   5.313   7.510  0.6496  1.2979  2.5865
   35CHL1  H19B 2558   4.130   5.472   7.444 -1.5597 -1.8350  0.0915
   35CHL1  H19C 2559   4.179   5.342   7.329 -1.3182 -1.0177 -0.0576
   35CHL1    C1 2560   4.383   5.534   7.338  0.3079 -0.0621  0.0008
   35CHL1   H1A 2561   4.311   5.618   7.344  1.5439  0.9882  0.4227
   35CHL1   H1B 2562   4.487   5.565   7.364  0.5997 -1.9355  1.1373
   35CHL1    C2 2563   4.377   5.485   7.196 -0.4959  0.4703 -0.0422
   35CHL1   H2A 2564   4.398   5.557   7.114  0.8442 -0.3102 -0.4190
   35CHL1   H2B 2565   4.270   5.463   7.177 -0.5249  0.0983  0.5425
   35CHL1   C20 2566   4.288   5.632   8.132 -0.0055 -0.2553  0.2585
   35CHL1   H20 2567   4.182   5.610   8.108  0.4270  0.7843 -2.7993
   35CHL1   C21 2568   4.313   5.783   8.094 -0.7601  0.5469 -0.3796
   35CHL1  H21A 2569   4.300   5.805   7.986  1.8864  3.4615 -0.2007
   35CHL1  H21B 2570   4.411   5.818   8.134 -0.6832  0.2306 -0.2945
   35CHL1  H21C 2571   4.238   5.845   8.149 -1.7877 -1.0580  0.0365
   35CHL1   C22 2572   4.310   5.614   8.287  0.5619  0.8605  0.7606
   35CHL1  H22A 2573   4.233   5.671   8.342 -1.6517 -1.9999  0.7175
   35CHL1  H22B 2574   4.303   5.506   8.314 -2.5609  0.1588 -2.5464
   35CHL1   C23 2575   4.452   5.652   8.325 -0.3178  0.4084  0.5238
   35CHL1  H23A 2576   4.518   5.604   8.249 -0.8000  0.2647  0.1983
   35CHL1  H23B 2577   4.470   5.761   8.339  0.3185  0.2091  1.3214
   35CHL1   C24 2578   4.498   5.583   8.459 -0.1266 -0.4761 -0.1373
   35CHL1  H24A 2579   4.505   5.472   8.452 -0.4890 -0.4642 -0.7183
   35CHL1  H24B 2580   4.591   5.633   8.491 -1.2869  1.8054 -0.2388
   35CHL1   C25 2581   4.404   5.614   8.584 -0.0456 -0.7703 -0.5734
   35CHL1   H25 2582   4.305   5.573   8.554 -1.1443  2.1312 -1.0787
   35CHL1   C26 2583   4.436   5.527   8.713 -0.6338  0.0137 -0.1468
   35CHL1  H26A 2584   4.361   5.556   8.789 -1.7589  0.0574 -1.2668
   35CHL1  H26B 2585   4.434   5.419   8.685  0.4191 -0.1107  0.1996
   35CHL1  H26C 2586   4.535   5.552   8.758 -0.4128 -0.0638 -0.5811
   35CHL1   C27 2587   4.384   5.762   8.618 -0.6557 -0.4781  0.2838
   35CHL1  H27A 2588   4.309   5.768   8.699  0.2948 -0.8076  1.1919
   35CHL1  H27B 2589   4.342   5.822   8.534 -0.2933  0.7489  0.9697
   35CHL1  H27C 2590   4.475   5.819   8.647 -3.3845  2.5869  3.1483
   36CHL1    C3 2591   4.962   3.962   6.995  0.0225 -0.1476  0.6907
   36CHL1    H3 2592   5.034   3.879   7.006 -1.2985 -1.1766  1.8434
   36CHL1    O3 2593   4.901   3.954   6.873  0.4519  0.3247  0.2483
   36CHL1   H3' 2594   4.966   3.914   6.816  0.3166 -0.3053  0.5341
   36CHL1    C4 2595   4.852   3.972   7.106  0.6337  0.7450 -0.1390
   36CHL1   H4A 2596   4.780   4.055   7.086  0.4960  0.6039 -0.2313
   36CHL1   H4B 2597   4.784   3.885   7.106 -2.3255  2.9891 -0.9992
   36CHL1    C5 2598   4.918   4.008   7.235 -0.5911 -0.5690 -0.4737
   36CHL1    C6 2599   4.916   3.918   7.333 -0.1216 -0.3613 -0.2890
   36CHL1    H6 2600   4.869   3.820   7.320 -1.2346  0.2098 -0.6395
   36CHL1    C7 2601   4.976   3.945   7.472 -0.4884  0.2875 -0.5224
   36CHL1   H7A 2602   4.895   3.913   7.542  0.5460  0.1273  0.6241
   36CHL1   H7B 2603   5.058   3.873   7.492  0.8362  1.5383 -1.3495
   36CHL1    C8 2604   5.017   4.089   7.502  0.2792  0.2192 -0.5320
   36CHL1    H8 2605   4.916   4.136   7.500 -0.9108 -2.2423 -1.8103
   36CHL1   C14 2606   5.103   4.099   7.625  0.6529 -0.2341  0.5381
   36CHL1   H14 2607   5.195   4.043   7.598  0.0698 -1.7468  1.6197
   36CHL1   C15 2608   5.059   4.036   7.763  0.3042 -0.1805  0.0508
   36CHL1  H15A 2609   4.954   4.060   7.788  0.4273  1.6812 -1.1359
   36CHL1  H15B 2610   5.066   3.925   7.767 -2.1640 -0.3799 -0.4677
   36CHL1   C16 2611   5.149   4.106   7.861  0.1341  0.4962  0.2413
   36CHL1  H16A 2612   5.080   4.152   7.934  0.8250  1.7883  0.1050
   36CHL1  H16B 2613   5.224   4.043   7.913  2.4289  1.9953 -1.1146
   36CHL1   C17 2614   5.221   4.223   7.779 -0.1889 -0.1023  0.4940
   36CHL1   H17 2615   5.317   4.172   7.759  0.5050  1.7036 -0.9710
   36CHL1   C13 2616   5.135   4.244   7.652  0.2441 -0.0257  0.2716
   36CHL1   C18 2617   5.009   4.323   7.689  0.0055  0.3645  0.4187
   36CHL1  H18A 2618   5.020   4.433   7.681  1.8428  0.0858 -1.1867
   36CHL1  H18B 2619   4.924   4.294   7.623  1.6876 -1.0444 -1.1894
   36CHL1  H18C 2620   4.981   4.305   7.795 -0.8003  0.4598  0.2268
   36CHL1   C12 2621   5.213   4.293   7.537 -0.3523  0.3239 -0.6354
   36CHL1  H12A 2622   5.251   4.397   7.548 -0.7005  0.3387  0.4528
   36CHL1  H12B 2623   5.312   4.245   7.525  0.3923  1.6604  0.0118
   36CHL1   C11 2624   5.130   4.296   7.403  0.3771  0.1424 -0.1760
   36CHL1  H11A 2625   5.042   4.361   7.425  0.9123  0.6404  0.5022
   36CHL1  H11B 2626   5.179   4.342   7.315 -1.2330  0.3371 -1.0004
   36CHL1    C9 2627   5.082   4.150   7.373  0.3630 -0.3402  0.6844
   36CHL1    H9 2628   5.177   4.092   7.365 -0.2492 -1.1311 -0.8895
   36CHL1   C10 2629   5.005   4.137   7.241  0.0535 -0.4861  0.7276
   36CHL1   C19 2630   4.916   4.258   7.214 -1.0173  0.3412 -0.0544
   36CHL1  H19A 2631   4.978   4.350   7.220 -0.0576 -0.1844 -1.5205
   36CHL1  H19B 2632   4.872   4.266   7.112  0.2154  1.6612 -0.5140
   36CHL1  H19C 2633   4.837   4.273   7.290  0.6988 -0.8970  2.0224
   36CHL1    C1 2634   5.105   4.139   7.124 -0.1110 -0.3265  0.4403
   36CHL1   H1A 2635   5.143   4.243   7.116 -0.1282 -0.3896 -0.5719
   36CHL1   H1B 2636   5.189   4.070   7.149  1.5234  0.9828 -1.2850
   36CHL1    C2 2637   5.047   4.095   6.989 -0.0369 -0.2332  0.1008
   36CHL1   H2A 2638   5.116   4.086   6.902  1.3318 -1.0626  1.2622
   36CHL1   H2B 2639   4.972   4.174   6.966  0.3452  0.9680  2.8082
   36CHL1   C20 2640   5.244   4.338   7.875  0.3163  0.0117 -0.3765
   36CHL1   H20 2641   5.147   4.384   7.904 -0.6489 -1.2787 -1.4722
   36CHL1   C21 2642   5.323   4.450   7.806 -0.4702 -0.5693 -0.4481
   36CHL1  H21A 2643   5.264   4.501   7.727 -1.3111 -1.3383 -0.3242
   36CHL1  H21B 2644   5.405   4.405   7.747  0.0079 -2.4802  1.5916
   36CHL1  H21C 2645   5.362   4.529   7.874 -3.3031  1.6710 -1.3350
   36CHL1   C22 2646   5.322   4.310   8.009 -0.1166 -0.0279  0.6645
   36CHL1  H22A 2647   5.283   4.221   8.064  1.3031 -0.4995  0.9236
   36CHL1  H22B 2648   5.431   4.296   7.991 -0.3873  1.1671 -2.0227
   36CHL1   C23 2649   5.316   4.421   8.114  0.3840  0.5579  0.0519
   36CHL1  H23A 2650   5.376   4.392   8.203  1.6595 -0.5725 -1.1489
   36CHL1  H23B 2651   5.355   4.514   8.069  3.1054  0.6004  2.3959
   36CHL1   C24 2652   5.173   4.463   8.167  0.0015 -0.3247  0.2159
   36CHL1  H24A 2653   5.123   4.516   8.082  0.6695  0.8668  0.5559
   36CHL1  H24B 2654   5.120   4.372   8.200 -0.0154 -0.3376  0.1525
   36CHL1   C25 2655   5.173   4.560   8.287  0.3429 -0.3191 -0.2027
   36CHL1   H25 2656   5.238   4.522   8.368  0.0790  2.1975  1.2479
   36CHL1   C26 2657   5.233   4.691   8.247  0.2051 -0.4917 -0.4918
   36CHL1  H26A 2658   5.342   4.680   8.228  0.2453  0.1332 -0.6549
   36CHL1  H26B 2659   5.176   4.730   8.160  1.9005  3.1891 -0.0709
   36CHL1  H26C 2660   5.218   4.768   8.326  0.7718  0.2901 -1.1257
   36CHL1   C27 2661   5.025   4.579   8.340 -0.1560  0.1493  0.8069
   36CHL1  H27A 2662   4.952   4.611   8.262 -0.0116  0.4808  0.8034
   36CHL1  H27B 2663   4.999   4.477   8.375  2.1343 -0.3156  1.2390
   36CHL1  H27C 2664   5.030   4.658   8.418 -1.5793  1.0926 -0.0199
   37CHL1    C3 2665   1.342   0.198   6.912 -0.2946  0.3551  0.1966
   37CHL1    H3 2666   1.302   0.295   6.948  2.1204  1.1172  0.9539
   37CHL1    O3 2667   1.360   0.195   6.767  0.5357 -0.5704  0.2423
   37CHL1   H3' 2668   1.272   0.183   6.732  0.5923  0.9292 -0.4417
   37CHL1    C4 2669   1.475   0.173   6.997 -0.3227  0.0870  0.4818
   37CHL1   H4A 2670   1.526   0.085   6.953 -0.3778  0.2165  0.1599
   37CHL1   H4B 2671   1.544   0.257   6.975 -1.9776  1.2785 -0.3384
   37CHL1    C5 2672   1.453   0.166   7.151 -0.1428 -0.1391  0.1199
   37CHL1    C6 2673   1.520   0.248   7.233  1.1914 -0.3975 -0.1630
   37CHL1    H6 2674   1.589   0.322   7.190  1.7980 -0.3415  0.8701
   37CHL1    C7 2675   1.496   0.257   7.382 -0.5362  0.0001 -0.9530
   37CHL1   H7A 2676   1.594   0.254   7.435 -1.2158  0.8147  0.3692
   37CHL1   H7B 2677   1.440   0.350   7.405  0.5440  0.2201  0.8766
   37CHL1    C8 2678   1.410   0.148   7.437 -0.4003  0.2092 -1.0811
   37CHL1    H8 2679   1.471   0.056   7.447  0.3603  0.6406 -1.7860
   37CHL1   C14 2680   1.363   0.167   7.581 -0.3280 -0.4151 -0.1934
   37CHL1   H14 2681   1.292   0.253   7.581  0.4749  0.2725 -2.3025
   37CHL1   C15 2682   1.473   0.216   7.672  0.7958  0.6242 -0.2206
   37CHL1  H15A 2683   1.551   0.137   7.668  0.9932  0.8656 -1.3015
   37CHL1  H15B 2684   1.515   0.315   7.644  0.0468  1.1743  0.5561
   37CHL1   C16 2685   1.411   0.207   7.813  0.1168  0.1720 -0.2555
   37CHL1  H16A 2686   1.478   0.174   7.895 -2.5888 -3.9258  0.4694
   37CHL1  H16B 2687   1.370   0.308   7.834 -1.0638 -0.0817 -1.3006
   37CHL1   C17 2688   1.276   0.120   7.790  0.1370 -0.5737 -0.1257
   37CHL1   H17 2689   1.195   0.197   7.786 -1.5200 -2.1308  2.2135
   37CHL1   C13 2690   1.284   0.058   7.649 -1.0229  0.4884  0.0211
   37CHL1   C18 2691   1.376  -0.070   7.661 -0.5874 -0.2178  0.1820
   37CHL1  H18A 2692   1.431  -0.068   7.757 -0.4449 -3.6038  0.2357
   37CHL1  H18B 2693   1.303  -0.154   7.670 -0.3316 -0.0599  5.2346
   37CHL1  H18C 2694   1.455  -0.089   7.585 -0.7968 -0.8084  0.1095
   37CHL1   C12 2695   1.155   0.042   7.562 -0.9471  0.1098 -0.1656
   37CHL1  H12A 2696   1.079  -0.027   7.603 -1.4293  0.6087 -0.2150
   37CHL1  H12B 2697   1.117   0.146   7.573  0.6924  0.7882 -0.7973
   37CHL1   C11 2698   1.188   0.013   7.415 -0.0194  0.8974 -0.7389
   37CHL1  H11A 2699   1.227  -0.090   7.397 -1.1799  0.2747  0.2658
   37CHL1  H11B 2700   1.088   0.012   7.365 -1.6537  0.0486  2.4010
   37CHL1    C9 2701   1.287   0.111   7.341  0.1792 -0.3996  0.0078
   37CHL1    H9 2702   1.233   0.207   7.324 -1.5267 -1.2897  0.3592
   37CHL1   C10 2703   1.332   0.077   7.194  0.3038  0.4606 -0.3315
   37CHL1   C19 2704   1.392  -0.067   7.186  0.4125 -0.6987  0.3605
   37CHL1  H19A 2705   1.434  -0.093   7.086 -0.1227 -1.7967  0.4161
   37CHL1  H19B 2706   1.465  -0.085   7.267  2.1497  0.4331 -0.9111
   37CHL1  H19C 2707   1.313  -0.144   7.198  2.1364 -2.9248 -2.0099
   37CHL1    C1 2708   1.209   0.090   7.099  0.4980 -0.3472  0.7059
   37CHL1   H1A 2709   1.130   0.017   7.127  0.7850 -0.7801  0.3994
   37CHL1   H1B 2710   1.174   0.194   7.113  2.8058  0.4571  0.6345
   37CHL1    C2 2711   1.240   0.090   6.951 -0.3823 -0.5264  0.3568
   37CHL1   H2A 2712   1.140   0.105   6.905 -0.8357 -0.7228  1.2652
   37CHL1   H2B 2713   1.277  -0.010   6.921 -0.8671 -1.4403  2.6579
   37CHL1   C20 2714   1.240   0.033   7.910 -0.2230  0.1542  0.0842
   37CHL1   H20 2715   1.319  -0.044   7.923 -1.8025 -1.3188  1.2134
   37CHL1   C21 2716   1.108  -0.044   7.881 -0.2227 -0.6046  0.0249
   37CHL1  H21A 2717   1.076  -0.114   7.962 -0.8983 -0.2091  0.1073
   37CHL1  H21B 2718   1.123  -0.108   7.792  2.8416 -0.8958  0.7103
   37CHL1  H21C 2719   1.016   0.015   7.863  0.4306  0.5746  0.5464
   37CHL1   C22 2720   1.212   0.119   8.033 -0.1188 -0.4123  0.2800
   37CHL1  H22A 2721   1.279   0.208   8.035 -1.8300  0.9185 -0.6340
   37CHL1  H22B 2722   1.103   0.142   8.035  0.2291  1.3874 -0.7328
   37CHL1   C23 2723   1.253   0.041   8.166  0.4236 -0.1197 -0.1129
   37CHL1  H23A 2724   1.209  -0.061   8.160  2.1474 -0.9977  1.6843
   37CHL1  H23B 2725   1.363   0.031   8.173  0.4269 -1.1223 -1.4281
   37CHL1   C24 2726   1.195   0.107   8.293  0.4370  0.3089  0.4522
   37CHL1  H24A 2727   1.225   0.214   8.286 -0.7597  0.5598 -1.2322
   37CHL1  H24B 2728   1.084   0.106   8.285  0.2261  1.5692  2.7840
   37CHL1   C25 2729   1.259   0.056   8.425  0.3985 -0.4088  0.4029
   37CHL1   H25 2730   1.369   0.062   8.410  0.0257  0.6607 -2.1439
   37CHL1   C26 2731   1.216   0.144   8.542  0.6210  0.7108 -0.3211
   37CHL1  H26A 2732   1.279   0.109   8.626 -0.6017  1.0099  0.7299
   37CHL1  H26B 2733   1.237   0.249   8.512 -0.2727  2.0729  3.5772
   37CHL1  H26C 2734   1.109   0.125   8.567  0.5805  1.2494 -0.0850
   37CHL1   C27 2735   1.227  -0.092   8.455  0.0143  0.2055  0.3271
   37CHL1  H27A 2736   1.239  -0.111   8.564 -2.8365  1.8632  0.9977
   37CHL1  H27B 2737   1.122  -0.121   8.433  0.1995  0.2264 -0.5746
   37CHL1  H27C 2738   1.294  -0.156   8.395 -1.6387 -1.7677  0.5429
   38CHL1    C3 2739   4.804   0.391   6.632  0.1379  0.1297 -0.1775
   38CHL1    H3 2740   4.700   0.378   6.670 -0.3283 -1.1795 -1.8456
   38CHL1    O3 2741   4.844   0.317   6.518  0.8595  0.3737  0.4940
   38CHL1   H3' 2742   4.929   0.352   6.489  0.9958 -1.4840 -1.5490
   38CHL1    C4 2743   4.806   0.544   6.594  0.1878 -0.8938  0.1206
   38CHL1   H4A 2744   4.908   0.561   6.554  0.5664 -0.0466  1.4239
   38CHL1   H4B 2745   4.744   0.559   6.503  0.2128 -0.5377  0.1625
   38CHL1    C5 2746   4.771   0.628   6.717 -0.0484  1.5058 -0.7272
   38CHL1    C6 2747   4.674   0.721   6.722 -0.5678 -0.0476 -0.3691
   38CHL1    H6 2748   4.608   0.732   6.635 -1.3325  0.9050  0.3286
   38CHL1    C7 2749   4.644   0.812   6.837 -0.0340 -0.3682 -0.0860
   38CHL1   H7A 2750   4.605   0.914   6.818 -0.4527 -0.2835  1.2070
   38CHL1   H7B 2751   4.557   0.761   6.883 -0.3332  0.8506  0.7260
   38CHL1    C8 2752   4.755   0.816   6.939 -0.2665 -0.4819  0.1477
   38CHL1    H8 2753   4.834   0.887   6.906 -0.4176 -0.2444  0.3021
   38CHL1   C14 2754   4.703   0.859   7.078  0.2862 -0.3316  0.2423
   38CHL1   H14 2755   4.638   0.781   7.123  0.8821  1.1345  3.7587
   38CHL1   C15 2756   4.619   0.992   7.084 -0.0645  0.4548 -0.5913
   38CHL1  H15A 2757   4.660   1.078   7.026 -0.5153 -0.6844 -2.6514
   38CHL1  H15B 2758   4.514   0.977   7.049  0.4269 -2.0329 -1.1416
   38CHL1   C16 2759   4.620   1.027   7.230  0.0010  0.6460 -0.1246
   38CHL1  H16A 2760   4.644   1.135   7.234  0.0829  0.6341 -0.3304
   38CHL1  H16B 2761   4.527   1.000   7.283  0.1802 -3.5278 -1.7625
   38CHL1   C17 2762   4.724   0.939   7.300  0.6789 -0.3190  0.0504
   38CHL1   H17 2763   4.664   0.848   7.326  0.7038 -0.3409  0.0315
   38CHL1   C13 2764   4.812   0.886   7.189  0.0480 -0.3962 -0.1517
   38CHL1   C18 2765   4.913   0.995   7.149 -0.5730  0.0385 -0.4121
   38CHL1  H18A 2766   4.992   0.990   7.228 -0.4808  2.9561 -0.2664
   38CHL1  H18B 2767   4.968   0.976   7.055 -1.1522 -1.2567 -0.5040
   38CHL1  H18C 2768   4.867   1.095   7.137 -0.0320  0.2608 -0.6589
   38CHL1   C12 2769   4.880   0.752   7.207 -0.3362  0.9899  0.4856
   38CHL1  H12A 2770   4.969   0.763   7.272 -0.5390  0.4993  0.8515
   38CHL1  H12B 2771   4.812   0.671   7.243  0.0537  0.3400 -0.2240
   38CHL1   C11 2772   4.934   0.695   7.076  0.4090 -0.7205 -0.5234
   38CHL1  H11A 2773   5.011   0.767   7.044 -0.1588  0.0823 -0.0890
   38CHL1  H11B 2774   4.988   0.598   7.084  0.0599 -0.9602 -1.0077
   38CHL1    C9 2775   4.823   0.682   6.968  0.0936 -0.3302 -0.1638
   38CHL1    H9 2776   4.743   0.624   7.018  0.2163  0.2732  0.7505
   38CHL1   C10 2777   4.867   0.596   6.841 -1.0324  0.0085  0.2850
   38CHL1   C19 2778   5.010   0.630   6.806  0.4014  0.9565 -0.4529
   38CHL1  H19A 2779   5.082   0.589   6.881  0.3182  0.0151 -0.8762
   38CHL1  H19B 2780   5.041   0.579   6.713 -1.4401  2.0317 -1.6819
   38CHL1  H19C 2781   5.017   0.740   6.793  2.0624  0.9617  0.3956
   38CHL1    C1 2782   4.847   0.446   6.866  0.5374  0.2926  0.0297
   38CHL1   H1A 2783   4.910   0.419   6.953 -1.2635 -1.3781  0.8479
   38CHL1   H1B 2784   4.740   0.434   6.897  0.1104  1.6567 -0.8773
   38CHL1    C2 2785   4.886   0.354   6.756 -0.6897 -0.2398 -0.1173
   38CHL1   H2A 2786   4.877   0.246   6.781  2.0381 -0.3851  0.3606
   38CHL1   H2B 2787   4.993   0.376   6.737 -0.2954 -1.9704 -0.0104
   38CHL1   C20 2788   4.789   0.999   7.426 -1.2444  0.3743  0.5822
   38CHL1   H20 2789   4.817   1.096   7.380 -2.5309  0.3965 -0.1651
   38CHL1   C21 2790   4.906   0.922   7.494 -0.2048 -0.0955  0.0251
   38CHL1  H21A 2791   4.872   0.822   7.528 -1.3677 -0.4890 -2.2114
   38CHL1  H21B 2792   4.946   0.977   7.582  2.6559 -0.1375 -1.1915
   38CHL1  H21C 2793   5.001   0.921   7.435  0.0645  0.1619  0.4503
   38CHL1   C22 2794   4.679   1.009   7.530  0.6733 -0.2643 -0.3465
   38CHL1  H22A 2795   4.584   1.047   7.486  1.5092  0.9073 -1.1386
   38CHL1  H22B 2796   4.661   0.909   7.574  1.0917  0.2883  1.1092
   38CHL1   C23 2797   4.709   1.113   7.643 -0.0277  0.8876  0.0119
   38CHL1  H23A 2798   4.800   1.072   7.692  0.1287  1.2933  0.0652
   38CHL1  H23B 2799   4.743   1.216   7.618  3.6873 -0.3431 -0.3152
   38CHL1   C24 2800   4.595   1.109   7.755 -0.2410 -0.5187 -0.0639
   38CHL1  H24A 2801   4.502   1.158   7.719 -0.1655  0.9477  1.6770
   38CHL1  H24B 2802   4.572   1.002   7.772  1.8546 -0.8562  0.7329
   38CHL1   C25 2803   4.648   1.152   7.896 -0.2379  0.1033 -0.2227
   38CHL1   H25 2804   4.745   1.105   7.919  1.3053  3.2823  0.0580
   38CHL1   C26 2805   4.662   1.303   7.898  0.5531 -0.0045 -0.6043
   38CHL1  H26A 2806   4.696   1.334   8.000  1.2645  2.0068 -1.4302
   38CHL1  H26B 2807   4.727   1.347   7.819 -0.9875  1.5628 -1.0282
   38CHL1  H26C 2808   4.559   1.340   7.885  1.0551  1.5010 -0.3934
   38CHL1   C27 2809   4.558   1.106   8.012 -0.2105 -0.6647 -0.3539
   38CHL1  H27A 2810   4.554   0.996   8.000 -0.3234 -0.6277 -0.6518
   38CHL1  H27B 2811   4.589   1.134   8.115 -0.4479 -2.4529  0.2138
   38CHL1  H27C 2812   4.454   1.146   8.005 -0.1553 -0.3567  0.5283
   39CHL1    C3 2813   4.276   6.590   6.792 -0.1473 -0.1288 -0.2081
   39CHL1    H3 2814   4.192   6.521   6.817 -0.8338  1.0136  0.7000
   39CHL1    O3 2815   4.278   6.620   6.653  0.4538  0.0052  0.1791
   39CHL1   H3' 2816   4.238   6.702   6.624  3.1837  1.5764  0.6199
   39CHL1    C4 2817   4.259   6.722   6.868  0.0381 -0.1719 -0.3067
   39CHL1   H4A 2818   4.326   6.803   6.833  0.0111 -0.6060 -1.3820
   39CHL1   H4B 2819   4.152   6.740   6.846  0.3414  1.8516 -0.1909
   39CHL1    C5 2820   4.273   6.697   7.020  0.1976 -0.5888  0.0489
   39CHL1    C6 2821   4.183   6.738   7.105  0.3421  0.7496 -0.0116
   39CHL1    H6 2822   4.097   6.790   7.059  0.0583  0.2228 -0.0742
   39CHL1    C7 2823   4.192   6.728   7.254 -0.1199  0.7250 -0.5088
   39CHL1   H7A 2824   4.137   6.807   7.308 -0.6755  0.1660 -0.2487
   39CHL1   H7B 2825   4.131   6.637   7.275  0.7364 -0.1376 -1.6592
   39CHL1    C8 2826   4.332   6.688   7.298 -0.5962 -0.5276  0.3425
   39CHL1    H8 2827   4.394   6.780   7.286  0.9499 -1.5800  0.1790
   39CHL1   C14 2828   4.338   6.650   7.451 -0.0702 -0.5037  0.3681
   39CHL1   H14 2829   4.281   6.555   7.454 -0.4179 -0.2616  1.3545
   39CHL1   C15 2830   4.265   6.747   7.548 -0.1809 -0.5516 -0.5199
   39CHL1  H15A 2831   4.278   6.854   7.523 -1.2234 -0.4887 -0.8412
   39CHL1  H15B 2832   4.155   6.731   7.554 -0.6460  2.3949 -0.4171
   39CHL1   C16 2833   4.328   6.707   7.681  0.0205  0.1779 -0.5937
   39CHL1  H16A 2834   4.363   6.805   7.721 -1.0686  1.0024 -1.6292
   39CHL1  H16B 2835   4.252   6.660   7.748  1.4208 -0.0809  0.8393
   39CHL1   C17 2836   4.438   6.600   7.656 -0.7986  0.5461  0.3768
   39CHL1   H17 2837   4.379   6.506   7.661 -1.9953  1.3487  2.2003
   39CHL1   C13 2838   4.475   6.620   7.508 -0.0827  0.5058  0.4245
   39CHL1   C18 2839   4.555   6.754   7.501 -0.0568 -0.4057  0.3125
   39CHL1  H18A 2840   4.587   6.771   7.397  0.4502 -0.3373  0.4808
   39CHL1  H18B 2841   4.502   6.847   7.531  0.3696 -0.4137  1.1232
   39CHL1  H18C 2842   4.642   6.737   7.567 -1.1859  1.1049  2.2597
   39CHL1   C12 2843   4.525   6.506   7.426 -0.1405  0.5802 -0.1104
   39CHL1  H12A 2844   4.622   6.463   7.460  0.4319  3.2687  1.8166
   39CHL1  H12B 2845   4.462   6.417   7.444 -0.3709  0.4292 -1.6762
   39CHL1   C11 2846   4.531   6.525   7.270 -0.3912 -0.0031 -0.5280
   39CHL1  H11A 2847   4.611   6.601   7.255  0.5688 -0.9352 -0.2104
   39CHL1  H11B 2848   4.569   6.428   7.232  0.1660 -1.0115  2.4875
   39CHL1    C9 2849   4.393   6.579   7.207 -0.3765  0.0296  0.1199
   39CHL1    H9 2850   4.342   6.481   7.216  0.4428 -0.6399 -2.0834
   39CHL1   C10 2851   4.395   6.611   7.053  0.3768  0.0249 -0.0166
   39CHL1   C19 2852   4.514   6.708   7.027 -0.1955  0.4691 -0.8243
   39CHL1  H19A 2853   4.606   6.646   7.031 -0.5177  0.0981  2.6077
   39CHL1  H19B 2854   4.509   6.747   6.923 -0.9204 -1.5250 -1.5683
   39CHL1  H19C 2855   4.527   6.784   7.107 -1.2116  0.0169 -0.2120
   39CHL1    C1 2856   4.400   6.481   6.970  0.1616  0.2758 -0.1804
   39CHL1   H1A 2857   4.487   6.419   7.000  0.4376  1.0353  0.6228
   39CHL1   H1B 2858   4.310   6.417   6.980 -1.3624  2.2363 -0.8964
   39CHL1    C2 2859   4.405   6.517   6.820  0.4905 -0.3102  0.3853
   39CHL1   H2A 2860   4.403   6.428   6.754  0.6636 -0.7396  0.9540
   39CHL1   H2B 2861   4.487   6.581   6.780  1.5753 -1.7043  0.3380
   39CHL1   C20 2862   4.535   6.600   7.777 -0.2787  0.4932 -0.6853
   39CHL1   H20 2863   4.575   6.703   7.789  0.1267  0.1542  0.9433
   39CHL1   C21 2864   4.645   6.499   7.747 -0.7109  0.9478  0.9417
   39CHL1  H21A 2865   4.589   6.406   7.724  0.5300  0.5999 -0.7749
   39CHL1  H21B 2866   4.716   6.479   7.830  0.5374 -1.4965 -0.6764
   39CHL1  H21C 2867   4.699   6.528   7.655 -0.8745 -5.3027 -1.3070
   39CHL1   C22 2868   4.464   6.564   7.909  0.3484 -0.4659 -0.0927
   39CHL1  H22A 2869   4.382   6.637   7.918 -0.6743 -1.7521  1.5086
   39CHL1  H22B 2870   4.423   6.460   7.911 -2.4094  0.5865 -0.4158
   39CHL1   C23 2871   4.538   6.590   8.044 -0.4827 -0.4467 -0.3822
   39CHL1  H23A 2872   4.633   6.533   8.048 -1.1153 -1.5851 -1.3094
   39CHL1  H23B 2873   4.579   6.691   8.063  2.5257 -1.4945 -1.0311
   39CHL1   C24 2874   4.462   6.538   8.167  0.3284  0.3344  0.3803
   39CHL1  H24A 2875   4.357   6.575   8.167 -0.1570 -0.9796  0.3468
   39CHL1  H24B 2876   4.450   6.428   8.157  1.4567  0.2675 -0.3605
   39CHL1   C25 2877   4.532   6.575   8.298 -0.6862 -0.3784  0.2518
   39CHL1   H25 2878   4.549   6.684   8.308 -1.0690 -0.3934  1.0625
   39CHL1   C26 2879   4.437   6.541   8.414  0.9861  0.0994 -1.6630
   39CHL1  H26A 2880   4.332   6.579   8.412  0.1188 -2.0339  0.4159
   39CHL1  H26B 2881   4.424   6.432   8.432 -0.9524  0.2399 -2.0946
   39CHL1  H26C 2882   4.483   6.578   8.509  0.2113 -2.2702 -0.3294
   39CHL1   C27 2883   4.668   6.508   8.321  0.0743  0.0853  0.4215
   39CHL1  H27A 2884   4.697   6.552   8.418 -0.2711 -2.6061  1.8056
   39CHL1  H27B 2885   4.669   6.397   8.332  2.3383 -0.0610 -1.0017
   39CHL1  H27C 2886   4.740   6.536   8.242 -0.0220  4.8719  1.9221
   40CHL1    C3 2887   0.472   5.854   6.789 -0.1586 -0.2353  0.0334
   40CHL1    H3 2888   0.449   5.957   6.823 -1.7136  0.1799 -2.0974
   40CHL1    O3 2889   0.451   5.849   6.650  0.2015 -0.3277  0.2977
   40CHL1   H3' 2890   0.506   5.920   6.617  0.3616 -0.2313  0.7715
   40CHL1    C4 2891   0.604   5.782   6.827 -0.1148 -0.3254  0.5168
   40CHL1   H4A 2892   0.598   5.684   6.775 -2.1781  0.7527 -1.3750
   40CHL1   H4B 2893   0.694   5.835   6.786  1.2572 -1.2430  2.2901
   40CHL1    C5 2894   0.612   5.772   6.982  0.1934 -0.5576 -0.1359
   40CHL1    C6 2895   0.720   5.831   7.031 -0.6103 -0.3140  0.4490
   40CHL1    H6 2896   0.798   5.874   6.967 -0.2073  1.6926  2.2196
   40CHL1    C7 2897   0.756   5.831   7.177 -0.3114 -0.1517 -0.0297
   40CHL1   H7A 2898   0.863   5.804   7.187 -0.7007 -2.4082 -1.6545
   40CHL1   H7B 2899   0.741   5.936   7.210  0.7558  0.1883 -0.5953
   40CHL1    C8 2900   0.671   5.731   7.257  0.3376  1.2413 -0.0031
   40CHL1    H8 2901   0.727   5.635   7.254 -0.2902  0.8471  0.6255
   40CHL1   C14 2902   0.683   5.776   7.404  0.3574 -0.2292  0.1311
   40CHL1   H14 2903   0.635   5.876   7.403  1.1723  0.1643 -0.2925
   40CHL1   C15 2904   0.815   5.800   7.468 -0.1339 -0.0230  0.2960
   40CHL1  H15A 2905   0.885   5.715   7.450  0.0528  0.8856 -3.7954
   40CHL1  H15B 2906   0.845   5.894   7.417  1.6821 -0.2816  0.8585
   40CHL1   C16 2907   0.786   5.810   7.617  0.1891  0.1487  0.6652
   40CHL1  H16A 2908   0.860   5.753   7.677  0.8567  0.1113 -0.1754
   40CHL1  H16B 2909   0.778   5.917   7.645 -1.3167 -0.4730  2.6942
   40CHL1   C17 2910   0.636   5.758   7.631  0.8713  0.0130  0.4693
   40CHL1   H17 2911   0.564   5.842   7.637  1.5456  0.7994 -1.8910
   40CHL1   C13 2912   0.593   5.696   7.495 -0.3493  0.3149 -0.3010
   40CHL1   C18 2913   0.647   5.546   7.486 -0.0336  0.2905 -0.2231
   40CHL1  H18A 2914   0.653   5.516   7.379 -0.6997 -3.1170  0.6237
   40CHL1  H18B 2915   0.744   5.531   7.538 -0.5611 -2.9932 -0.0755
   40CHL1  H18C 2916   0.563   5.481   7.519  0.9079 -0.9985 -0.2987
   40CHL1   C12 2917   0.445   5.698   7.453  0.0516 -0.2477 -0.5558
   40CHL1  H12A 2918   0.377   5.625   7.503 -2.0682  1.3332 -1.0503
   40CHL1  H12B 2919   0.411   5.804   7.457 -1.6488 -0.8337  2.7069
   40CHL1   C11 2920   0.427   5.663   7.301 -0.2533  0.0085  0.9963
   40CHL1  H11A 2921   0.449   5.556   7.285  1.9940  0.5886 -0.0064
   40CHL1  H11B 2922   0.322   5.690   7.278 -0.1310  0.6143  1.1130
   40CHL1    C9 2923   0.526   5.737   7.214  0.2549  0.3906 -0.2004
   40CHL1    H9 2924   0.504   5.845   7.225 -1.0549 -0.0326  1.6720
   40CHL1   C10 2925   0.496   5.709   7.059 -0.0986 -0.2439 -0.1415
   40CHL1   C19 2926   0.503   5.556   7.021  0.1754 -0.1977 -0.0134
   40CHL1  H19A 2927   0.489   5.542   6.912 -2.9886  0.1471  0.3069
   40CHL1  H19B 2928   0.606   5.519   7.041 -0.6291 -2.0458  0.7947
   40CHL1  H19C 2929   0.427   5.491   7.069 -0.1556  0.2335  0.0521
   40CHL1    C1 2930   0.367   5.782   7.005  0.3880  0.4135  0.1504
   40CHL1   H1A 2931   0.288   5.718   7.051  2.6221 -1.5832  1.3297
   40CHL1   H1B 2932   0.358   5.882   7.053  0.4499  1.0596 -1.1495
   40CHL1    C2 2933   0.349   5.788   6.855  0.4572 -0.5387 -0.3997
   40CHL1   H2A 2934   0.262   5.855   6.841  0.1278 -0.7080  0.7761
   40CHL1   H2B 2935   0.332   5.689   6.808 -1.0104 -1.5082  2.0583
   40CHL1   C20 2936   0.613   5.679   7.754  0.2187  0.0473  0.0994
   40CHL1   H20 2937   0.688   5.597   7.756  1.4223  1.1527  1.1975
   40CHL1   C21 2938   0.467   5.617   7.763 -0.3838 -0.3494 -0.0013
   40CHL1  H21A 2939   0.389   5.695   7.752  0.3908  0.6285  1.2758
   40CHL1  H21B 2940   0.446   5.564   7.858  0.0974  0.2098  0.4229
   40CHL1  H21C 2941   0.450   5.546   7.680  1.7652 -0.5346 -0.3098
   40CHL1   C22 2942   0.647   5.761   7.883 -0.7969  1.0042  0.2587
   40CHL1  H22A 2943   0.742   5.816   7.868 -0.1158 -0.2463 -0.1196
   40CHL1  H22B 2944   0.557   5.825   7.886 -2.0192 -0.7468  2.6105
   40CHL1   C23 2945   0.653   5.691   8.025  0.4409  0.6149  0.3466
   40CHL1  H23A 2946   0.574   5.612   8.027  0.7690  0.1956 -1.8349
   40CHL1  H23B 2947   0.756   5.648   8.028 -0.6388 -1.9919  2.0070
   40CHL1   C24 2948   0.645   5.783   8.150  0.7134  0.2527  0.2946
   40CHL1  H24A 2949   0.722   5.860   8.130  1.2704 -0.2806  0.3653
   40CHL1  H24B 2950   0.551   5.841   8.158 -0.0274 -1.0448  1.2010
   40CHL1   C25 2951   0.663   5.730   8.290 -0.2493 -0.4364 -0.4929
   40CHL1   H25 2952   0.747   5.657   8.286 -0.1338 -0.2487 -1.7915
   40CHL1   C26 2953   0.701   5.843   8.389 -0.4111 -0.3753 -0.4489
   40CHL1  H26A 2954   0.649   5.937   8.362 -1.1147 -0.7941 -0.5778
   40CHL1  H26B 2955   0.670   5.811   8.491  1.5758 -0.4054  0.1582
   40CHL1  H26C 2956   0.810   5.862   8.396 -0.4955 -0.2522  0.7163
   40CHL1   C27 2957   0.542   5.655   8.350  0.5903  0.2657 -0.2024
   40CHL1  H27A 2958   0.450   5.716   8.359  0.4130 -0.2532  1.6207
   40CHL1  H27B 2959   0.512   5.571   8.285 -0.9894  0.6488  0.0041
   40CHL1  H27C 2960   0.572   5.603   8.444  0.3319 -0.2335 -0.3966
   41CHL1    C3 2961   1.361   5.857   7.000  0.2103  0.6343  0.3511
   41CHL1    H3 2962   1.362   5.968   6.992  0.2978  0.6577  0.6696
   41CHL1    O3 2963   1.371   5.807   6.869 -0.1888 -0.1029 -0.6199
   41CHL1   H3' 2964   1.368   5.712   6.882 -0.2740 -0.0135  0.0288
   41CHL1    C4 2965   1.475   5.799   7.084  0.3021 -0.8448 -0.0776
   41CHL1   H4A 2966   1.468   5.688   7.087 -0.0424 -0.8334 -0.5329
   41CHL1   H4B 2967   1.573   5.836   7.048  0.5745 -1.5342 -0.0557
   41CHL1    C5 2968   1.461   5.838   7.231 -0.3034 -0.4170 -0.1441
   41CHL1    C6 2969   1.546   5.917   7.294 -0.7732  0.5794 -0.1587
   41CHL1    H6 2970   1.636   5.956   7.243 -0.9958  4.4649  2.2214
   41CHL1    C7 2971   1.551   5.956   7.439 -0.0702 -0.1987  0.0321
   41CHL1   H7A 2972   1.650   5.932   7.484 -0.9882 -2.5737  0.8478
   41CHL1   H7B 2973   1.533   6.065   7.441  1.7866  0.1041  1.5353
   41CHL1    C8 2974   1.433   5.881   7.512  0.6825  0.3425  0.2556
   41CHL1    H8 2975   1.453   5.772   7.514  0.0083  0.2202  0.4576
   41CHL1   C14 2976   1.403   5.936   7.649 -0.4153  0.0712  0.4376
   41CHL1   H14 2977   1.395   6.044   7.624  1.7735 -0.0847 -1.0870
   41CHL1   C15 2978   1.528   5.937   7.745 -0.3744  0.2661  0.2019
   41CHL1  H15A 2979   1.611   5.867   7.720 -0.7607 -1.0553  2.5083
   41CHL1  H15B 2980   1.561   6.042   7.734  0.5320  0.2577  2.4898
   41CHL1   C16 2981   1.470   5.898   7.882  0.6035  0.5470  0.1391
   41CHL1  H16A 2982   1.488   5.791   7.901  0.7994  0.6551  0.5459
   41CHL1  H16B 2983   1.506   5.956   7.969  3.0565 -1.2211  0.3325
   41CHL1   C17 2984   1.312   5.925   7.868 -0.7827 -0.3154 -0.4467
   41CHL1   H17 2985   1.302   6.036   7.865 -0.4560 -0.2558  0.4905
   41CHL1   C13 2986   1.279   5.876   7.720  0.9914 -0.7787 -0.2259
   41CHL1   C18 2987   1.283   5.720   7.716  0.4060  0.3227 -0.1918
   41CHL1  H18A 2988   1.367   5.684   7.779  1.0186 -0.1229 -1.2578
   41CHL1  H18B 2989   1.189   5.684   7.764  0.3267  0.7456 -0.0276
   41CHL1  H18C 2990   1.277   5.673   7.615  0.1366  0.6340 -0.3215
   41CHL1   C12 2991   1.160   5.944   7.640 -0.3664  0.1652  0.1077
   41CHL1  H12A 2992   1.061   5.903   7.670 -0.4135 -0.1107 -0.4304
   41CHL1  H12B 2993   1.159   6.055   7.648 -0.9229  0.2651 -1.3285
   41CHL1   C11 2994   1.169   5.909   7.488 -0.9341 -0.5929 -0.1820
   41CHL1  H11A 2995   1.143   5.801   7.482 -1.1663 -0.8976  4.4693
   41CHL1  H11B 2996   1.092   5.962   7.428 -0.4015  1.1986  0.6883
   41CHL1    C9 2997   1.307   5.914   7.421 -0.0084  0.8132  0.1558
   41CHL1    H9 2998   1.319   6.018   7.386  1.4682 -0.2114 -2.5302
   41CHL1   C10 2999   1.316   5.824   7.294  0.0970  0.0446 -0.1141
   41CHL1   C19 3000   1.299   5.674   7.320  0.1506 -0.2764 -0.8294
   41CHL1  H19A 3001   1.368   5.636   7.399 -1.1161 -0.7564  0.0728
   41CHL1  H19B 3002   1.196   5.652   7.357  0.7831 -1.6223  0.2148
   41CHL1  H19C 3003   1.313   5.617   7.226  0.6749  0.3465 -1.1271
   41CHL1    C1 3004   1.203   5.872   7.194  0.6510 -0.2855  0.2326
   41CHL1   H1A 3005   1.106   5.844   7.241  0.7122 -2.6720 -0.9653
   41CHL1   H1B 3006   1.202   5.983   7.183 -0.0147 -0.1760  1.3647
   41CHL1    C2 3007   1.225   5.822   7.057 -0.1454  0.1075 -0.4235
   41CHL1   H2A 3008   1.139   5.852   6.993 -1.0925 -2.0019 -0.1897
   41CHL1   H2B 3009   1.221   5.711   7.063  1.3083 -0.0022 -1.1158
   41CHL1   C20 3010   1.231   5.881   7.988 -0.4235  0.1958  0.7679
   41CHL1   H20 3011   1.250   5.771   7.988  0.6628  0.3715 -0.1212
   41CHL1   C21 3012   1.084   5.898   7.962 -0.1376  0.0751 -0.2385
   41CHL1  H21A 3013   1.045   5.838   7.877  1.5738  0.4552 -1.3208
   41CHL1  H21B 3014   1.057   6.003   7.937 -1.0604  0.1876  1.1732
   41CHL1  H21C 3015   1.015   5.868   8.044 -1.6614 -1.3721 -1.9945
   41CHL1   C22 3016   1.265   5.938   8.129  0.1919 -0.0906 -0.3672
   41CHL1  H22A 3017   1.374   5.955   8.140  0.4043 -0.0736 -2.3429
   41CHL1  H22B 3018   1.217   6.038   8.124  1.4249  0.4972 -0.7189
   41CHL1   C23 3019   1.213   5.844   8.241 -1.0329 -0.3215 -0.0688
   41CHL1  H23A 3020   1.103   5.833   8.232 -1.0845  2.0371 -3.0800
   41CHL1  H23B 3021   1.259   5.744   8.225 -0.3965 -0.1416  0.5662
   41CHL1   C24 3022   1.260   5.892   8.373  0.6352 -0.0662 -0.4381
   41CHL1  H24A 3023   1.228   5.821   8.453  2.7176  0.6771  1.1198
   41CHL1  H24B 3024   1.371   5.892   8.383  0.6293 -1.9789 -0.0573
   41CHL1   C25 3025   1.217   6.033   8.419 -0.3746 -0.1606  0.3136
   41CHL1   H25 3026   1.249   6.099   8.335 -1.5555 -3.1200 -2.5769
   41CHL1   C26 3027   1.065   6.040   8.433 -0.5163 -0.1081 -0.1950
   41CHL1  H26A 3028   1.032   5.962   8.504  1.2630 -0.8789 -0.2014
   41CHL1  H26B 3029   1.044   6.143   8.471  0.1079 -1.2759  3.4848
   41CHL1  H26C 3030   1.011   6.016   8.339  1.6634 -2.9225 -0.7838
   41CHL1   C27 3031   1.286   6.068   8.552  0.1947 -0.2732 -0.2657
   41CHL1  H27A 3032   1.241   6.162   8.589  0.5655  0.3181 -1.2739
   41CHL1  H27B 3033   1.248   5.986   8.617 -0.0120 -0.5122 -0.6887
   41CHL1  H27C 3034   1.396   6.065   8.565  0.4178 -1.9522 -2.2915
   42CHL1    C3 3035   2.358   3.017   6.938  0.6939  0.6906 -0.0428
   42CHL1    H3 3036   2.250   3.041   6.940  0.2474 -1.2407 -0.5957
   42CHL1    O3 3037   2.399   3.002   6.799  0.1442 -0.2574 -0.4677
   42CHL1   H3' 3038   2.344   2.925   6.780 -0.5827  0.1545 -0.0421
   42CHL1    C4 3039   2.434   3.138   7.008 -0.3801 -0.3801  0.2081
   42CHL1   H4A 3040   2.542   3.115   6.990 -0.0665 -0.8239  2.5101
   42CHL1   H4B 3041   2.422   3.227   6.943  0.3253 -0.8070 -0.5273
   42CHL1    C5 3042   2.416   3.159   7.158 -0.1380 -0.4400  0.8896
   42CHL1    C6 3043   2.393   3.281   7.216 -0.4695  0.9837  0.0959
   42CHL1    H6 3044   2.377   3.367   7.150 -0.5852  1.8611  1.2591
   42CHL1    C7 3045   2.378   3.300   7.365  0.6091  0.5319  0.1541
   42CHL1   H7A 3046   2.413   3.400   7.399  0.1903  0.9831 -0.7335
   42CHL1   H7B 3047   2.271   3.304   7.394  0.2939  3.7398 -1.2546
   42CHL1    C8 3048   2.442   3.180   7.448 -0.2759  0.8688  0.1858
   42CHL1    H8 3049   2.553   3.189   7.438 -0.3088  0.0005 -1.0595
   42CHL1   C14 3050   2.401   3.188   7.594 -0.1886  0.0285 -0.5650
   42CHL1   H14 3051   2.291   3.182   7.597 -0.0419 -3.1998  0.3171
   42CHL1   C15 3052   2.441   3.317   7.676 -0.4953  0.3431 -1.8873
   42CHL1  H15A 3053   2.547   3.341   7.656  0.6077 -2.5633  0.1653
   42CHL1  H15B 3054   2.377   3.407   7.663  0.0998  1.2120  0.9644
   42CHL1   C16 3055   2.439   3.263   7.823 -0.5167  0.0530  0.1131
   42CHL1  H16A 3056   2.542   3.272   7.862 -0.3495 -0.9506 -0.0664
   42CHL1  H16B 3057   2.377   3.310   7.902  1.8106  1.3726  1.1862
   42CHL1   C17 3058   2.398   3.111   7.820 -0.5420  0.3856 -0.7314
   42CHL1   H17 3059   2.287   3.111   7.812 -0.4767 -1.4772 -2.2106
   42CHL1   C13 3060   2.439   3.065   7.682 -0.6683  0.4077 -0.2999
   42CHL1   C18 3061   2.591   3.032   7.680  0.4956 -0.2378  0.8384
   42CHL1  H18A 3062   2.605   2.932   7.727  1.6582  0.2059  1.4582
   42CHL1  H18B 3063   2.625   3.018   7.575 -2.1021  1.2708 -0.2596
   42CHL1  H18C 3064   2.646   3.106   7.741 -0.8631  0.1041  1.6768
   42CHL1   C12 3065   2.368   2.946   7.619  0.3222  0.2523 -0.2268
   42CHL1  H12A 3066   2.389   2.857   7.682 -0.3856  0.0821 -0.2350
   42CHL1  H12B 3067   2.262   2.977   7.633  0.8858  1.4759  1.5132
   42CHL1   C11 3068   2.395   2.923   7.468 -0.2486 -0.4718 -0.6835
   42CHL1  H11A 3069   2.497   2.881   7.455  0.3000  0.8509 -0.6773
   42CHL1  H11B 3070   2.331   2.838   7.435  0.1936 -1.5056  1.0595
   42CHL1    C9 3071   2.384   3.045   7.383 -0.1633 -0.8119  0.1581
   42CHL1    H9 3072   2.275   3.062   7.382 -0.3066 -1.7459  0.2302
   42CHL1   C10 3073   2.421   3.027   7.235 -0.3397  0.1115 -0.4018
   42CHL1   C19 3074   2.569   2.990   7.238  0.1591 -0.5136 -0.0811
   42CHL1  H19A 3075   2.624   3.054   7.310  0.2397 -1.6453  0.8895
   42CHL1  H19B 3076   2.574   2.882   7.265 -3.1518 -1.0248 -1.2000
   42CHL1  H19C 3077   2.616   2.996   7.138  1.4420  0.9647  0.6058
   42CHL1    C1 3078   2.342   2.918   7.164  0.3690 -0.1717 -0.5690
   42CHL1   H1A 3079   2.351   2.818   7.212 -0.6494  0.6211  1.3185
   42CHL1   H1B 3080   2.237   2.953   7.171 -0.5378 -2.7306 -0.7112
   42CHL1    C2 3081   2.376   2.898   7.017  0.4027  0.7788 -0.6081
   42CHL1   H2A 3082   2.325   2.813   6.968  1.0037 -0.1705  0.3808
   42CHL1   H2B 3083   2.482   2.863   7.014  0.1811 -0.2839  2.4310
   42CHL1   C20 3084   2.459   3.033   7.940 -0.5477  0.3637  0.5379
   42CHL1   H20 3085   2.568   3.025   7.924 -0.5572 -1.3365  1.1551
   42CHL1   C21 3086   2.409   2.889   7.954  0.1384  0.0582  0.3977
   42CHL1  H21A 3087   2.299   2.882   7.966  0.0519  1.3193  0.3757
   42CHL1  H21B 3088   2.450   2.845   8.047 -0.2572 -1.5328 -0.1695
   42CHL1  H21C 3089   2.444   2.828   7.868 -0.9670  1.9489 -1.4436
   42CHL1   C22 3090   2.439   3.105   8.084 -0.4612  0.2971 -0.7416
   42CHL1  H22A 3091   2.479   3.031   8.156  0.9133  1.1421 -0.6333
   42CHL1  H22B 3092   2.514   3.187   8.091 -1.9488  1.7996 -1.7574
   42CHL1   C23 3093   2.295   3.152   8.121  0.1251 -0.2589 -0.0113
   42CHL1  H23A 3094   2.251   3.219   8.045  0.3353 -1.9779 -1.6912
   42CHL1  H23B 3095   2.226   3.065   8.122  3.7744 -3.2976  0.5007
   42CHL1   C24 3096   2.294   3.217   8.261  0.3811 -0.0803  0.8697
   42CHL1  H24A 3097   2.355   3.143   8.317  1.5179 -1.1667 -1.6909
   42CHL1  H24B 3098   2.344   3.315   8.247  1.2249 -0.3997  1.6247
   42CHL1   C25 3099   2.161   3.208   8.342  0.1079 -0.3636 -0.3926
   42CHL1   H25 3100   2.124   3.104   8.349 -1.7634  0.2818 -0.5224
   42CHL1   C26 3101   2.205   3.247   8.484 -0.0979  0.1029 -0.2491
   42CHL1  H26A 3102   2.297   3.188   8.505 -2.5993 -3.1114  2.2129
   42CHL1  H26B 3103   2.238   3.353   8.480 -0.0552  0.1870  1.8322
   42CHL1  H26C 3104   2.133   3.225   8.566  0.7653 -0.3448  0.4074
   42CHL1   C27 3105   2.048   3.299   8.297 -0.5858  0.4610 -0.3081
   42CHL1  H27A 3106   2.005   3.268   8.199  1.6671  0.4834 -1.3386
   42CHL1  H27B 3107   2.077   3.406   8.291 -1.4869  0.6140 -2.3155
   42CHL1  H27C 3108   1.964   3.300   8.369 -0.8407  0.8831 -0.6095
   43CHL1    C3 3109   2.216   0.073   6.814 -0.0823  0.0311 -0.0316
   43CHL1    H3 3110   2.111   0.050   6.785 -0.0984  0.9718 -0.7449
   43CHL1    O3 3111   2.292   0.039   6.706 -0.3751  0.4274 -0.2969
   43CHL1   H3' 3112   2.382   0.029   6.739 -1.1085 -2.1399  1.0561
   43CHL1    C4 3113   2.237   0.223   6.840 -0.1391  0.4496 -0.3571
   43CHL1   H4A 3114   2.344   0.249   6.833  0.6201 -2.4967 -0.3279
   43CHL1   H4B 3115   2.184   0.265   6.752 -2.4161  0.9732  1.2132
   43CHL1    C5 3116   2.171   0.269   6.968 -0.0266  0.1335 -0.4611
   43CHL1    C6 3117   2.093   0.380   6.974  0.1767 -0.2593  0.4042
   43CHL1    H6 3118   2.068   0.444   6.889  1.1945 -0.0698  0.2406
   43CHL1    C7 3119   2.031   0.431   7.104  0.7809  0.7816  0.8943
   43CHL1   H7A 3120   2.043   0.542   7.106 -1.2314  1.0701 -0.7618
   43CHL1   H7B 3121   1.922   0.415   7.096  0.8588  0.3127  0.7840
   43CHL1    C8 3122   2.083   0.376   7.230 -0.1653  0.9818  0.2719
   43CHL1    H8 3123   2.178   0.427   7.259 -0.0633 -0.5270  2.7747
   43CHL1   C14 3124   1.982   0.396   7.345  0.4108 -0.0706 -0.2612
   43CHL1   H14 3125   1.891   0.336   7.321 -0.8165  1.7273 -0.1822
   43CHL1   C15 3126   1.938   0.536   7.376 -0.5252 -0.3429 -0.2223
   43CHL1  H15A 3127   2.019   0.610   7.365 -1.0083  0.2511  0.2041
   43CHL1  H15B 3128   1.852   0.573   7.316  0.4670 -1.1141 -2.1644
   43CHL1   C16 3129   1.895   0.526   7.528 -0.0702  0.3965  0.3637
   43CHL1  H16A 3130   1.956   0.592   7.594  0.2223 -1.1263  1.6499
   43CHL1  H16B 3131   1.789   0.550   7.548  0.5791  1.6567  2.4745
   43CHL1   C17 3132   1.924   0.384   7.586  0.3258 -0.3297  0.2983
   43CHL1   H17 3133   1.829   0.332   7.560 -2.1939  3.0964  2.3880
   43CHL1   C13 3134   2.034   0.337   7.477 -0.1705 -0.1605 -0.2727
   43CHL1   C18 3135   2.172   0.410   7.511 -0.2635 -0.5652  0.2912
   43CHL1  H18A 3136   2.154   0.520   7.514 -0.7544 -0.5995 -1.1421
   43CHL1  H18B 3137   2.198   0.370   7.611 -1.0615 -2.4777 -0.2506
   43CHL1  H18C 3138   2.254   0.382   7.442 -0.9911 -0.6688 -0.5528
   43CHL1   C12 3139   2.051   0.189   7.464  0.0001  0.7940 -0.3262
   43CHL1  H12A 3140   2.081   0.138   7.558 -0.6576  1.3499  0.1959
   43CHL1  H12B 3141   1.951   0.145   7.444  0.3596  0.2566 -0.9724
   43CHL1   C11 3142   2.151   0.147   7.352  0.0608 -0.0229  0.3754
   43CHL1  H11A 3143   2.253   0.180   7.381  0.9764 -2.7801  0.3877
   43CHL1  H11B 3144   2.141   0.037   7.345 -0.1977 -0.1217  2.2825
   43CHL1    C9 3145   2.110   0.223   7.215 -0.1639  0.1293 -0.1362
   43CHL1    H9 3146   2.013   0.175   7.191  1.3720 -3.9679  1.4135
   43CHL1   C10 3147   2.205   0.187   7.097 -0.3963  0.0945  0.0922
   43CHL1   C19 3148   2.353   0.203   7.139 -0.1015 -0.4141  0.2299
   43CHL1  H19A 3149   2.364   0.297   7.196 -2.7448 -0.2235  0.5096
   43CHL1  H19B 3150   2.391   0.120   7.202  1.0764 -1.7209 -2.1294
   43CHL1  H19C 3151   2.423   0.204   7.053 -2.4870  1.1881 -1.7475
   43CHL1    C1 3152   2.180   0.034   7.067 -0.0334 -0.4559 -0.0532
   43CHL1   H1A 3153   2.211  -0.030   7.153 -1.2884  0.0339  0.7939
   43CHL1   H1B 3154   2.072   0.018   7.045 -0.2013 -1.6345  1.5139
   43CHL1    C2 3155   2.255  -0.009   6.936  0.6506 -1.0496  0.7306
   43CHL1   H2A 3156   2.237  -0.117   6.920 -0.2168 -1.0911  1.9042
   43CHL1   H2B 3157   2.365   0.004   6.943  0.7265 -0.3468 -1.4585
   43CHL1   C20 3158   1.954   0.375   7.736  0.2287 -0.4683 -0.3965
   43CHL1   H20 3159   2.023   0.461   7.751 -0.5561  0.0044  0.5821
   43CHL1   C21 3160   2.021   0.250   7.791 -0.5037 -0.5244 -0.6186
   43CHL1  H21A 3161   1.956   0.160   7.776 -1.2615  0.3843 -3.0676
   43CHL1  H21B 3162   2.042   0.266   7.899 -0.3885  1.5508 -0.9367
   43CHL1  H21C 3163   2.115   0.219   7.740 -0.5216 -0.1704 -0.8698
   43CHL1   C22 3164   1.823   0.412   7.811  0.0356 -0.2354  0.3715
   43CHL1  H22A 3165   1.778   0.502   7.763 -1.7501 -0.9493  0.6516
   43CHL1  H22B 3166   1.749   0.330   7.796  1.7079 -1.9779  1.5023
   43CHL1   C23 3167   1.836   0.429   7.963 -0.3328  0.1548  0.0505
   43CHL1  H23A 3168   1.733   0.455   7.997  0.4578  1.7268  1.2755
   43CHL1  H23B 3169   1.866   0.329   8.002  1.2021  0.6386  0.1163
   43CHL1   C24 3170   1.932   0.536   8.006 -0.4219 -0.0658  0.0482
   43CHL1  H24A 3171   2.038   0.507   7.990 -0.5611 -0.5769  0.0676
   43CHL1  H24B 3172   1.913   0.626   7.943 -0.6522  0.8470  1.3901
   43CHL1   C25 3173   1.911   0.579   8.155  0.3428  0.4808 -0.6641
   43CHL1   H25 3174   1.809   0.618   8.172  0.5775  0.7598  0.1455
   43CHL1   C26 3175   1.937   0.453   8.246 -0.0016  0.2211 -0.5455
   43CHL1  H26A 3176   2.042   0.417   8.242 -0.8866 -2.5213 -0.0106
   43CHL1  H26B 3177   1.919   0.487   8.350 -2.7231  0.7142 -1.1349
   43CHL1  H26C 3178   1.871   0.367   8.225  0.6264 -0.1161 -1.1662
   43CHL1   C27 3179   2.011   0.687   8.204 -0.0812  0.3489 -0.3250
   43CHL1  H27A 3180   2.118   0.658   8.192 -0.1028  0.0555  0.1901
   43CHL1  H27B 3181   2.000   0.787   8.156  0.6671 -0.4420 -2.2035
   43CHL1  H27C 3182   1.998   0.694   8.314 -2.9827  1.2871 -0.6968
   44CHL1    C3 3183   2.225   5.605   6.775 -0.3396  0.4125  0.4524
   44CHL1    H3 3184   2.117   5.625   6.789 -0.1836  0.0657  2.2627
   44CHL1    O3 3185   2.261   5.608   6.639 -0.1938 -0.4689  0.2587
   44CHL1   H3' 3186   2.354   5.586   6.635  0.0729  0.9199 -2.4679
   44CHL1    C4 3187   2.301   5.719   6.839 -0.6938  0.4739 -0.1739
   44CHL1   H4A 3188   2.411   5.705   6.829 -0.3118  1.6122  2.2181
   44CHL1   H4B 3189   2.274   5.813   6.786  1.6307  0.2514 -1.8219
   44CHL1    C5 3190   2.267   5.722   6.990 -0.0476  0.1769  0.1948
   44CHL1    C6 3191   2.195   5.822   7.040  0.2479 -0.2098 -0.4999
   44CHL1    H6 3192   2.166   5.905   6.975  0.3154  1.0079  1.0075
   44CHL1    C7 3193   2.184   5.844   7.190  0.2991  0.7232 -0.3435
   44CHL1   H7A 3194   2.228   5.940   7.225 -1.0997  0.5159  2.1208
   44CHL1   H7B 3195   2.075   5.836   7.210  0.3160 -0.4803 -0.7067
   44CHL1    C8 3196   2.252   5.735   7.275  0.3774 -0.1517  0.0101
   44CHL1    H8 3197   2.356   5.774   7.279 -0.1672  1.4156 -0.7355
   44CHL1   C14 3198   2.204   5.732   7.417 -0.0500 -0.1502  0.4677
   44CHL1   H14 3199   2.097   5.704   7.420  0.2984 -1.3734  1.7444
   44CHL1   C15 3200   2.201   5.866   7.492 -0.0066 -0.3332 -0.8036
   44CHL1  H15A 3201   2.293   5.921   7.466  0.3568 -1.8537 -2.8807
   44CHL1  H15B 3202   2.113   5.928   7.463  1.1197  1.5601 -0.2036
   44CHL1   C16 3203   2.191   5.829   7.644  0.6736 -0.2333 -0.6816
   44CHL1  H16A 3204   2.273   5.876   7.702 -1.1964 -0.0102  1.8712
   44CHL1  H16B 3205   2.092   5.864   7.682  0.8634 -3.0055  2.5850
   44CHL1   C17 3206   2.215   5.674   7.643  0.2336  0.4713 -0.3915
   44CHL1   H17 3207   2.111   5.635   7.641  1.0562 -1.7428 -0.7342
   44CHL1   C13 3208   2.275   5.628   7.502 -0.1628  0.0104 -0.1661
   44CHL1   C18 3209   2.430   5.651   7.509 -0.3840 -0.1911 -0.1173
   44CHL1  H18A 3210   2.482   5.658   7.411  1.7705  3.0028  1.1391
   44CHL1  H18B 3211   2.455   5.750   7.552  0.6501  0.1008 -1.3696
   44CHL1  H18C 3212   2.484   5.572   7.565 -0.8551  0.1397  0.8104
   44CHL1   C12 3213   2.245   5.492   7.446 -0.6174 -0.2929 -0.0919
   44CHL1  H12A 3214   2.286   5.405   7.501 -1.8592  1.4462  3.7447
   44CHL1  H12B 3215   2.137   5.472   7.463 -0.3163 -2.3149 -0.4388
   44CHL1   C11 3216   2.293   5.470   7.296  0.4032 -0.0513 -0.4842
   44CHL1  H11A 3217   2.403   5.464   7.309  0.3071 -1.7466 -0.3642
   44CHL1  H11B 3218   2.248   5.380   7.249 -0.6883 -0.0749  0.5871
   44CHL1    C9 3219   2.244   5.592   7.209  0.3233 -0.1324 -0.3944
   44CHL1    H9 3220   2.136   5.568   7.201 -0.2385  2.2590 -0.4924
   44CHL1   C10 3221   2.302   5.595   7.071  0.0241 -0.1225 -0.1126
   44CHL1   C19 3222   2.461   5.594   7.091  0.7091  0.4146 -0.7011
   44CHL1  H19A 3223   2.482   5.651   7.185 -1.7279  1.9385 -1.0331
   44CHL1  H19B 3224   2.496   5.489   7.104  1.2204  0.5449 -1.0121
   44CHL1  H19C 3225   2.508   5.642   7.003  0.1253  1.2380 -0.5699
   44CHL1    C1 3226   2.249   5.471   6.994  0.3809  0.1899  0.0395
   44CHL1   H1A 3227   2.297   5.378   7.031 -2.6112 -0.8525  1.4279
   44CHL1   H1B 3228   2.141   5.460   7.017  0.2266  1.4491 -0.0701
   44CHL1    C2 3229   2.277   5.478   6.842 -0.0611  0.1193 -0.4268
   44CHL1   H2A 3230   2.213   5.401   6.795  1.2175  0.3747 -2.6392
   44CHL1   H2B 3231   2.383   5.454   6.819  0.5540 -0.4167  2.7308
   44CHL1   C20 3232   2.276   5.619   7.776  0.2562  0.2911 -0.0773
   44CHL1   H20 3233   2.376   5.666   7.775  0.9705 -1.1906 -2.2530
   44CHL1   C21 3234   2.286   5.469   7.775 -0.3602  0.2701 -0.3417
   44CHL1  H21A 3235   2.186   5.424   7.756 -0.0377 -1.0430  0.9517
   44CHL1  H21B 3236   2.322   5.439   7.876  1.6970  3.6187 -0.0080
   44CHL1  H21C 3237   2.366   5.448   7.700 -0.8175  1.1069 -1.0642
   44CHL1   C22 3238   2.194   5.669   7.901  0.3666 -0.4912 -0.1687
   44CHL1  H22A 3239   2.160   5.774   7.888  0.1711 -0.3116  1.7145
   44CHL1  H22B 3240   2.099   5.612   7.911 -0.9653  1.7296  0.1913
   44CHL1   C23 3241   2.277   5.656   8.035  0.6143 -0.2727 -0.3050
   44CHL1  H23A 3242   2.279   5.550   8.069 -1.5957 -1.3244 -3.1847
   44CHL1  H23B 3243   2.380   5.679   8.001  0.4508  1.9408  0.6367
   44CHL1   C24 3244   2.228   5.739   8.151  0.0503 -0.0503  0.0169
   44CHL1  H24A 3245   2.281   5.834   8.130  0.1888 -0.0245  0.4774
   44CHL1  H24B 3246   2.118   5.749   8.139  0.1654  0.6656 -0.4499
   44CHL1   C25 3247   2.269   5.686   8.278 -0.1637 -0.4833 -0.3817
   44CHL1   H25 3248   2.230   5.585   8.301  2.2755 -0.8185  2.7174
   44CHL1   C26 3249   2.423   5.668   8.283 -0.3301  0.4771 -0.6575
   44CHL1  H26A 3250   2.452   5.633   8.385 -2.2502 -0.9882 -0.5871
   44CHL1  H26B 3251   2.461   5.585   8.219 -0.2317 -0.3467  0.4494
   44CHL1  H26C 3252   2.473   5.763   8.255  3.5940 -0.7077  1.8536
   44CHL1   C27 3253   2.230   5.784   8.394 -0.7286  0.0894 -0.4026
   44CHL1  H27A 3254   2.265   5.749   8.494 -0.7309 -0.4022 -0.5709
   44CHL1  H27B 3255   2.274   5.885   8.381  2.3245 -1.0365  0.7458
   44CHL1  H27C 3256   2.120   5.788   8.401 -0.6200 -0.0757  1.8762
   45CHL1    C3 3257   3.087   3.873   6.767  0.1188  0.1817  0.2988
   45CHL1    H3 3258   2.976   3.869   6.752  0.3088 -1.4854 -0.8025
   45CHL1    O3 3259   3.141   3.850   6.643 -0.2524 -0.3562 -0.1406
   45CHL1   H3' 3260   3.234   3.866   6.655 -0.3934  0.2151  0.1996
   45CHL1    C4 3261   3.115   4.010   6.834 -0.3506 -0.2748  0.2405
   45CHL1   H4A 3262   3.223   4.019   6.860  0.2436 -0.6803 -1.9403
   45CHL1   H4B 3263   3.089   4.093   6.765 -1.7394 -1.6310 -0.9363
   45CHL1    C5 3264   3.051   4.030   6.970  0.0920 -0.6576  0.2158
   45CHL1    C6 3265   2.969   4.130   6.998  0.0167  0.5625  0.6070
   45CHL1    H6 3266   2.962   4.205   6.917 -2.0068  0.7687  0.9317
   45CHL1    C7 3267   2.898   4.153   7.131 -0.0571  0.1173  0.0519
   45CHL1   H7A 3268   2.905   4.260   7.158  0.0568 -0.1815  1.2244
   45CHL1   H7B 3269   2.788   4.147   7.143 -0.0200  1.3968  1.1516
   45CHL1    C8 3270   2.953   4.064   7.253 -0.0888  0.3154  0.2780
   45CHL1    H8 3271   3.051   4.097   7.294 -0.0804 -1.6158  1.8820
   45CHL1   C14 3272   2.866   4.061   7.374  0.1327 -0.3448 -0.1040
   45CHL1   H14 3273   2.773   4.011   7.340 -0.9373  1.3031  0.3461
   45CHL1   C15 3274   2.814   4.194   7.439  0.5148  0.0177 -0.3836
   45CHL1  H15A 3275   2.896   4.266   7.462  0.2659 -0.3836  1.9045
   45CHL1  H15B 3276   2.727   4.245   7.392  0.1594 -0.8343 -0.6686
   45CHL1   C16 3277   2.766   4.150   7.577  0.0134  0.3428 -0.2239
   45CHL1  H16A 3278   2.838   4.196   7.648 -0.0196 -0.4323  0.3083
   45CHL1  H16B 3279   2.663   4.184   7.601  0.1285  0.4669  0.1009
   45CHL1   C17 3280   2.784   4.000   7.594 -0.0625 -0.5206  0.4337
   45CHL1   H17 3281   2.693   3.966   7.541  0.0470 -0.2258  0.0467
   45CHL1   C13 3282   2.906   3.971   7.494 -0.4624 -0.2883  0.1127
   45CHL1   C18 3283   3.040   4.024   7.543 -0.6394  0.0568 -0.1713
   45CHL1  H18A 3284   3.053   3.968   7.638  0.7934 -1.2358 -1.0993
   45CHL1  H18B 3285   3.124   4.015   7.471  1.2752  2.8903  1.6138
   45CHL1  H18C 3286   3.037   4.129   7.579 -0.9406  0.8372 -2.3631
   45CHL1   C12 3287   2.906   3.833   7.437  0.2630 -0.1564 -0.6083
   45CHL1  H12A 3288   2.911   3.755   7.516 -0.0287 -0.3474 -0.7793
   45CHL1  H12B 3289   2.803   3.811   7.403  0.0987 -0.8345  0.2884
   45CHL1   C11 3290   2.994   3.816   7.312  0.1453 -0.7980  0.8624
   45CHL1  H11A 3291   3.101   3.828   7.339  0.3396  0.0249 -0.2396
   45CHL1  H11B 3292   2.976   3.716   7.268 -1.1606  0.2323 -1.0210
   45CHL1    C9 3293   2.969   3.927   7.196 -0.6241 -0.1274  0.5127
   45CHL1    H9 3294   2.871   3.899   7.153  0.4158  0.3977 -2.2872
   45CHL1   C10 3295   3.065   3.917   7.074  0.1627 -0.3524  0.0254
   45CHL1   C19 3296   3.205   3.918   7.140  0.2025 -0.0171 -0.2270
   45CHL1  H19A 3297   3.287   3.925   7.065  0.7485 -3.3382 -0.0265
   45CHL1  H19B 3298   3.216   3.992   7.222  0.6508 -0.8352  0.4547
   45CHL1  H19C 3299   3.238   3.821   7.183 -4.8042 -0.6547  2.6341
   45CHL1    C1 3300   3.032   3.786   7.002 -0.2119 -0.0917 -0.4434
   45CHL1   H1A 3301   3.059   3.702   7.070  0.9151  1.5713  1.2133
   45CHL1   H1B 3302   2.928   3.779   6.962 -0.5575 -2.1381  0.7336
   45CHL1    C2 3303   3.116   3.760   6.874  0.5299 -0.4165  0.0530
   45CHL1   H2A 3304   3.093   3.657   6.839 -2.2342  0.9327 -2.3257
   45CHL1   H2B 3305   3.224   3.756   6.898  0.3916  0.8873  0.9504
   45CHL1   C20 3306   2.793   3.938   7.732 -0.8958 -1.2040  0.4694
   45CHL1   H20 3307   2.837   3.836   7.728 -0.0966 -0.8429 -0.3478
   45CHL1   C21 3308   2.644   3.926   7.786  0.1839 -0.3653  0.0355
   45CHL1  H21A 3309   2.628   3.866   7.878  0.4507  0.8962  0.9225
   45CHL1  H21B 3310   2.576   3.882   7.710  2.1362 -1.1580 -1.2745
   45CHL1  H21C 3311   2.627   4.032   7.814  2.7744  0.0418  0.1731
   45CHL1   C22 3312   2.879   4.022   7.829  0.2147 -0.0011  0.4383
   45CHL1  H22A 3313   2.972   4.057   7.780 -0.9661  0.9860 -1.1101
   45CHL1  H22B 3314   2.825   4.117   7.847 -1.2633 -0.3350 -2.0486
   45CHL1   C23 3315   2.926   3.958   7.959  0.1782 -0.1259 -0.8389
   45CHL1  H23A 3316   2.840   3.915   8.015  3.4074 -0.8965  3.8102
   45CHL1  H23B 3317   2.992   3.872   7.935 -0.0356 -1.5371  3.2495
   45CHL1   C24 3318   3.015   4.047   8.050 -0.1260 -0.0262  0.3053
   45CHL1  H24A 3319   3.098   4.091   7.991 -0.8365  0.0415 -0.6491
   45CHL1  H24B 3320   2.936   4.121   8.075  0.5201  0.7067  0.1876
   45CHL1   C25 3321   3.080   3.968   8.170 -0.1298  0.0972  0.0935
   45CHL1   H25 3322   3.001   3.904   8.214 -1.2490  1.1408 -0.3464
   45CHL1   C26 3323   3.202   3.887   8.125  0.0175 -0.4478  0.7032
   45CHL1  H26A 3324   3.278   3.942   8.067 -1.0893  0.3432 -0.0185
   45CHL1  H26B 3325   3.239   3.844   8.220  0.9147 -0.1739  0.4804
   45CHL1  H26C 3326   3.171   3.796   8.068  2.5441 -1.2437  0.5518
   45CHL1   C27 3327   3.128   4.073   8.277 -0.2204  0.1029  0.0468
   45CHL1  H27A 3328   3.178   4.015   8.358 -1.7411 -0.6956  0.4522
   45CHL1  H27B 3329   3.194   4.154   8.240  0.9192 -1.3946 -1.2735
   45CHL1  H27C 3330   3.038   4.127   8.315 -0.2343  0.3268 -0.3110
   46CHL1    C3 3331   3.387   5.123   6.949  0.1149 -0.1954  0.4289
   46CHL1    H3 3332   3.451   5.037   6.976 -0.3454 -0.5041  0.5466
   46CHL1    O3 3333   3.401   5.137   6.806 -0.5090  0.7993 -0.2114
   46CHL1   H3' 3334   3.391   5.050   6.767  1.3077  0.6855 -0.4899
   46CHL1    C4 3335   3.241   5.072   6.984 -0.0670  0.9982 -0.1939
   46CHL1   H4A 3336   3.179   5.150   6.934 -0.1161 -0.0081 -1.7244
   46CHL1   H4B 3337   3.216   4.976   6.936  0.2394  0.1513  1.3145
   46CHL1    C5 3338   3.207   5.063   7.135  0.3815  0.8547 -0.0205
   46CHL1    C6 3339   3.149   4.949   7.178 -0.2523 -0.2772 -0.2408
   46CHL1    H6 3340   3.139   4.866   7.107  1.2267  0.1918 -1.0017
   46CHL1    C7 3341   3.118   4.918   7.326  0.0265  0.2251 -0.1917
   46CHL1   H7A 3342   3.015   4.876   7.337  0.1301 -0.8748 -2.9969
   46CHL1   H7B 3343   3.187   4.841   7.366  0.0696 -0.2115 -1.0946
   46CHL1    C8 3344   3.134   5.051   7.416  0.0489 -0.2964 -0.0501
   46CHL1    H8 3345   3.040   5.110   7.405  0.1260 -0.6076 -2.7759
   46CHL1   C14 3346   3.163   5.010   7.559  0.6004  0.3299  0.0632
   46CHL1   H14 3347   3.253   4.945   7.564  0.3065 -0.0928 -0.1201
   46CHL1   C15 3348   3.047   4.927   7.621  0.2109 -0.2325 -0.3732
   46CHL1  H15A 3349   2.950   4.975   7.598 -0.2853  0.0487  2.1501
   46CHL1  H15B 3350   3.052   4.819   7.596  1.0423 -1.1234  3.3872
   46CHL1   C16 3351   3.078   4.928   7.771  0.3576  0.1687 -0.1267
   46CHL1  H16A 3352   2.983   4.961   7.818  0.3707  0.8762 -0.5930
   46CHL1  H16B 3353   3.117   4.830   7.806 -1.2739 -0.0174  1.2517
   46CHL1   C17 3354   3.185   5.034   7.797 -0.2282  0.1917 -0.0336
   46CHL1   H17 3355   3.289   4.994   7.798 -0.8000 -1.3616 -0.6798
   46CHL1   C13 3356   3.192   5.120   7.668 -0.4516  0.3105  0.0339
   46CHL1   C18 3357   3.073   5.216   7.675  0.1891 -0.6679  0.6031
   46CHL1  H18A 3358   3.040   5.256   7.577 -1.5819 -0.4935  1.2627
   46CHL1  H18B 3359   2.989   5.160   7.721 -1.7966  1.5795 -0.2066
   46CHL1  H18C 3360   3.114   5.304   7.730 -1.8150  0.5378  0.2126
   46CHL1   C12 3361   3.325   5.189   7.622 -0.1540 -0.2623  0.3993
   46CHL1  H12A 3362   3.343   5.276   7.690  2.5995 -0.9696  0.6134
   46CHL1  H12B 3363   3.412   5.121   7.623 -0.7338 -1.0709 -2.0868
   46CHL1   C11 3364   3.301   5.243   7.475  0.4647  0.4300 -0.3160
   46CHL1  H11A 3365   3.211   5.307   7.481  0.1186  0.0095 -0.9955
   46CHL1  H11B 3366   3.396   5.288   7.440  2.0012 -1.1833  1.6107
   46CHL1    C9 3367   3.258   5.134   7.375 -0.0197  0.2375  0.6778
   46CHL1    H9 3368   3.342   5.062   7.385  1.2289  1.8482  2.2378
   46CHL1   C10 3369   3.258   5.173   7.225  0.1636  0.6965 -0.4815
   46CHL1   C19 3370   3.160   5.286   7.210  0.1501  0.1757 -0.7543
   46CHL1  H19A 3371   3.215   5.366   7.263  0.5886 -0.8950  0.4243
   46CHL1  H19B 3372   3.143   5.313   7.103  1.6154  0.6132 -0.8944
   46CHL1  H19C 3373   3.068   5.273   7.270 -0.4992  1.6751 -1.3964
   46CHL1    C1 3374   3.402   5.214   7.180  0.1870 -0.5455 -0.3230
   46CHL1   H1A 3375   3.420   5.312   7.230 -1.1006 -0.1115 -0.6771
   46CHL1   H1B 3376   3.478   5.140   7.211 -0.4016  0.1838  3.0214
   46CHL1    C2 3377   3.423   5.245   7.031  0.1740 -0.1814  0.4923
   46CHL1   H2A 3378   3.531   5.266   7.016  0.2061 -1.7560 -1.6896
   46CHL1   H2B 3379   3.357   5.329   7.001  1.0534 -0.2763 -1.7952
   46CHL1   C20 3380   3.173   5.107   7.932  0.8676  0.1175 -0.6173
   46CHL1   H20 3381   3.079   5.166   7.935  0.9833  0.2049  2.1573
   46CHL1   C21 3382   3.283   5.208   7.956 -0.4696  0.0187 -0.1442
   46CHL1  H21A 3383   3.380   5.158   7.937 -0.4451  0.5546 -1.5276
   46CHL1  H21B 3384   3.277   5.247   8.060  0.1514  0.0387 -0.1142
   46CHL1  H21C 3385   3.275   5.288   7.879  0.9560  0.0811 -0.2370
   46CHL1   C22 3386   3.170   5.011   8.053  0.4201 -0.2062  0.0168
   46CHL1  H22A 3387   3.134   4.910   8.027  0.0051  0.2316 -1.1551
   46CHL1  H22B 3388   3.276   5.003   8.085  1.0481  3.1056 -1.0142
   46CHL1   C23 3389   3.079   5.050   8.175 -0.2550 -0.4513  0.3346
   46CHL1  H23A 3390   3.092   5.160   8.186  1.3776 -0.6527  0.6460
   46CHL1  H23B 3391   2.972   5.041   8.147  0.6813 -1.3543 -3.2358
   46CHL1   C24 3392   3.103   4.966   8.298  0.1969  0.0264  0.3631
   46CHL1  H24A 3393   3.020   4.962   8.371 -0.9816 -1.9625 -1.0211
   46CHL1  H24B 3394   3.101   4.859   8.267 -0.0683  0.5445 -1.4551
   46CHL1   C25 3395   3.238   4.986   8.380 -0.1301 -0.0101 -0.5937
   46CHL1   H25 3396   3.330   4.994   8.319  0.3000 -1.7915 -0.2276
   46CHL1   C26 3397   3.219   5.103   8.486 -0.5934 -0.0755 -0.2148
   46CHL1  H26A 3398   3.168   5.073   8.580 -2.6851  1.3375 -0.8731
   46CHL1  H26B 3399   3.321   5.131   8.520  0.0168 -0.5030 -1.6822
   46CHL1  H26C 3400   3.177   5.194   8.439  0.4969 -0.7477 -2.5746
   46CHL1   C27 3401   3.266   4.855   8.472  1.1107 -0.5055 -0.6186
   46CHL1  H27A 3402   3.279   4.766   8.408  0.9877 -0.9402 -0.0447
   46CHL1  H27B 3403   3.365   4.868   8.521  0.4162 -3.7379  1.8202
   46CHL1  H27C 3404   3.186   4.851   8.550  0.7118 -0.1784 -1.0068
   47CHL1    C3 3405   2.298   5.029   6.670  0.1943 -0.5148 -0.1518
   47CHL1    H3 3406   2.259   5.131   6.647 -1.4724 -0.6062  2.0465
   47CHL1    O3 3407   2.273   4.945   6.562 -0.0488  0.1450 -0.1472
   47CHL1   H3' 3408   2.334   4.967   6.492  1.4070 -0.2125  0.9838
   47CHL1    C4 3409   2.448   5.043   6.692  0.5003  0.4121 -0.1290
   47CHL1   H4A 3410   2.505   4.950   6.667  1.3568  0.4646  1.5411
   47CHL1   H4B 3411   2.480   5.111   6.611 -0.2407  1.6593  0.6153
   47CHL1    C5 3412   2.495   5.085   6.833 -0.0604  0.1814 -0.0209
   47CHL1    C6 3413   2.588   5.180   6.847 -0.0232  0.0337 -0.4556
   47CHL1    H6 3414   2.622   5.227   6.753 -0.6851  0.9593 -0.2502
   47CHL1    C7 3415   2.642   5.229   6.979 -0.9578 -0.4455 -0.2098
   47CHL1   H7A 3416   2.753   5.241   6.978 -1.0877  0.9036 -0.9173
   47CHL1   H7B 3417   2.609   5.330   7.013  2.5201 -0.1621  2.6376
   47CHL1    C8 3418   2.616   5.129   7.101  0.2687 -0.5034  0.0805
   47CHL1    H8 3419   2.690   5.047   7.095  0.0207 -1.0032  3.2227
   47CHL1   C14 3420   2.633   5.202   7.236 -0.3734  0.1989  0.8572
   47CHL1   H14 3421   2.559   5.284   7.229  0.5930  1.0279  0.1489
   47CHL1   C15 3422   2.764   5.268   7.268  0.3487  0.0727 -0.1263
   47CHL1  H15A 3423   2.851   5.205   7.239 -0.1525 -1.1016  0.8692
   47CHL1  H15B 3424   2.768   5.369   7.222  0.8554  0.3405  0.4971
   47CHL1   C16 3425   2.762   5.287   7.419 -0.3954  0.0070  0.1996
   47CHL1  H16A 3426   2.845   5.246   7.480 -0.5375 -0.9135 -0.2144
   47CHL1  H16B 3427   2.756   5.395   7.446 -2.6340  0.1554 -0.7719
   47CHL1   C17 3428   2.632   5.223   7.469 -0.2838  0.5388 -0.4839
   47CHL1   H17 3429   2.564   5.310   7.458  0.1332  0.9216 -0.0381
   47CHL1   C13 3430   2.603   5.114   7.358  0.4306  0.9581  0.6892
   47CHL1   C18 3431   2.695   4.990   7.374 -0.9150 -0.4448 -0.1542
   47CHL1  H18A 3432   2.654   4.931   7.459 -3.7427  2.5359  0.6608
   47CHL1  H18B 3433   2.710   4.926   7.285  1.1534 -2.3595  1.4892
   47CHL1  H18C 3434   2.799   5.025   7.389 -0.9311 -0.7993  0.8164
   47CHL1   C12 3435   2.451   5.071   7.349 -0.4356 -0.4523  0.9387
   47CHL1  H12A 3436   2.426   4.991   7.422 -1.5269 -1.7293 -0.7956
   47CHL1  H12B 3437   2.382   5.157   7.344  0.3251  0.3154  3.0786
   47CHL1   C11 3438   2.429   4.991   7.214  0.8181 -0.3031  0.1448
   47CHL1  H11A 3439   2.487   4.896   7.216  0.4980 -0.5622 -1.8809
   47CHL1  H11B 3440   2.321   4.969   7.212  0.9888 -1.1080 -0.8903
   47CHL1    C9 3441   2.466   5.078   7.092 -0.1648  0.5241 -0.3873
   47CHL1    H9 3442   2.404   5.169   7.109 -2.6988 -1.3738  0.7288
   47CHL1   C10 3443   2.426   5.024   6.955 -0.1957 -0.0994  0.1256
   47CHL1   C19 3444   2.472   4.875   6.969  0.0269  0.0003  0.2838
   47CHL1  H19A 3445   2.578   4.866   6.999 -0.3844  3.0580  2.9561
   47CHL1  H19B 3446   2.402   4.826   7.040  0.2259  2.7118  2.4644
   47CHL1  H19C 3447   2.458   4.825   6.871  0.2462 -2.3730  1.4302
   47CHL1    C1 3448   2.274   5.028   6.932 -0.3713 -1.0421 -0.6891
   47CHL1   H1A 3449   2.225   4.979   7.019  0.5143 -1.1838 -0.2609
   47CHL1   H1B 3450   2.233   5.131   6.921 -0.5496 -1.3785 -3.4903
   47CHL1    C2 3451   2.229   4.969   6.800  0.0715 -0.5295  0.2576
   47CHL1   H2A 3452   2.119   4.978   6.795  0.1820  1.8425  1.4428
   47CHL1   H2B 3453   2.250   4.860   6.799  1.2546 -0.3359  1.6348
   47CHL1   C20 3454   2.649   5.174   7.618  0.9201  0.9418  0.2631
   47CHL1   H20 3455   2.727   5.095   7.623 -1.8491 -1.8708  0.0508
   47CHL1   C21 3456   2.520   5.114   7.681  0.3581  0.1000 -0.1728
   47CHL1  H21A 3457   2.535   5.076   7.784 -0.4565  2.4052  0.8358
   47CHL1  H21B 3458   2.478   5.041   7.609 -0.0884  2.6603 -2.6111
   47CHL1  H21C 3459   2.432   5.183   7.685  0.0656 -0.4087  3.2965
   47CHL1   C22 3460   2.698   5.294   7.704  0.7296  0.7501 -0.2613
   47CHL1  H22A 3461   2.781   5.349   7.656  4.0813 -2.3967  1.6445
   47CHL1  H22B 3462   2.613   5.365   7.713 -0.2733 -0.3423 -0.9765
   47CHL1   C23 3463   2.745   5.250   7.844 -0.1184  0.2166 -0.0364
   47CHL1  H23A 3464   2.667   5.187   7.892 -1.9011  1.9659 -0.5493
   47CHL1  H23B 3465   2.823   5.174   7.824 -0.8293 -0.3242 -0.7621
   47CHL1   C24 3466   2.808   5.352   7.928 -0.2539 -0.3819 -0.5026
   47CHL1  H24A 3467   2.912   5.372   7.896 -0.5693  2.7517  0.2225
   47CHL1  H24B 3468   2.755   5.450   7.930 -0.6855 -0.6289  1.8789
   47CHL1   C25 3469   2.806   5.318   8.077  0.9510  0.0585  0.2485
   47CHL1   H25 3470   2.855   5.219   8.082  2.6146  0.8347 -0.4297
   47CHL1   C26 3471   2.899   5.421   8.153  0.2418 -0.3908  0.0187
   47CHL1  H26A 3472   2.913   5.377   8.254  0.5675 -0.9963 -0.2812
   47CHL1  H26B 3473   2.985   5.458   8.093 -0.2707  0.8669  0.0560
   47CHL1  H26C 3474   2.832   5.507   8.173  1.9904  0.9071  0.4741
   47CHL1   C27 3475   2.669   5.333   8.141  0.6556 -0.3677  0.5471
   47CHL1  H27A 3476   2.614   5.237   8.128  1.8612 -1.2806  2.0583
   47CHL1  H27B 3477   2.678   5.343   8.251  0.1269 -0.0595  0.5623
   47CHL1  H27C 3478   2.616   5.424   8.106 -0.7304 -1.7738 -1.1171
   48CHL1    C3 3479   6.163   0.312   6.195  0.0497 -0.3184  0.0906
   48CHL1    H3 3480   6.220   0.218   6.210 -0.9440 -0.9198  0.1293
   48CHL1    O3 3481   6.178   0.336   6.053 -0.2276  0.0767 -0.1702
   48CHL1   H3' 3482   6.205   0.429   6.049  0.9091 -0.2819 -1.0488
   48CHL1    C4 3483   6.013   0.304   6.234  0.3401 -0.1863  0.1701
   48CHL1   H4A 3484   5.963   0.398   6.201  0.4787 -0.3415 -0.4977
   48CHL1   H4B 3485   5.957   0.225   6.179  1.1450  0.1099 -1.0978
   48CHL1    C5 3486   6.009   0.291   6.386 -0.4876 -0.0579 -0.8099
   48CHL1    C6 3487   5.951   0.191   6.460  0.3502  0.5453 -0.4529
   48CHL1    H6 3488   5.901   0.108   6.406 -1.3764  1.3615 -0.1455
   48CHL1    C7 3489   5.946   0.174   6.605  0.1985 -0.3304  0.1218
   48CHL1   H7A 3490   5.850   0.128   6.635  0.2662 -1.3787 -1.2160
   48CHL1   H7B 3491   6.033   0.109   6.625  0.9183  0.4596 -0.3917
   48CHL1    C8 3492   5.970   0.312   6.672  0.1871  0.1844  0.0334
   48CHL1    H8 3493   5.884   0.379   6.649  0.1025  0.2504  0.5193
   48CHL1   C14 3494   5.986   0.284   6.823  0.5352 -1.1866  0.3516
   48CHL1   H14 3495   6.076   0.220   6.834  1.2334 -0.2483  0.1427
   48CHL1   C15 3496   5.876   0.210   6.892  0.5040  0.1609  0.1669
   48CHL1  H15A 3497   5.776   0.241   6.856  0.5221 -0.3761 -0.3727
   48CHL1  H15B 3498   5.875   0.100   6.873  0.6144  0.2556 -0.4150
   48CHL1   C16 3499   5.884   0.246   7.036 -0.0820 -0.2248 -0.4402
   48CHL1  H16A 3500   5.782   0.286   7.054  0.5318  0.7439  0.9759
   48CHL1  H16B 3501   5.903   0.156   7.098  1.4935  0.2142 -0.2603
   48CHL1   C17 3502   5.992   0.358   7.047 -0.0887 -0.0867  0.0304
   48CHL1   H17 3503   6.074   0.284   7.062  0.9650  0.2627 -3.5455
   48CHL1   C13 3504   6.009   0.411   6.903  0.0367  0.3596 -0.6188
   48CHL1   C18 3505   5.898   0.519   6.884  0.1488  0.3931 -0.1154
   48CHL1  H18A 3506   5.792   0.487   6.899  0.2076 -0.3778 -1.2710
   48CHL1  H18B 3507   5.920   0.598   6.959  1.7601  0.6120 -0.7881
   48CHL1  H18C 3508   5.905   0.580   6.792 -1.7017  1.7018  0.5814
   48CHL1   C12 3509   6.148   0.469   6.858  0.0862 -0.0428 -0.2767
   48CHL1  H12A 3510   6.179   0.560   6.913 -3.3292  1.2046 -0.2719
   48CHL1  H12B 3511   6.222   0.387   6.866 -1.3185 -1.1334  2.3099
   48CHL1   C11 3512   6.149   0.494   6.707  0.3787 -0.1312  0.1862
   48CHL1  H11A 3513   6.103   0.593   6.686 -0.7262 -0.4740  0.9525
   48CHL1  H11B 3514   6.259   0.503   6.698  0.3204  0.8116  0.3555
   48CHL1    C9 3515   6.092   0.381   6.617 -0.6248 -0.1527 -0.7984
   48CHL1    H9 3516   6.171   0.305   6.634 -1.8754 -0.8190  2.3211
   48CHL1   C10 3517   6.079   0.402   6.466  0.5547  0.4947 -0.7167
   48CHL1   C19 3518   5.993   0.528   6.443  0.2388  1.0447  0.1637
   48CHL1  H19A 3519   5.893   0.531   6.493 -0.6671 -0.1256 -1.5489
   48CHL1  H19B 3520   6.053   0.611   6.486 -0.9443  2.0082 -0.0112
   48CHL1  H19C 3521   5.987   0.538   6.333  4.6468  0.3791 -0.2306
   48CHL1    C1 3522   6.221   0.425   6.418 -0.1310 -0.6634 -0.6342
   48CHL1   H1A 3523   6.256   0.523   6.455  2.1871 -1.0902 -1.5944
   48CHL1   H1B 3524   6.285   0.352   6.472  0.6018  0.1646 -0.3813
   48CHL1    C2 3525   6.228   0.433   6.264  0.4054  0.7775  0.5026
   48CHL1   H2A 3526   6.333   0.456   6.236 -0.0918 -0.2730 -2.3444
   48CHL1   H2B 3527   6.172   0.522   6.231  0.4585 -0.0310 -1.8367
   48CHL1   C20 3528   5.988   0.452   7.173  0.0987  0.3422 -0.2269
   48CHL1   H20 3529   5.903   0.523   7.158 -1.0199 -0.7400  0.8907
   48CHL1   C21 3530   6.099   0.553   7.187 -0.2469 -0.6924 -0.2098
   48CHL1  H21A 3531   6.198   0.503   7.179  0.7698  1.2469 -0.0533
   48CHL1  H21B 3532   6.096   0.604   7.285 -0.9812 -0.2697 -0.4525
   48CHL1  H21C 3533   6.094   0.638   7.116 -0.6355  0.9822  1.7903
   48CHL1   C22 3534   5.959   0.376   7.299  0.4462  0.8305 -0.2222
   48CHL1  H22A 3535   5.918   0.441   7.379  2.0384  0.9698  0.5019
   48CHL1  H22B 3536   5.883   0.297   7.281 -0.8425  1.8738  0.5561
   48CHL1   C23 3537   6.075   0.302   7.362 -0.2089  0.0958  0.3724
   48CHL1  H23A 3538   6.135   0.253   7.283 -0.8191  1.1560 -0.7719
   48CHL1  H23B 3539   6.140   0.378   7.410 -0.7829 -0.0606  1.4179
   48CHL1   C24 3540   6.044   0.184   7.453 -0.3969  0.1687 -0.2683
   48CHL1  H24A 3541   5.983   0.118   7.387 -0.9950 -1.7445  2.1278
   48CHL1  H24B 3542   6.131   0.119   7.473  0.4304 -0.3754 -5.0482
   48CHL1   C25 3543   5.958   0.209   7.579 -0.0238  0.2700  0.3538
   48CHL1   H25 3544   5.862   0.254   7.547 -0.1597 -0.1872  0.1091
   48CHL1   C26 3545   5.941   0.077   7.645  0.2625  0.3406 -0.1584
   48CHL1  H26A 3546   5.889   0.005   7.577  0.4613 -0.3070  0.3696
   48CHL1  H26B 3547   6.034   0.028   7.680  0.0084  0.1542  0.2538
   48CHL1  H26C 3548   5.876   0.096   7.734 -0.1712 -0.0920 -0.3773
   48CHL1   C27 3549   6.026   0.314   7.679  0.5124  0.2764  0.0088
   48CHL1  H27A 3550   5.973   0.333   7.775 -1.8134 -0.4975 -1.0733
   48CHL1  H27B 3551   6.127   0.277   7.706  0.0456 -0.1196  1.2400
   48CHL1  H27C 3552   6.030   0.413   7.630 -0.2230  0.3143  0.0101
   49CHL1    C3 3553   5.029   2.189   6.798 -0.1144  0.1068 -0.1190
   49CHL1    H3 3554   5.133   2.215   6.827  0.5514 -1.0107 -1.4269
   49CHL1    O3 3555   5.032   2.176   6.655  0.4877 -0.1602  0.0516
   49CHL1   H3' 3556   4.942   2.156   6.628 -0.4621  0.6148  2.4866
   49CHL1    C4 3557   4.992   2.051   6.862 -0.3698  0.5524 -0.6345
   49CHL1   H4A 3558   4.894   2.023   6.816 -0.2548  0.1265 -0.6153
   49CHL1   H4B 3559   5.061   1.973   6.824 -2.1074 -0.6574 -1.4022
   49CHL1    C5 3560   4.982   2.062   7.012  0.6718 -0.5548  0.1210
   49CHL1    C6 3561   5.071   1.992   7.075  0.4091 -0.3395 -0.2907
   49CHL1    H6 3562   5.147   1.931   7.024 -0.0471  0.8590 -2.4719
   49CHL1    C7 3563   5.082   1.988   7.223  1.1976  0.0562  0.0224
   49CHL1   H7A 3564   5.077   1.882   7.257 -1.4711 -0.2276 -1.1601
   49CHL1   H7B 3565   5.184   2.022   7.250  1.4760 -1.0518  0.4006
   49CHL1    C8 3566   4.971   2.068   7.291 -0.5159  0.3688  0.2923
   49CHL1    H8 3567   4.886   1.997   7.301  0.4901 -0.6798  1.5684
   49CHL1   C14 3568   5.006   2.114   7.435 -0.4353 -0.4520 -0.2788
   49CHL1   H14 3569   5.086   2.190   7.423 -0.8914 -0.0095 -0.4895
   49CHL1   C15 3570   5.070   2.007   7.525  1.0309  0.7654  0.5002
   49CHL1  H15A 3571   5.020   1.911   7.501  2.0797  0.9063 -2.3749
   49CHL1  H15B 3572   5.179   2.009   7.502  0.6789 -1.1075 -1.5458
   49CHL1   C16 3573   5.047   2.056   7.667  0.2449  0.2304  0.2436
   49CHL1  H16A 3574   4.977   1.982   7.712  1.1596 -1.7712 -1.4980
   49CHL1  H16B 3575   5.141   2.065   7.726 -0.2091  2.3372  0.6657
   49CHL1   C17 3576   4.965   2.190   7.649  0.6665  0.3168  0.4276
   49CHL1   H17 3577   5.050   2.261   7.641  0.7526  0.3154  1.3568
   49CHL1   C13 3578   4.893   2.170   7.514 -0.2207  0.8658  0.2555
   49CHL1   C18 3579   4.779   2.066   7.528 -0.3255  0.0249 -0.2350
   49CHL1  H18A 3580   4.709   2.055   7.442 -1.7520  2.4854  0.5727
   49CHL1  H18B 3581   4.810   1.967   7.569  1.4340  1.2491  1.4605
   49CHL1  H18C 3582   4.716   2.106   7.610  0.8108 -1.7566  1.5741
   49CHL1   C12 3583   4.851   2.297   7.439  0.5423 -0.4748  0.1222
   49CHL1  H12A 3584   4.766   2.345   7.492  2.9714  2.4338  1.6191
   49CHL1  H12B 3585   4.926   2.379   7.447  3.3826 -2.8868 -0.6270
   49CHL1   C11 3586   4.817   2.268   7.294  0.5824  0.1137  0.3475
   49CHL1  H11A 3587   4.721   2.212   7.299 -0.1968  1.2594 -1.0580
   49CHL1  H11B 3588   4.789   2.363   7.242  0.7785  0.3998  0.7622
   49CHL1    C9 3589   4.922   2.192   7.219  0.4721 -0.2391 -0.1256
   49CHL1    H9 3590   5.014   2.254   7.223 -0.6325  1.4220  0.1778
   49CHL1   C10 3591   4.890   2.174   7.070  0.5770  0.6475  0.0513
   49CHL1   C19 3592   4.748   2.125   7.056 -0.9074  0.0441 -0.2677
   49CHL1  H19A 3593   4.727   2.048   7.133  0.8850  1.0381  1.2877
   49CHL1  H19B 3594   4.666   2.200   7.061 -0.7827  0.1105  1.1432
   49CHL1  H19C 3595   4.721   2.078   6.960 -0.1401 -2.4886  0.7209
   49CHL1    C1 3596   4.932   2.307   6.999 -0.1194 -0.5154 -0.3664
   49CHL1   H1A 3597   4.852   2.380   7.022  1.0467  0.4417  0.7513
   49CHL1   H1B 3598   5.029   2.346   7.037  0.0279  1.1780 -2.4102
   49CHL1    C2 3599   4.932   2.294   6.843  0.0002  0.3323 -0.0195
   49CHL1   H2A 3600   4.943   2.385   6.780 -0.5505  0.2566 -0.2212
   49CHL1   H2B 3601   4.829   2.262   6.818  0.4939  0.1958 -1.9350
   49CHL1   C20 3602   4.887   2.232   7.776  0.3600  0.1106 -0.3130
   49CHL1   H20 3603   4.792   2.174   7.782 -1.5732  3.0047 -1.8010
   49CHL1   C21 3604   4.867   2.382   7.774  0.5671 -0.2577 -0.2908
   49CHL1  H21A 3605   4.969   2.427   7.777  0.3969  0.2348 -1.5307
   49CHL1  H21B 3606   4.816   2.420   7.865  1.8475  0.1997  0.2514
   49CHL1  H21C 3607   4.805   2.424   7.693  2.2521  0.8978 -1.0167
   49CHL1   C22 3608   4.960   2.193   7.911  0.0057 -0.1205 -0.0272
   49CHL1  H22A 3609   4.952   2.082   7.916  2.9270 -0.3413  0.3669
   49CHL1  H22B 3610   5.065   2.226   7.898 -0.4687  2.0944  1.6284
   49CHL1   C23 3611   4.905   2.254   8.039  0.2393  0.3994  1.0326
   49CHL1  H23A 3612   4.969   2.204   8.115  0.0620  0.8741  1.4944
   49CHL1  H23B 3613   4.925   2.363   8.047 -0.3090  0.6374 -0.6569
   49CHL1   C24 3614   4.765   2.200   8.075 -0.2824 -0.5017 -0.7207
   49CHL1  H24A 3615   4.686   2.234   8.005 -0.7155 -1.3386 -0.6398
   49CHL1  H24B 3616   4.777   2.091   8.057  0.5839  0.0565 -3.7375
   49CHL1   C25 3617   4.728   2.244   8.217 -0.0635 -0.3118  0.3406
   49CHL1   H25 3618   4.812   2.203   8.278  2.3116  3.2635 -0.3474
   49CHL1   C26 3619   4.722   2.395   8.240 -0.0792 -0.0116  0.7875
   49CHL1  H26A 3620   4.658   2.439   8.161  1.0696  2.5100  1.1986
   49CHL1  H26B 3621   4.674   2.416   8.337 -0.7016 -0.4272  0.5695
   49CHL1  H26C 3622   4.817   2.453   8.237  0.5737 -0.9591  2.7021
   49CHL1   C27 3623   4.591   2.176   8.260  0.5371  0.2121  0.4568
   49CHL1  H27A 3624   4.566   2.208   8.364 -1.6805  1.5472 -0.4529
   49CHL1  H27B 3625   4.506   2.211   8.198  1.6438  0.0767 -1.1760
   49CHL1  H27C 3626   4.606   2.069   8.233 -0.6729  0.5655 -1.6547
   50CHL1    C3 3627   5.066   3.279   6.721  0.0431 -0.5691  0.4699
   50CHL1    H3 3628   4.989   3.341   6.771 -2.5748 -2.6916 -0.8210
   50CHL1    O3 3629   5.051   3.285   6.576  0.5496 -0.0649 -0.2460
   50CHL1   H3' 3630   5.133   3.252   6.539 -0.1024  0.0737 -1.8672
   50CHL1    C4 3631   5.205   3.331   6.755 -0.6820  0.6681  0.1931
   50CHL1   H4A 3632   5.283   3.287   6.689 -2.4233 -1.1345 -0.6993
   50CHL1   H4B 3633   5.204   3.440   6.732  1.7500  0.7550  0.3580
   50CHL1    C5 3634   5.253   3.314   6.897 -0.2940  0.1785  1.0969
   50CHL1    C6 3635   5.317   3.412   6.960 -0.4920  0.0024 -0.3419
   50CHL1    H6 3636   5.340   3.497   6.894  0.1792  0.0268 -0.0738
   50CHL1    C7 3637   5.378   3.397   7.093 -0.6807 -0.1733 -1.5314
   50CHL1   H7A 3638   5.485   3.428   7.085 -0.7934  1.5029  2.2300
   50CHL1   H7B 3639   5.331   3.476   7.155  1.7598  1.4246 -1.6348
   50CHL1    C8 3640   5.371   3.258   7.160  0.1084  0.9362 -0.4414
   50CHL1    H8 3641   5.454   3.193   7.123  0.8551  0.9195  1.2152
   50CHL1   C14 3642   5.386   3.277   7.311 -0.1599  1.0123 -0.2657
   50CHL1   H14 3643   5.303   3.348   7.329 -0.1751  0.6194  1.2559
   50CHL1   C15 3644   5.514   3.345   7.367  0.4772  0.1758 -0.1752
   50CHL1  H15A 3645   5.600   3.284   7.331 -0.0157 -1.3948  1.2315
   50CHL1  H15B 3646   5.525   3.450   7.333  0.2072 -0.2895 -1.7695
   50CHL1   C16 3647   5.502   3.318   7.515 -0.2990  0.6928  0.1005
   50CHL1  H16A 3648   5.601   3.285   7.553 -0.1622  0.6378 -0.2994
   50CHL1  H16B 3649   5.475   3.416   7.560  2.1224  0.5315  1.9782
   50CHL1   C17 3650   5.386   3.218   7.539 -0.5780 -0.5125  0.4795
   50CHL1   H17 3651   5.295   3.274   7.570 -1.4286 -2.4346  1.5596
   50CHL1   C13 3652   5.370   3.154   7.401  0.5668  0.2922  0.1375
   50CHL1   C18 3653   5.486   3.053   7.375 -0.2933 -0.1185  0.5062
   50CHL1  H18A 3654   5.584   3.104   7.388  0.1039 -0.8566  0.4302
   50CHL1  H18B 3655   5.473   2.955   7.426  0.3933  0.2429  1.3884
   50CHL1  H18C 3656   5.476   3.027   7.267  0.9946  6.7127 -1.4911
   50CHL1   C12 3657   5.236   3.078   7.354  0.5747  0.5526 -0.0406
   50CHL1  H12A 3658   5.221   2.991   7.420  1.8088 -0.5091 -1.1324
   50CHL1  H12B 3659   5.157   3.147   7.391 -0.7985 -0.4442 -1.0897
   50CHL1   C11 3660   5.211   3.053   7.198 -0.7686  0.0713 -0.4451
   50CHL1  H11A 3661   5.293   2.982   7.174 -2.1306 -0.9833 -2.0764
   50CHL1  H11B 3662   5.112   3.012   7.172 -0.2485 -0.7414 -1.1728
   50CHL1    C9 3663   5.242   3.186   7.115 -0.3224 -0.2091 -0.9217
   50CHL1    H9 3664   5.160   3.249   7.157  0.1520  0.4403 -0.9826
   50CHL1   C10 3665   5.226   3.174   6.963 -0.1379 -0.3702  0.1968
   50CHL1   C19 3666   5.319   3.066   6.906  0.0941  0.2265 -0.1874
   50CHL1  H19A 3667   5.287   2.960   6.907  3.4856 -0.8702  2.0063
   50CHL1  H19B 3668   5.334   3.079   6.796  1.0827 -0.4618 -0.1461
   50CHL1  H19C 3669   5.418   3.086   6.952  0.2462  0.6558 -0.6907
   50CHL1    C1 3670   5.079   3.134   6.931  0.0911  0.3007 -0.0567
   50CHL1   H1A 3671   5.067   3.032   6.972 -0.9639  0.6226  0.4589
   50CHL1   H1B 3672   5.004   3.193   6.988  1.6614  0.9012  1.4585
   50CHL1    C2 3673   5.045   3.135   6.781  0.4447  0.0521  0.8360
   50CHL1   H2A 3674   4.945   3.099   6.749  0.2740  1.3238 -0.0981
   50CHL1   H2B 3675   5.121   3.069   6.733  0.1728 -0.4191  1.0518
   50CHL1   C20 3676   5.427   3.124   7.660 -0.8047  0.1768  0.0873
   50CHL1   H20 3677   5.522   3.075   7.631 -0.6321  0.8686 -0.5156
   50CHL1   C21 3678   5.318   3.020   7.687 -0.3207 -0.7134  0.5773
   50CHL1  H21A 3679   5.304   2.962   7.593  0.0282  0.4968 -0.2330
   50CHL1  H21B 3680   5.221   3.064   7.718 -0.4675 -0.0856 -0.7296
   50CHL1  H21C 3681   5.353   2.945   7.761 -0.4903 -1.0093  0.3631
   50CHL1   C22 3682   5.456   3.207   7.788  0.1391  0.4035  0.0390
   50CHL1  H22A 3683   5.522   3.296   7.774  0.2111  0.5197  1.1027
   50CHL1  H22B 3684   5.353   3.238   7.815 -1.4386 -2.0616 -2.9003
   50CHL1   C23 3685   5.531   3.126   7.886  0.3848  0.1342 -0.6432
   50CHL1  H23A 3686   5.489   3.025   7.906  1.6860 -0.6193 -1.6464
   50CHL1  H23B 3687   5.639   3.109   7.865  0.4948 -0.0871  0.0885
   50CHL1   C24 3688   5.512   3.189   8.023  0.2321 -0.1062 -0.0816
   50CHL1  H24A 3689   5.551   3.293   8.026 -0.1412  0.1214 -2.3214
   50CHL1  H24B 3690   5.401   3.184   8.027  0.2508 -3.5402 -1.9618
   50CHL1   C25 3691   5.586   3.123   8.143 -0.3298 -0.4754  0.6882
   50CHL1   H25 3692   5.692   3.154   8.155 -0.7266  0.3842  2.2473
   50CHL1   C26 3693   5.526   3.178   8.272 -0.4788  0.3893  0.6957
   50CHL1  H26A 3694   5.418   3.153   8.285 -1.5865  4.0268 -0.8434
   50CHL1  H26B 3695   5.590   3.135   8.352  1.0066  0.4937 -0.4247
   50CHL1  H26C 3696   5.527   3.289   8.280 -0.0518  0.4343 -0.0200
   50CHL1   C27 3697   5.586   2.973   8.145 -0.3471 -0.6511 -0.0408
   50CHL1  H27A 3698   5.663   2.936   8.073 -1.4877 -1.8945 -0.6475
   50CHL1  H27B 3699   5.617   2.929   8.242 -0.4515 -0.6204  0.0063
   50CHL1  H27C 3700   5.482   2.939   8.130 -0.0879 -2.6758  2.3854
   51CHL1    C3 3701   5.460   2.233   6.719 -0.0077 -0.2964 -0.3720
   51CHL1    H3 3702   5.363   2.284   6.705 -0.4060 -0.8569  0.3314
   51CHL1    O3 3703   5.505   2.174   6.599 -0.3088 -0.1974 -0.1195
   51CHL1   H3' 3704   5.598   2.169   6.622  0.0115  4.2034 -0.1056
   51CHL1    C4 3705   5.569   2.318   6.782  0.4975 -0.2142  0.2747
   51CHL1   H4A 3706   5.663   2.260   6.797 -1.3150 -2.7936  1.8457
   51CHL1   H4B 3707   5.594   2.394   6.704  0.4901  0.1740  0.6533
   51CHL1    C5 3708   5.525   2.366   6.911  0.3400  0.5998  0.2907
   51CHL1    C6 3709   5.495   2.498   6.930  0.1715  0.2774  0.1753
   51CHL1    H6 3710   5.502   2.562   6.842  3.5307 -1.0948 -0.6368
   51CHL1    C7 3711   5.456   2.555   7.071  0.0322 -0.6054  0.7019
   51CHL1   H7A 3712   5.506   2.652   7.087 -0.9556 -0.4427  2.8797
   51CHL1   H7B 3713   5.349   2.578   7.088  0.1575  0.1036  0.5307
   51CHL1    C8 3714   5.496   2.457   7.188  0.2244 -0.4437  0.6947
   51CHL1    H8 3715   5.607   2.449   7.193  0.1385 -1.2919  1.4135
   51CHL1   C14 3716   5.434   2.508   7.316  0.3789 -0.3035 -0.7078
   51CHL1   H14 3717   5.324   2.514   7.301  0.0655 -0.6317  1.3477
   51CHL1   C15 3718   5.459   2.655   7.361 -0.0339  0.5563 -0.4363
   51CHL1  H15A 3719   5.569   2.670   7.349  0.0618 -0.1460 -0.4632
   51CHL1  H15B 3720   5.399   2.726   7.300 -2.5154 -0.1829  1.0818
   51CHL1   C16 3721   5.426   2.654   7.509 -0.4489 -0.5893  0.6676
   51CHL1  H16A 3722   5.514   2.689   7.568 -0.6066  0.7729  0.1075
   51CHL1  H16B 3723   5.342   2.724   7.524  1.4416  2.1663 -1.1916
   51CHL1   C17 3724   5.387   2.510   7.552 -0.6983  0.5457  0.0302
   51CHL1   H17 3725   5.280   2.500   7.522 -0.1116 -0.7329 -1.7639
   51CHL1   C13 3726   5.450   2.422   7.445  0.0808 -0.0252 -0.2631
   51CHL1   C18 3727   5.604   2.410   7.480 -0.1810 -0.1609  0.0278
   51CHL1  H18A 3728   5.656   2.508   7.482 -0.1906 -0.1643  0.6781
   51CHL1  H18B 3729   5.616   2.359   7.578 -1.2722  1.0110  0.7812
   51CHL1  H18C 3730   5.657   2.349   7.404 -0.4717 -0.6823  0.2360
   51CHL1   C12 3731   5.389   2.282   7.416 -0.2501  0.0180 -0.5303
   51CHL1  H12A 3732   5.388   2.215   7.505 -2.3714  1.4412  0.5807
   51CHL1  H12B 3733   5.280   2.297   7.397  0.0598 -0.1922 -2.5220
   51CHL1   C11 3734   5.457   2.219   7.291 -0.9159  0.5366 -0.0330
   51CHL1  H11A 3735   5.563   2.187   7.299 -1.9916 -3.3853 -0.6511
   51CHL1  H11B 3736   5.396   2.132   7.259  0.9843 -0.1103 -2.0143
   51CHL1    C9 3737   5.449   2.313   7.165  0.5484 -0.8824 -0.0821
   51CHL1    H9 3738   5.339   2.314   7.149  0.4655 -0.5558  0.5246
   51CHL1   C10 3739   5.513   2.262   7.031 -0.5994  0.2011 -0.2921
   51CHL1   C19 3740   5.657   2.203   7.063 -0.5164 -0.8120  0.0142
   51CHL1  H19A 3741   5.649   2.114   7.129 -0.5940 -1.0795 -0.3520
   51CHL1  H19B 3742   5.721   2.187   6.973  1.9169  0.9666  1.3817
   51CHL1  H19C 3743   5.710   2.271   7.132 -0.7572 -0.8379  0.2234
   51CHL1    C1 3744   5.411   2.162   6.964 -0.2549 -0.9466 -0.8076
   51CHL1   H1A 3745   5.394   2.080   7.036 -0.5352 -1.2960 -1.2696
   51CHL1   H1B 3746   5.318   2.222   6.953  1.6800  2.4081  0.4968
   51CHL1    C2 3747   5.443   2.117   6.822 -0.0709  0.2217  0.4147
   51CHL1   H2A 3748   5.356   2.053   6.796  1.3737 -2.1691  1.3857
   51CHL1   H2B 3749   5.535   2.055   6.827  0.3738  0.7355 -1.0896
   51CHL1   C20 3750   5.401   2.485   7.703 -0.3612 -0.0731  0.0311
   51CHL1   H20 3751   5.509   2.495   7.724 -0.4909  0.6184  0.3503
   51CHL1   C21 3752   5.346   2.346   7.736  0.3136  0.2153  0.6556
   51CHL1  H21A 3753   5.237   2.342   7.715  0.1201  0.0468  1.6687
   51CHL1  H21B 3754   5.360   2.328   7.845  2.6024 -0.4071  0.2817
   51CHL1  H21C 3755   5.395   2.264   7.681  0.7055 -0.1722  1.5844
   51CHL1   C22 3756   5.320   2.599   7.780 -0.5862  0.3458 -0.1884
   51CHL1  H22A 3757   5.383   2.690   7.772  0.5365 -0.4258 -0.2841
   51CHL1  H22B 3758   5.220   2.614   7.733 -1.2505 -0.9606  0.7736
   51CHL1   C23 3759   5.300   2.577   7.931 -0.1962  0.9929  0.5845
   51CHL1  H23A 3760   5.233   2.489   7.940  0.8041  0.1396 -0.0797
   51CHL1  H23B 3761   5.395   2.543   7.978 -1.1889  0.7535  2.4654
   51CHL1   C24 3762   5.244   2.707   7.990 -0.2202  0.3026  0.1729
   51CHL1  H24A 3763   5.305   2.799   7.987 -0.1359  0.2203 -0.7847
   51CHL1  H24B 3764   5.156   2.735   7.928  0.2077  0.3482 -0.4254
   51CHL1   C25 3765   5.204   2.699   8.138 -0.0327 -0.2032  1.1155
   51CHL1   H25 3766   5.299   2.673   8.190  0.0916 -2.1343  0.0067
   51CHL1   C26 3767   5.171   2.842   8.192 -0.6941  0.3750 -0.1718
   51CHL1  H26A 3768   5.068   2.878   8.170 -0.4830  1.6734  0.8949
   51CHL1  H26B 3769   5.185   2.838   8.302  0.4310 -0.0562 -0.3218
   51CHL1  H26C 3770   5.247   2.908   8.145 -0.8086 -1.8346 -3.6686
   51CHL1   C27 3771   5.092   2.602   8.169 -0.3163  0.4141 -1.3893
   51CHL1  H27A 3772   5.055   2.606   8.273  2.1511 -0.0154 -0.4587
   51CHL1  H27B 3773   5.003   2.612   8.103 -0.3050  1.4826 -1.2594
   51CHL1  H27C 3774   5.125   2.498   8.148  1.3204  0.6887 -0.3023
   52CHL1    C3 3775   0.362   3.828   7.033 -0.2494  0.0984 -0.0119
   52CHL1    H3 3776   0.471   3.806   7.025 -0.4276 -1.2479  1.1755
   52CHL1    O3 3777   0.309   3.841   6.907  0.1354 -0.2782 -0.6386
   52CHL1   H3' 3778   0.218   3.873   6.912  0.2143  0.2754 -2.2083
   52CHL1    C4 3779   0.289   3.714   7.110  0.0481 -1.0912  0.7875
   52CHL1   H4A 3780   0.179   3.729   7.106  0.2602  0.6340  1.2717
   52CHL1   H4B 3781   0.312   3.618   7.059  0.9208 -0.7438  0.5267
   52CHL1    C5 3782   0.330   3.707   7.252  0.5355 -0.0247 -0.6563
   52CHL1    C6 3783   0.381   3.592   7.305  0.0976  0.6405 -1.0084
   52CHL1    H6 3784   0.413   3.504   7.246 -2.8388 -2.0915  1.2685
   52CHL1    C7 3785   0.417   3.575   7.452 -0.5375 -0.0905  0.3844
   52CHL1   H7A 3786   0.396   3.472   7.489  1.1344 -0.1670  1.2145
   52CHL1   H7B 3787   0.526   3.596   7.464 -0.1677 -2.9385  2.5480
   52CHL1    C8 3788   0.333   3.679   7.535  0.5801 -0.3987 -0.2937
   52CHL1    H8 3789   0.228   3.643   7.529  0.8140 -1.1385  0.0828
   52CHL1   C14 3790   0.384   3.681   7.680 -0.7963 -0.2176 -0.4051
   52CHL1   H14 3791   0.491   3.711   7.674 -0.8531  0.2697  0.8021
   52CHL1   C15 3792   0.398   3.546   7.762  0.7897 -0.1795 -0.0265
   52CHL1  H15A 3793   0.301   3.494   7.755  1.4699 -1.4623  0.0266
   52CHL1  H15B 3794   0.479   3.482   7.721  0.8982 -2.0884  2.9978
   52CHL1   C16 3795   0.428   3.599   7.908 -0.3462 -0.9830  0.6475
   52CHL1  H16A 3796   0.373   3.542   7.985 -1.8179 -0.2876  0.1136
   52CHL1  H16B 3797   0.538   3.593   7.928 -0.3481  0.3179  1.1180
   52CHL1   C17 3798   0.389   3.758   7.909  0.2768  0.4217 -0.3631
   52CHL1   H17 3799   0.494   3.793   7.909 -0.4532  2.7330  1.6184
   52CHL1   C13 3800   0.321   3.782   7.777 -0.0348 -0.1269  0.1078
   52CHL1   C18 3801   0.172   3.746   7.798 -0.2728  0.1644  0.2163
   52CHL1  H18A 3802   0.129   3.735   7.696  2.3492  1.0116 -0.9997
   52CHL1  H18B 3803   0.164   3.644   7.843  0.5154 -0.2066 -0.4769
   52CHL1  H18C 3804   0.111   3.829   7.840  0.5638  1.1551 -0.5172
   52CHL1   C12 3805   0.336   3.921   7.712 -0.4941  0.3424 -0.4188
   52CHL1  H12A 3806   0.294   4.004   7.774  2.4027  0.3321  1.6291
   52CHL1  H12B 3807   0.444   3.945   7.715 -0.1411 -1.3477  0.9851
   52CHL1   C11 3808   0.280   3.930   7.570  0.3857 -0.2718 -0.4880
   52CHL1  H11A 3809   0.170   3.915   7.582  0.2119  1.4922  0.3865
   52CHL1  H11B 3810   0.299   4.033   7.533  1.9830 -0.0733  0.8245
   52CHL1    C9 3811   0.345   3.826   7.479  0.2738 -0.3596 -0.5101
   52CHL1    H9 3812   0.454   3.846   7.487  0.4121 -1.1800 -0.2023
   52CHL1   C10 3813   0.302   3.832   7.328  0.3123  0.3430  0.2035
   52CHL1   C19 3814   0.150   3.866   7.328  1.0197  0.3046  0.0897
   52CHL1  H19A 3815   0.104   3.865   7.226 -1.1626 -1.4885  1.0537
   52CHL1  H19B 3816   0.101   3.789   7.391 -0.5069  1.5728  0.4782
   52CHL1  H19C 3817   0.117   3.959   7.379  1.1217  0.5053 -0.2092
   52CHL1    C1 3818   0.378   3.947   7.256  0.3515  0.2121 -0.4732
   52CHL1   H1A 3819   0.359   4.046   7.303  0.2551  0.4541 -1.0266
   52CHL1   H1B 3820   0.486   3.922   7.258  0.1587 -0.6050  1.9792
   52CHL1    C2 3821   0.339   3.963   7.110 -0.5004 -0.5303 -0.1069
   52CHL1   H2A 3822   0.402   4.045   7.069 -1.4630  2.0899  3.4390
   52CHL1   H2B 3823   0.234   3.997   7.105 -0.4895 -0.4028  0.4864
   52CHL1   C20 3824   0.323   3.809   8.040  0.3136  0.1869 -0.6530
   52CHL1   H20 3825   0.230   3.758   8.074  0.7814  0.5474  1.2169
   52CHL1   C21 3826   0.286   3.961   8.032  0.0247  0.3286  0.1958
   52CHL1  H21A 3827   0.243   4.004   8.125  0.2040  0.9038  0.0177
   52CHL1  H21B 3828   0.204   3.981   7.960  1.1367  2.7505 -0.4919
   52CHL1  H21C 3829   0.378   4.014   7.996  0.1149 -0.3994 -0.6476
   52CHL1   C22 3830   0.424   3.784   8.154 -0.0396 -0.1063  0.6991
   52CHL1  H22A 3831   0.476   3.686   8.152  0.0060 -0.1009 -3.9024
   52CHL1  H22B 3832   0.507   3.858   8.159 -2.6410  2.9070  1.5174
   52CHL1   C23 3833   0.353   3.801   8.294  0.5127 -0.3318  0.2879
   52CHL1  H23A 3834   0.299   3.898   8.305  0.6660  0.0360 -2.0856
   52CHL1  H23B 3835   0.271   3.726   8.299  0.4337 -0.7068 -4.5623
   52CHL1   C24 3836   0.454   3.783   8.413 -0.0928  0.2269 -0.1351
   52CHL1  H24A 3837   0.538   3.713   8.398  1.9633  2.7743 -0.9504
   52CHL1  H24B 3838   0.499   3.884   8.431 -1.2601  0.3494  2.4312
   52CHL1   C25 3839   0.391   3.762   8.552 -0.9043  0.4073  0.5536
   52CHL1   H25 3840   0.334   3.667   8.549  0.7276 -0.6150  1.0885
   52CHL1   C26 3841   0.496   3.736   8.664 -0.8777  0.2862  0.4001
   52CHL1  H26A 3842   0.542   3.639   8.633 -1.1779 -0.3030  1.7639
   52CHL1  H26B 3843   0.564   3.824   8.666 -0.1164 -0.2603 -0.9611
   52CHL1  H26C 3844   0.442   3.713   8.758 -0.4237  0.2011  0.6431
   52CHL1   C27 3845   0.293   3.870   8.597 -0.2041 -0.0704  0.0318
   52CHL1  H27A 3846   0.188   3.868   8.560  0.2768  0.6601 -1.3871
   52CHL1  H27B 3847   0.280   3.869   8.708 -1.2806  0.5096 -0.0870
   52CHL1  H27C 3848   0.338   3.969   8.576 -0.1151 -0.1341 -0.0749
   53CHL1    C3 3849   3.254   6.621   7.050  0.6064 -0.3822 -0.1298
   53CHL1    H3 3850   3.364   6.606   7.044  0.5180 -0.4902 -1.5097
   53CHL1    O3 3851   3.202   6.584   6.921  0.1463 -0.7259  0.2104
   53CHL1   H3' 3852   3.158   6.660   6.881 -1.3176 -1.4913  0.3604
   53CHL1    C4 3853   3.195   6.516   7.151  0.2710 -0.0337  0.0776
   53CHL1   H4A 3854   3.085   6.532   7.145  0.0673 -1.6706 -0.9594
   53CHL1   H4B 3855   3.216   6.410   7.123 -1.9719  0.1177 -2.2970
   53CHL1    C5 3856   3.247   6.553   7.289  0.9762  0.3404 -0.0044
   53CHL1    C6 3857   3.310   6.465   7.372 -0.5747 -0.5497 -0.1690
   53CHL1    H6 3858   3.309   6.358   7.347 -2.1355 -0.7630  0.6743
   53CHL1    C7 3859   3.344   6.488   7.514 -0.1951  0.1770 -0.0987
   53CHL1   H7A 3860   3.305   6.407   7.579 -0.6661  0.7826  0.3845
   53CHL1   H7B 3861   3.450   6.512   7.539  0.4250 -0.7778 -1.7463
   53CHL1    C8 3862   3.266   6.608   7.575 -0.6468 -0.1256 -0.5343
   53CHL1    H8 3863   3.163   6.572   7.596 -0.5105 -1.2350 -1.6505
   53CHL1   C14 3864   3.343   6.651   7.701  0.6517 -0.0146  1.3877
   53CHL1   H14 3865   3.444   6.681   7.666  0.0363 -0.1840 -0.6295
   53CHL1   C15 3866   3.352   6.545   7.811  0.6555 -0.0133  0.1228
   53CHL1  H15A 3867   3.257   6.495   7.839  0.4856  0.0132 -0.3920
   53CHL1  H15B 3868   3.422   6.468   7.772  1.6659  1.7293 -1.6173
   53CHL1   C16 3869   3.405   6.625   7.936 -0.4258  0.3670  0.4223
   53CHL1  H16A 3870   3.328   6.595   8.011 -0.7086 -1.7789 -0.6862
   53CHL1  H16B 3871   3.512   6.601   7.950 -0.5814 -2.0298 -2.1614
   53CHL1   C17 3872   3.391   6.775   7.896 -0.5976  0.4827  0.3095
   53CHL1   H17 3873   3.491   6.808   7.864 -0.7036  1.3386  0.8580
   53CHL1   C13 3874   3.295   6.779   7.771  0.1429 -0.3602 -0.3438
   53CHL1   C18 3875   3.148   6.765   7.823  0.1860 -0.1049  0.0351
   53CHL1  H18A 3876   3.105   6.857   7.867 -1.3155 -1.4210  1.3777
   53CHL1  H18B 3877   3.083   6.722   7.744  1.4634  1.5431 -1.9760
   53CHL1  H18C 3878   3.144   6.687   7.902 -1.0677 -0.0801  0.0071
   53CHL1   C12 3879   3.314   6.897   7.670 -0.6952  0.2216 -0.0810
   53CHL1  H12A 3880   3.272   6.990   7.714  1.9307  0.6104  1.7552
   53CHL1  H12B 3881   3.422   6.919   7.656 -0.4660 -0.9194 -0.1191
   53CHL1   C11 3882   3.239   6.868   7.545  0.2841 -0.0784 -0.6493
   53CHL1  H11A 3883   3.131   6.876   7.569  0.2479 -1.0040 -0.5093
   53CHL1  H11B 3884   3.268   6.947   7.472  0.7177 -0.9435 -1.4270
   53CHL1    C9 3885   3.277   6.728   7.482 -0.1735 -0.1478  0.6617
   53CHL1    H9 3886   3.386   6.733   7.460 -0.2474  0.0608  0.3382
   53CHL1   C10 3887   3.222   6.699   7.343 -0.6609  0.1865  0.1870
   53CHL1   C19 3888   3.070   6.719   7.346 -0.0403 -0.1269  0.4952
   53CHL1  H19A 3889   3.014   6.682   7.258 -0.6511 -0.8259  1.1669
   53CHL1  H19B 3890   3.029   6.665   7.435 -0.8996 -1.1653 -0.5085
   53CHL1  H19C 3891   3.032   6.823   7.354 -0.3455 -0.3207  1.6684
   53CHL1    C1 3892   3.275   6.797   7.233 -0.5447  0.3626  0.0553
   53CHL1   H1A 3893   3.242   6.901   7.255  1.6027  0.9175  0.7347
   53CHL1   H1B 3894   3.386   6.796   7.233 -0.5269 -2.7636  0.0546
   53CHL1    C2 3895   3.228   6.768   7.090 -0.1615 -0.0382  0.7952
   53CHL1   H2A 3896   3.266   6.833   7.008 -2.3339  1.6837  1.1123
   53CHL1   H2B 3897   3.119   6.791   7.087  0.0473  0.7921 -1.9625
   53CHL1   C20 3898   3.348   6.864   8.007  0.4268 -0.1246  0.4633
   53CHL1   H20 3899   3.249   6.841   8.051 -0.0889  3.0298  1.1197
   53CHL1   C21 3900   3.346   7.009   7.970  0.1003 -0.5309 -0.3086
   53CHL1  H21A 3901   3.322   7.062   8.065 -0.0905  2.9501 -2.2346
   53CHL1  H21B 3902   3.259   7.041   7.909  0.2899 -0.1956 -0.4056
   53CHL1  H21C 3903   3.440   7.047   7.926  0.8970 -1.2845  0.7200
   53CHL1   C22 3904   3.445   6.849   8.125 -0.0404 -0.6363 -0.2689
   53CHL1  H22A 3905   3.503   6.755   8.128  1.2766  0.1502 -0.5601
   53CHL1  H22B 3906   3.523   6.928   8.122  1.5410 -2.1669  0.0289
   53CHL1   C23 3907   3.378   6.878   8.266 -0.4702  0.4060 -0.5366
   53CHL1  H23A 3908   3.294   6.949   8.252 -1.3296 -0.3568  0.6535
   53CHL1  H23B 3909   3.320   6.788   8.293 -0.8219  1.1197  1.1573
   53CHL1   C24 3910   3.487   6.924   8.367 -0.0191  0.2665  0.7594
   53CHL1  H24A 3911   3.444   6.909   8.468 -1.2828 -0.1508  0.1755
   53CHL1  H24B 3912   3.575   6.857   8.355 -0.2405  0.1829 -0.4500
   53CHL1   C25 3913   3.521   7.076   8.346  0.2992  0.2669  0.1882
   53CHL1   H25 3914   3.556   7.102   8.244 -0.0409  0.1376  0.0369
   53CHL1   C26 3915   3.403   7.175   8.376 -0.1326  0.1659  0.4577
   53CHL1  H26A 3916   3.447   7.276   8.380 -0.2992  0.3843 -2.0947
   53CHL1  H26B 3917   3.328   7.177   8.293  1.5609  0.2828 -1.1055
   53CHL1  H26C 3918   3.359   7.149   8.475  0.0271 -0.3946  0.3839
   53CHL1   C27 3919   3.639   7.117   8.433  1.1494  0.4999 -0.4876
   53CHL1  H27A 3920   3.674   7.219   8.404  1.1622 -0.2943 -3.4842
   53CHL1  H27B 3921   3.607   7.109   8.539  1.2300 -0.1719 -0.5104
   53CHL1  H27C 3922   3.727   7.051   8.415  0.8615 -0.1299  0.3818
   54CHL1    C3 3923   3.819   1.237   6.970  0.5634 -0.3452 -0.0162
   54CHL1    H3 3924   3.805   1.338   7.014 -1.1651 -0.0412 -1.1928
   54CHL1    O3 3925   3.856   1.253   6.833 -0.4003 -0.1342 -0.3558
   54CHL1   H3' 3926   3.873   1.168   6.793 -2.1028 -0.9706  0.6383
   54CHL1    C4 3927   3.940   1.178   7.047  0.2540 -0.3764  0.1359
   54CHL1   H4A 3928   3.967   1.083   6.997 -1.4993 -1.2201  0.7464
   54CHL1   H4B 3929   4.032   1.239   7.044  0.4077 -0.5297  1.5318
   54CHL1    C5 3930   3.917   1.160   7.197 -0.0635 -0.3665 -0.2315
   54CHL1    C6 3931   3.986   1.222   7.295 -0.0274 -0.2338 -0.8573
   54CHL1    H6 3932   4.077   1.280   7.275  0.5724 -0.9919 -0.3993
   54CHL1    C7 3933   3.955   1.182   7.439 -0.2103  0.4832 -0.2607
   54CHL1   H7A 3934   4.052   1.143   7.478 -0.5022 -2.6329 -2.4014
   54CHL1   H7B 3935   3.914   1.274   7.486  0.3940  0.4958  0.2529
   54CHL1    C8 3936   3.854   1.069   7.467 -0.7378  0.0887  0.0648
   54CHL1    H8 3937   3.908   0.972   7.464 -0.1928  0.4254 -1.0508
   54CHL1   C14 3938   3.788   1.085   7.607  0.5600 -0.3855  0.3796
   54CHL1   H14 3939   3.731   1.179   7.589  1.7860 -0.1643 -2.7420
   54CHL1   C15 3940   3.892   1.096   7.722 -0.2551  0.1235 -0.1663
   54CHL1  H15A 3941   3.960   1.008   7.717 -1.0407 -0.4990  0.0252
   54CHL1  H15B 3942   3.952   1.189   7.724  2.3189 -1.5068  2.7730
   54CHL1   C16 3943   3.798   1.083   7.839  0.3422 -0.4937 -0.3768
   54CHL1  H16A 3944   3.846   1.006   7.902  0.9351  1.5208  1.7119
   54CHL1  H16B 3945   3.790   1.177   7.899 -3.2755 -1.8412  1.4184
   54CHL1   C17 3946   3.658   1.026   7.795  0.3280 -0.5174  0.4406
   54CHL1   H17 3947   3.589   1.112   7.782  2.2724  0.8957 -0.8213
   54CHL1   C13 3948   3.685   0.982   7.652  0.2231  0.4408  0.1633
   54CHL1   C18 3949   3.752   0.841   7.659 -0.4548  0.3053  0.1751
   54CHL1  H18A 3950   3.812   0.834   7.753 -1.6520 -2.1161  0.8051
   54CHL1  H18B 3951   3.675   0.763   7.643  0.0304 -0.5343  1.8394
   54CHL1  H18C 3952   3.828   0.814   7.582 -1.1645 -0.8504 -0.1215
   54CHL1   C12 3953   3.568   0.992   7.554  0.2520  0.6305 -0.0245
   54CHL1  H12A 3954   3.486   0.922   7.582  0.3692  0.5515  0.1175
   54CHL1  H12B 3955   3.523   1.094   7.561 -0.6360  0.3936 -1.7840
   54CHL1   C11 3956   3.619   0.979   7.409  0.4861 -0.0402 -0.4286
   54CHL1  H11A 3957   3.659   0.877   7.390 -3.2620 -1.5140 -0.8977
   54CHL1  H11B 3958   3.542   0.995   7.330 -1.5799 -1.4923  1.2483
   54CHL1    C9 3959   3.738   1.073   7.368 -0.4429  0.1590  0.9617
   54CHL1    H9 3960   3.694   1.174   7.382  0.9758  0.8426  0.6100
   54CHL1   C10 3961   3.787   1.072   7.220 -0.5537 -0.0767 -0.5006
   54CHL1   C19 3962   3.817   0.920   7.193 -0.2719  0.4583 -0.0410
   54CHL1  H19A 3963   3.849   0.916   7.086  0.4087  0.4115  0.1624
   54CHL1  H19B 3964   3.893   0.881   7.263  0.2218  1.1163 -0.2143
   54CHL1  H19C 3965   3.723   0.859   7.193 -0.0410  0.0491 -2.0807
   54CHL1    C1 3966   3.664   1.112   7.129 -0.5435  0.1268  0.0170
   54CHL1   H1A 3967   3.589   1.031   7.128  1.1774 -1.4980 -0.1360
   54CHL1   H1B 3968   3.612   1.198   7.177  1.9511  0.1780  2.7298
   54CHL1    C2 3969   3.699   1.141   6.983 -0.5174 -0.5157 -0.0984
   54CHL1   H2A 3970   3.613   1.194   6.937  1.1234  1.2230 -1.2222
   54CHL1   H2B 3971   3.726   1.049   6.928 -2.5402 -0.5388 -1.1025
   54CHL1   C20 3972   3.607   0.927   7.900 -0.8203 -0.2245 -0.1401
   54CHL1   H20 3973   3.670   0.835   7.900 -3.3855 -2.0501  1.3298
   54CHL1   C21 3974   3.460   0.894   7.872 -0.1174 -0.2818  0.2114
   54CHL1  H21A 3975   3.398   0.984   7.857 -0.2190 -0.5748 -1.2613
   54CHL1  H21B 3976   3.418   0.828   7.951 -1.2452  1.4364  1.0707
   54CHL1  H21C 3977   3.464   0.838   7.775  1.7644  0.8126 -0.3669
   54CHL1   C22 3978   3.617   0.978   8.052  0.3030  0.7542  0.3798
   54CHL1  H22A 3979   3.724   1.006   8.065  0.6282  0.5713 -1.8001
   54CHL1  H22B 3980   3.540   1.053   8.079 -0.9441 -0.5257  0.4365
   54CHL1   C23 3981   3.598   0.858   8.159 -0.1917 -0.0826  0.8193
   54CHL1  H23A 3982   3.488   0.853   8.165 -0.2618  0.2318 -0.1208
   54CHL1  H23B 3983   3.641   0.760   8.126 -0.8513  0.1726 -0.8436
   54CHL1   C24 3984   3.648   0.896   8.298  0.8751  0.0482  0.1285
   54CHL1  H24A 3985   3.621   0.814   8.367  1.3735 -0.2901 -0.0804
   54CHL1  H24B 3986   3.759   0.901   8.295  0.9278 -1.9567 -2.4197
   54CHL1   C25 3987   3.589   1.029   8.352  0.0260 -0.4398  0.2017
   54CHL1   H25 3988   3.597   1.117   8.285 -0.0850 -2.5282 -2.6224
   54CHL1   C26 3989   3.431   1.017   8.376 -0.3447  0.7028  0.8432
   54CHL1  H26A 3990   3.398   1.119   8.403  0.3223  0.9333  0.8003
   54CHL1  H26B 3991   3.377   0.987   8.283  2.3647 -1.1220 -0.2053
   54CHL1  H26C 3992   3.401   0.952   8.460 -1.9042 -1.1277 -1.0688
   54CHL1   C27 3993   3.656   1.077   8.483 -0.1009 -0.2469 -0.0639
   54CHL1  H27A 3994   3.633   1.004   8.562 -2.4740 -0.1694 -0.6481
   54CHL1  H27B 3995   3.765   1.086   8.464 -0.4525  2.1465 -1.1927
   54CHL1  H27C 3996   3.609   1.174   8.510 -1.1187 -0.0583 -2.3481
   55CHL1    C3 3997   3.093   2.091   6.814  0.0938  0.0492  0.3140
   55CHL1    H3 3998   3.194   2.045   6.819  0.0816  0.0735  0.8517
   55CHL1    O3 3999   3.039   2.049   6.692 -0.1797  0.3973  0.0467
   55CHL1   H3' 4000   2.960   2.008   6.728 -1.1972  0.9704 -1.5015
   55CHL1    C4 4001   2.998   2.052   6.929 -0.0615 -0.2821 -0.0421
   55CHL1   H4A 4002   2.898   2.088   6.895 -0.8867 -2.0963  0.3719
   55CHL1   H4B 4003   2.994   1.941   6.922  0.7391 -0.3536  0.6530
   55CHL1    C5 4004   3.038   2.103   7.064 -0.3032 -0.0291 -0.0921
   55CHL1    C6 4005   3.067   2.025   7.167  0.1009  0.0317 -0.5191
   55CHL1    H6 4006   3.052   1.916   7.163  0.9854 -0.1982  1.6606
   55CHL1    C7 4007   3.111   2.078   7.304 -0.1802  0.2680  0.8966
   55CHL1   H7A 4008   3.079   2.022   7.395  2.2732 -0.4373  1.3575
   55CHL1   H7B 4009   3.221   2.067   7.311  0.0448 -0.0322 -2.2946
   55CHL1    C8 4010   3.089   2.229   7.326  0.7847 -0.5280  0.4837
   55CHL1    H8 4011   2.979   2.242   7.338  0.7613  0.7230 -0.9659
   55CHL1   C14 4012   3.171   2.284   7.446  0.6300 -0.1670  0.3655
   55CHL1   H14 4013   3.278   2.273   7.418  0.5458  1.7480 -0.8223
   55CHL1   C15 4014   3.145   2.216   7.584  0.6922 -0.8244 -0.1576
   55CHL1  H15A 4015   3.038   2.198   7.605  0.0780  0.0594 -2.4000
   55CHL1  H15B 4016   3.202   2.120   7.583  3.1040  0.5671 -0.3649
   55CHL1   C16 4017   3.220   2.315   7.683  0.1640  1.4372 -0.2272
   55CHL1  H16A 4018   3.155   2.339   7.770  1.3072  0.4584  0.9060
   55CHL1  H16B 4019   3.309   2.271   7.732  1.2155  1.6996 -1.8823
   55CHL1   C17 4020   3.254   2.444   7.602  0.2601  1.1799  0.1925
   55CHL1   H17 4021   3.351   2.423   7.552 -0.8372  0.6025 -1.7228
   55CHL1   C13 4022   3.160   2.433   7.474  0.2218  0.3188 -0.2878
   55CHL1   C18 4023   3.019   2.467   7.519 -0.1938  0.1689  0.8042
   55CHL1  H18A 4024   2.997   2.424   7.619 -1.2542 -0.0571  0.4857
   55CHL1  H18B 4025   3.015   2.577   7.533 -1.2186  0.4438 -1.4239
   55CHL1  H18C 4026   2.954   2.441   7.432  1.3552 -1.3193  0.0551
   55CHL1   C12 4027   3.207   2.511   7.347 -0.0069 -0.3071 -0.2974
   55CHL1  H12A 4028   3.186   2.619   7.358 -1.2631 -0.6121  0.4588
   55CHL1  H12B 4029   3.316   2.493   7.331  0.5563  2.4201  0.3315
   55CHL1   C11 4030   3.133   2.455   7.227  0.0256 -0.0252 -0.5221
   55CHL1  H11A 4031   3.028   2.491   7.238 -0.1580 -1.5332  3.0974
   55CHL1  H11B 4032   3.182   2.507   7.141 -3.8481  0.5656 -2.4797
   55CHL1    C9 4033   3.134   2.303   7.199  0.4869  0.0913  0.3243
   55CHL1    H9 4034   3.241   2.279   7.184  0.9810  2.0157  0.6033
   55CHL1   C10 4035   3.057   2.261   7.068 -0.1457  0.2501 -0.1053
   55CHL1   C19 4036   2.915   2.326   7.061 -0.0070  0.0373  0.2988
   55CHL1  H19A 4037   2.862   2.318   6.964  0.1315  2.2988  0.0026
   55CHL1  H19B 4038   2.846   2.293   7.142  1.4406  0.2281  1.6310
   55CHL1  H19C 4039   2.920   2.437   7.070 -1.0257  0.3721 -2.7967
   55CHL1    C1 4040   3.157   2.295   6.946 -0.0292  0.1665 -0.5199
   55CHL1   H1A 4041   3.167   2.406   6.948 -0.9578  0.2439  1.2081
   55CHL1   H1B 4042   3.261   2.258   6.960 -0.0539  0.9628  2.1603
   55CHL1    C2 4043   3.113   2.242   6.812 -0.1133  0.5924 -0.0079
   55CHL1   H2A 4044   3.179   2.269   6.727 -0.3433  2.1776  0.3060
   55CHL1   H2B 4045   3.016   2.288   6.783 -1.0091 -0.5415  1.1387
   55CHL1   C20 4046   3.283   2.562   7.692  0.4981  0.5088  0.4988
   55CHL1   H20 4047   3.199   2.563   7.765 -0.1434 -2.0897 -0.1274
   55CHL1   C21 4048   3.276   2.684   7.601 -0.5024 -0.0472  0.2621
   55CHL1  H21A 4049   3.175   2.694   7.555 -1.0014 -1.8697  0.9126
   55CHL1  H21B 4050   3.359   2.673   7.528 -1.0031  0.9940 -0.4942
   55CHL1  H21C 4051   3.285   2.779   7.657 -0.6619 -0.8052  1.5960
   55CHL1   C22 4052   3.412   2.552   7.777  0.5947 -0.3440 -1.0448
   55CHL1  H22A 4053   3.411   2.466   7.848 -0.7976  0.0392 -0.5847
   55CHL1  H22B 4054   3.494   2.526   7.707  0.3346 -0.4337 -1.3154
   55CHL1   C23 4055   3.443   2.674   7.859  0.6426  0.3869 -0.7315
   55CHL1  H23A 4056   3.552   2.678   7.878  0.7200  0.2437 -1.1471
   55CHL1  H23B 4057   3.416   2.770   7.809 -0.8713  0.8392  0.8884
   55CHL1   C24 4058   3.367   2.674   7.988 -0.4095 -0.3236  0.4336
   55CHL1  H24A 4059   3.263   2.639   7.972 -0.1554 -0.1372 -1.8258
   55CHL1  H24B 4060   3.413   2.603   8.060  0.0687  1.1873  1.6476
   55CHL1   C25 4061   3.371   2.809   8.056 -0.3879 -0.6342 -0.2959
   55CHL1   H25 4062   3.453   2.880   8.031 -0.1216 -1.3334 -1.4501
   55CHL1   C26 4063   3.242   2.883   8.019 -0.1640 -0.6677  0.6510
   55CHL1  H26A 4064   3.151   2.828   8.051 -0.8579  0.3160  0.3682
   55CHL1  H26B 4065   3.240   2.976   8.080  1.7778 -1.1541  1.4923
   55CHL1  H26C 4066   3.233   2.918   7.914 -0.1552  1.4368  1.3364
   55CHL1   C27 4067   3.373   2.798   8.210  0.1876 -0.7132 -0.3637
   55CHL1  H27A 4068   3.387   2.894   8.263  0.2540 -0.3992 -0.9522
   55CHL1  H27B 4069   3.278   2.749   8.241  1.2003 -1.5711  1.4992
   55CHL1  H27C 4070   3.455   2.732   8.247 -0.4392 -0.7057  1.0716
   56CHL1    C3 4071   2.520   1.173   6.833  1.1558  0.7938 -0.1912
   56CHL1    H3 4072   2.416   1.193   6.867  0.8860  0.3527 -0.7382
   56CHL1    O3 4073   2.511   1.158   6.692  0.0212  0.0745 -0.3692
   56CHL1   H3' 4074   2.601   1.150   6.658  0.5923  1.7294  0.7062
   56CHL1    C4 4075   2.618   1.281   6.879  0.7354  0.7129  0.1460
   56CHL1   H4A 4076   2.720   1.251   6.849  0.1793 -1.2750  0.2269
   56CHL1   H4B 4077   2.608   1.374   6.819 -2.6643 -0.7929 -1.7435
   56CHL1    C5 4078   2.601   1.305   7.027 -0.2370 -0.5133  0.5579
   56CHL1    C6 4079   2.565   1.424   7.076  0.3585  0.3974  1.1359
   56CHL1    H6 4080   2.549   1.509   7.007  0.5799  0.9632  1.7734
   56CHL1    C7 4081   2.558   1.455   7.223 -0.1559 -0.7169 -0.0366
   56CHL1   H7A 4082   2.606   1.552   7.249 -1.4955  0.0500 -0.3821
   56CHL1   H7B 4083   2.449   1.465   7.242 -0.2662  1.9842 -1.8572
   56CHL1    C8 4084   2.625   1.343   7.309  0.1925 -0.3367  0.0569
   56CHL1    H8 4085   2.736   1.351   7.303  0.1480  1.3418  1.0397
   56CHL1   C14 4086   2.569   1.356   7.448 -0.2224  0.4931  0.8413
   56CHL1   H14 4087   2.460   1.343   7.433 -0.1732  1.7461 -0.6615
   56CHL1   C15 4088   2.580   1.498   7.513  0.0081  0.2290 -0.0777
   56CHL1  H15A 4089   2.682   1.535   7.488 -0.1338  0.3869 -0.4269
   56CHL1  H15B 4090   2.502   1.571   7.484 -2.7778 -0.9519  3.9550
   56CHL1   C16 4091   2.567   1.472   7.663  0.0033 -0.2040  0.2232
   56CHL1  H16A 4092   2.657   1.497   7.722 -0.3892  0.4678  0.5451
   56CHL1  H16B 4093   2.482   1.531   7.704 -1.3564 -2.0505  0.1294
   56CHL1   C17 4094   2.544   1.318   7.681 -0.5159  0.1317 -0.6382
   56CHL1   H17 4095   2.433   1.319   7.674 -0.4367  0.1837 -2.2407
   56CHL1   C13 4096   2.610   1.255   7.555 -0.0278 -0.0748 -0.2730
   56CHL1   C18 4097   2.766   1.256   7.567 -0.0679 -0.9737 -0.6376
   56CHL1  H18A 4098   2.811   1.355   7.591  0.8984 -1.4324 -0.5013
   56CHL1  H18B 4099   2.794   1.180   7.643  0.7005 -0.2703 -0.2075
   56CHL1  H18C 4100   2.796   1.217   7.468  1.0229  0.3155 -0.8361
   56CHL1   C12 4101   2.563   1.118   7.499 -0.6276 -1.4993  0.2702
   56CHL1  H12A 4102   2.589   1.030   7.561 -0.4479  0.3333  2.8655
   56CHL1  H12B 4103   2.452   1.115   7.487 -0.7083 -0.7828  0.8486
   56CHL1   C11 4104   2.619   1.089   7.355  0.3516  0.3437 -0.3019
   56CHL1  H11A 4105   2.727   1.063   7.356 -0.3128 -2.5999 -0.9433
   56CHL1  H11B 4106   2.570   0.996   7.320  1.1766 -0.0137 -0.5194
   56CHL1    C9 4107   2.590   1.199   7.257 -0.1959  0.1691  0.1767
   56CHL1    H9 4108   2.479   1.201   7.257 -0.1819  1.7306  0.2031
   56CHL1   C10 4109   2.635   1.181   7.114 -0.3707 -0.5474 -0.0625
   56CHL1   C19 4110   2.788   1.150   7.110  0.2320 -0.0399  0.0742
   56CHL1  H19A 4111   2.829   1.122   7.011  0.7979 -0.5898  0.4559
   56CHL1  H19B 4112   2.848   1.233   7.153  1.8851 -1.1034 -0.1266
   56CHL1  H19C 4113   2.811   1.060   7.171 -0.9157 -1.5946 -1.7287
   56CHL1    C1 4114   2.572   1.051   7.050 -0.5838 -0.2915  0.1237
   56CHL1   H1A 4115   2.632   0.966   7.089  0.6279  2.1374  3.8396
   56CHL1   H1B 4116   2.468   1.039   7.088 -0.0858 -2.4372  0.9102
   56CHL1    C2 4117   2.562   1.037   6.896  0.0155 -0.2610  0.1502
   56CHL1   H2A 4118   2.485   0.961   6.871 -1.7178  1.3182  0.5761
   56CHL1   H2B 4119   2.657   1.003   6.850  0.7766  1.3861  0.4461
   56CHL1   C20 4120   2.584   1.261   7.821  0.2266  0.1628 -0.0388
   56CHL1   H20 4121   2.694   1.246   7.828 -0.1903 -2.8580  1.0750
   56CHL1   C21 4122   2.527   1.120   7.830 -0.3844  0.0568  0.4576
   56CHL1  H21A 4123   2.524   1.081   7.934  0.0286 -1.1680  0.0064
   56CHL1  H21B 4124   2.580   1.055   7.758 -0.9688  1.7220 -1.5030
   56CHL1  H21C 4125   2.419   1.129   7.804  0.0839  3.2878 -0.6408
   56CHL1   C22 4126   2.547   1.354   7.942  0.3580 -0.8394  0.4076
   56CHL1  H22A 4127   2.581   1.456   7.914 -0.7448 -0.6690 -0.3496
   56CHL1  H22B 4128   2.438   1.368   7.959  0.2331 -1.0676 -0.2045
   56CHL1   C23 4129   2.614   1.311   8.070  0.4460 -0.4563  0.6823
   56CHL1  H23A 4130   2.549   1.230   8.108 -0.7302 -0.9179 -2.1826
   56CHL1  H23B 4131   2.718   1.275   8.054 -0.5327 -1.9389 -2.9227
   56CHL1   C24 4132   2.599   1.423   8.172  0.2673 -0.0851  0.2803
   56CHL1  H24A 4133   2.657   1.511   8.137  2.1031 -0.8190  1.4079
   56CHL1  H24B 4134   2.492   1.451   8.170 -0.0569 -1.2958  0.0994
   56CHL1   C25 4135   2.640   1.399   8.318  0.0156 -0.2713 -0.1058
   56CHL1   H25 4136   2.746   1.368   8.317  0.0127 -0.2623 -0.8722
   56CHL1   C26 4137   2.624   1.533   8.400 -0.1021  0.3538  0.1823
   56CHL1  H26A 4138   2.685   1.612   8.351  0.1754  1.2697  1.9582
   56CHL1  H26B 4139   2.663   1.511   8.502  0.1678 -0.9879 -0.2015
   56CHL1  H26C 4140   2.522   1.575   8.403 -0.7999 -1.3105  0.3345
   56CHL1   C27 4141   2.553   1.286   8.371  0.5036  1.2529 -0.3555
   56CHL1  H27A 4142   2.577   1.189   8.323 -1.6901  0.9759 -0.9446
   56CHL1  H27B 4143   2.577   1.269   8.479 -1.8535  0.0391 -0.0010
   56CHL1  H27C 4144   2.449   1.312   8.345  0.1130 -0.4305 -0.5182
   57SAPC     N 4145   2.398   4.652  10.988 -0.4010  0.2412 -0.3853
   57SAPC   C12 4146   2.499   4.767  10.950 -0.9547 -0.1394 -0.2469
   57SAPC  H12A 4147   2.534   4.816  11.040  0.9333 -0.6148 -0.7208
   57SAPC  H12B 4148   2.442   4.846  10.903  0.5846 -0.4695 -2.7188
   57SAPC   C13 4149   2.310   4.705  11.096  0.2693 -0.2181  0.2967
   57SAPC  H13A 4150   2.252   4.621  11.132  0.1141 -0.8789 -1.4144
   57SAPC  H13B 4151   2.379   4.735  11.172  0.4479 -1.8206  0.7976
   57SAPC  H13C 4152   2.243   4.785  11.071  1.1044 -0.1316 -1.7969
   57SAPC   C14 4153   2.321   4.592  10.878  0.0084 -0.0933 -0.2668
   57SAPC  H14A 4154   2.278   4.499  10.913 -1.0358  1.1765  1.9650
   57SAPC  H14B 4155   2.233   4.647  10.850  1.0183  0.6826 -1.9353
   57SAPC  H14C 4156   2.383   4.574  10.792  1.3135 -0.7433  0.7755
   57SAPC   C15 4157   2.487   4.550  11.050 -0.0140 -0.0462 -0.4681
   57SAPC  H15A 4158   2.422   4.486  11.109 -2.3588  0.5607 -2.3120
   57SAPC  H15B 4159   2.530   4.486  10.976  1.1193 -0.3246  0.4180
   57SAPC  H15C 4160   2.560   4.595  11.116  2.1252 -1.6781 -1.6670
   57SAPC   C11 4161   2.615   4.738  10.858 -0.3295  0.2788  0.4771
   57SAPC  H11A 4162   2.673   4.654  10.902  0.7813  0.8532  0.1092
   57SAPC  H11B 4163   2.685   4.824  10.855  0.1207 -0.1427 -1.1290
   57SAPC     P 4164   2.542   4.815  10.620  0.0472  0.0343 -0.1251
   57SAPC   O13 4165   2.392   4.822  10.620 -0.3525 -0.4061  0.0049
   57SAPC   O14 4166   2.621   4.937  10.645  0.0684  0.1245 -0.3426
   57SAPC   O12 4167   2.579   4.706  10.723 -0.0281  0.2861  0.1979
   57SAPC   O11 4168   2.585   4.753  10.481 -0.2832 -0.0915 -0.6093
   57SAPC    C1 4169   2.522   4.643  10.426  0.3508  0.5275  0.3479
   57SAPC    HA 4170   2.531   4.556  10.495  0.3580  1.7788  1.9430
   57SAPC    HB 4171   2.413   4.657  10.408  0.3879  3.6318  2.1510
   57SAPC    C2 4172   2.592   4.605  10.287  0.5533 -0.8806  0.4072
   57SAPC    HS 4173   2.525   4.527  10.245  0.3578  0.2473 -1.4207
   57SAPC   O21 4174   2.725   4.545  10.309 -0.8821  0.3864 -0.4351
   57SAPC   C21 4175   2.726   4.430  10.374 -0.9144  0.4529  0.5505
   57SAPC   O22 4176   2.629   4.362  10.382 -0.1095  0.6074 -0.3946
   57SAPC   C22 4177   2.867   4.402  10.430  0.8254 -0.1148  0.0305
   57SAPC   H2R 4178   2.949   4.424  10.358 -0.2941  1.8012 -0.6998
   57SAPC   H2S 4179   2.869   4.475  10.513 -1.2656  1.0858 -0.9572
   57SAPC    C3 4180   2.598   4.715  10.180 -0.2249  0.5072  1.0581
   57SAPC    HX 4181   2.675   4.697  10.102  0.1302  2.3119  0.9853
   57SAPC    HY 4182   2.638   4.798  10.242 -2.8072  1.4755  1.5039
   57SAPC   O31 4183   2.462   4.743  10.128 -0.1393  0.1594 -0.4198
   57SAPC   C31 4184   2.444   4.872  10.114 -0.1729  0.1245 -0.2215
   57SAPC   O32 4185   2.515   4.964  10.150  0.0088  0.0482 -0.8470
   57SAPC   C32 4186   2.315   4.893  10.029 -0.1521 -0.3846 -0.2282
   57SAPC   H2X 4187   2.230   4.925  10.092 -0.2399 -0.7681 -0.1514
   57SAPC   H2Y 4188   2.295   4.796   9.979 -0.1959  0.6165 -2.2328
   57SAPC   C23 4189   2.885   4.265  10.504 -0.9902 -0.1668  0.0912
   57SAPC   H3R 4190   2.824   4.232  10.591  1.8006 -0.0229  2.1570
   57SAPC   H3S 4191   2.981   4.268  10.559 -0.5783  0.3567 -0.6447
   57SAPC   C24 4192   2.894   4.152  10.406 -0.5086  0.2024 -0.0386
   57SAPC   H4R 4193   2.946   4.189  10.315  2.1690  0.8017  1.6858
   57SAPC   H4S 4194   2.790   4.128  10.374 -0.7724  0.7377  0.4033
   57SAPC   C25 4195   2.966   4.032  10.466 -0.4303  0.3585 -0.1847
   57SAPC   H5R 4196   2.960   4.028  10.576 -2.5311  3.0092 -0.1592
   57SAPC   C26 4197   3.031   3.934  10.393  0.4912 -0.4908 -0.0513
   57SAPC   H6R 4198   3.087   3.854  10.443 -0.4934 -2.3181 -1.8316
   57SAPC   C27 4199   3.056   3.931  10.242  0.1373  0.0588 -0.3510
   57SAPC   H7R 4200   3.162   3.910  10.218  0.7969  1.6953  1.0317
   57SAPC   H7S 4201   3.045   4.036  10.207 -0.3807 -0.0780 -0.6151
   57SAPC   C28 4202   2.971   3.830  10.168  0.4308 -0.5943  0.8037
   57SAPC   H8R 4203   2.928   3.754  10.234 -1.1694  0.7446  1.3457
   57SAPC   C29 4204   2.952   3.823  10.032  0.0440  0.5197 -0.4566
   57SAPC   H9R 4205   2.893   3.741   9.988 -1.0821  1.3475 -0.5250
   57SAPC  C210 4206   3.016   3.922   9.931 -0.3375  0.1824  0.0171
   57SAPC  H10R 4207   3.083   3.871   9.858 -1.2861 -0.2574 -0.5467
   57SAPC  H10S 4208   3.070   4.001   9.987  0.0261  0.7428 -1.1178
   57SAPC  C211 4209   2.907   3.988   9.844 -0.4357  0.0072 -0.4416
   57SAPC  H11R 4210   2.839   3.918   9.791 -0.6865  0.5675 -0.8673
   57SAPC  C212 4211   2.882   4.120   9.850  0.4896  0.0673  1.1181
   57SAPC  H12R 4212   2.796   4.153   9.790  0.5566  0.2923  1.1449
   57SAPC  C213 4213   2.960   4.220   9.928  0.0003  1.1004 -0.1104
   57SAPC  H13R 4214   2.958   4.194  10.036 -1.4992  1.2235 -0.0914
   57SAPC  H13S 4215   2.892   4.308   9.934 -1.3558 -0.0951  3.2651
   57SAPC  C214 4216   3.100   4.251   9.885 -0.3259  0.0980 -0.0679
   57SAPC  H14R 4217   3.173   4.169   9.886  0.3015  0.6206  3.4979
   57SAPC  C215 4218   3.147   4.365   9.842 -0.0676 -0.0350  0.1896
   57SAPC  H15R 4219   3.252   4.384   9.814 -0.7742  0.0297 -2.5547
   57SAPC  C216 4220   3.052   4.487   9.826  0.0869 -0.5986  0.0461
   57SAPC  H16R 4221   2.951   4.463   9.788  0.7584 -1.4095 -1.2640
   57SAPC  H16S 4222   3.104   4.552   9.753  0.1972  0.1045  0.7478
   57SAPC  C217 4223   3.043   4.579   9.953  0.6024 -0.7062 -0.1823
   57SAPC  H17R 4224   3.145   4.621   9.964  0.0066  0.7522 -0.1076
   57SAPC  H17S 4225   3.008   4.511  10.033  2.2750 -3.2738 -1.5777
   57SAPC  C218 4226   2.942   4.696   9.950  0.2891 -0.1983  0.2288
   57SAPC  H18R 4227   2.842   4.657   9.922 -0.8294  2.2048  0.7142
   57SAPC  H18S 4228   2.959   4.766   9.865  0.0704 -0.4419 -0.0169
   57SAPC  C219 4229   2.933   4.768  10.089  0.1130  0.6456  0.1674
   57SAPC  H19R 4230   2.899   4.698  10.168 -1.6055  0.1562 -0.9520
   57SAPC  H19S 4231   2.863   4.854  10.084  0.1256  0.6070 -0.9029
   57SAPC  C220 4232   3.068   4.822  10.143  0.0872 -0.8930 -0.2527
   57SAPC  H20R 4233   3.043   4.878  10.236 -0.9295 -2.6900  0.5749
   57SAPC  H20S 4234   3.112   4.898  10.075 -1.6222  1.2323  0.9561
   57SAPC  H20T 4235   3.137   4.739  10.167  1.2947 -0.0321 -0.6836
   57SAPC   C33 4236   2.341   4.997   9.918  0.0385 -0.0501  0.0831
   57SAPC   H3X 4237   2.445   5.037   9.917 -0.3669  1.0147 -0.7829
   57SAPC   H3Y 4238   2.263   5.076   9.928  0.6463  0.8600 -1.9252
   57SAPC   C34 4239   2.317   4.922   9.782  0.5575  0.1032  0.2851
   57SAPC   H4X 4240   2.213   4.883   9.788  0.2202  0.8882 -0.2988
   57SAPC   H4Y 4241   2.378   4.829   9.780  1.6199  0.8016 -0.1976
   57SAPC   C35 4242   2.323   5.005   9.647 -0.1803  0.0798 -1.0012
   57SAPC   H5X 4243   2.431   5.028   9.636 -0.5662  3.0356  0.7490
   57SAPC   H5Y 4244   2.274   5.101   9.676 -1.7547 -0.5411 -1.5410
   57SAPC   C36 4245   2.265   4.925   9.535  0.7582 -0.3769 -0.2331
   57SAPC   H6X 4246   2.159   4.900   9.552  0.2522  1.7654 -0.1394
   57SAPC   H6Y 4247   2.318   4.827   9.531 -0.7702 -1.1773 -1.0755
   57SAPC   C37 4248   2.283   4.967   9.390 -0.2488  0.3500 -0.3718
   57SAPC   H7X 4249   2.221   5.057   9.370  0.0930  0.5384 -0.5848
   57SAPC   H7Y 4250   2.242   4.892   9.320  1.4739  0.9779 -2.0833
   57SAPC   C38 4251   2.425   5.006   9.354 -0.2791  0.2669  0.2463
   57SAPC   H8X 4252   2.484   4.927   9.406 -0.8952  0.0668  0.6450
   57SAPC   H8Y 4253   2.449   5.099   9.410  0.9583 -1.0081  1.8971
   57SAPC   C39 4254   2.458   5.000   9.201 -0.0853 -0.3828 -0.2346
   57SAPC   H9X 4255   2.431   4.900   9.159 -0.6535  0.8857 -2.9711
   57SAPC   H9Y 4256   2.567   5.018   9.194  0.0050 -0.1965  1.4762
   57SAPC  C310 4257   2.389   5.098   9.110 -0.5735 -0.1612 -0.3674
   57SAPC  H10X 4258   2.429   5.201   9.107 -0.0464 -0.3998 -2.8178
   57SAPC  H10Y 4259   2.280   5.092   9.127 -0.5351 -2.4282 -0.6698
   57SAPC  C311 4260   2.412   5.052   8.969  0.0357 -0.2395 -0.8556
   57SAPC  H11X 4261   2.331   5.107   8.917 -0.4427  1.4639  1.5767
   57SAPC  H11Y 4262   2.382   4.947   8.952 -0.7461  0.1288 -1.8060
   57SAPC  C312 4263   2.543   5.099   8.904 -0.4088 -0.0927 -0.0470
   57SAPC  H12X 4264   2.620   5.045   8.963 -2.5537 -1.9917  1.1026
   57SAPC  H12Y 4265   2.562   5.207   8.922  0.4754 -0.0057 -1.4658
   57SAPC  C313 4266   2.557   5.067   8.752 -0.3867  0.3615 -0.9059
   57SAPC  H13X 4267   2.504   4.974   8.722  0.0709 -0.6218  1.2614
   57SAPC  H13Y 4268   2.664   5.069   8.721 -0.4784  1.3769 -1.1609
   57SAPC  C314 4269   2.480   5.183   8.668 -0.5598 -0.2864 -0.1022
   57SAPC  H14X 4270   2.518   5.282   8.702 -2.0259  0.6461 -1.0715
   57SAPC  H14Y 4271   2.372   5.196   8.690 -0.4317  3.0268 -1.1594
   57SAPC  C315 4272   2.494   5.172   8.515 -0.1537 -0.1499  0.3616
   57SAPC  H15X 4273   2.465   5.067   8.493  0.1818 -0.4952  1.5360
   57SAPC  H15Y 4274   2.602   5.168   8.487 -0.3062 -0.7298 -0.1648
   57SAPC  C316 4275   2.418   5.280   8.425  0.1292 -0.1956 -0.1152
   57SAPC  H16X 4276   2.452   5.270   8.320  2.3203 -0.0657  0.5516
   57SAPC  H16Y 4277   2.438   5.386   8.456 -0.3280  0.0783 -0.7534
   57SAPC  C317 4278   2.262   5.253   8.432 -0.0741 -0.7352 -0.1443
   57SAPC  H17X 4279   2.212   5.324   8.363  1.8331 -0.4347 -1.2571
   57SAPC  H17Y 4280   2.226   5.268   8.536 -1.4100 -2.3625 -0.3538
   57SAPC  C318 4281   2.220   5.116   8.377  0.6675 -0.6486 -0.1445
   57SAPC  H18X 4282   2.259   5.094   8.275  1.1013 -2.8944  0.4743
   57SAPC  H18Y 4283   2.110   5.109   8.375  0.7553 -2.2163 -0.5410
   57SAPC  H18Z 4284   2.253   5.033   8.443  2.0434 -0.0101  0.0033
   58SAPC     N 4285   5.087   2.365  11.162 -0.6697  0.0411  0.1480
   58SAPC   C12 4286   5.012   2.416  11.041 -0.6048 -0.4497 -0.6851
   58SAPC  H12A 4287   5.046   2.518  11.031  0.8528 -0.9811 -1.2753
   58SAPC  H12B 4288   4.907   2.423  11.066 -0.0859  2.3622  1.0005
   58SAPC   C13 4289   5.233   2.393  11.144 -0.5418  0.4714 -0.7147
   58SAPC  H13A 4290   5.244   2.501  11.153  1.4513  0.1208  1.7297
   58SAPC  H13B 4291   5.296   2.349  11.220  0.2299  0.9448 -1.0745
   58SAPC  H13C 4292   5.266   2.344  11.054  0.4195 -0.2203 -0.0007
   58SAPC   C14 4293   5.043   2.444  11.282  0.0550  0.6495  0.1809
   58SAPC  H14A 4294   5.075   2.546  11.269 -2.1155  1.1819 -1.2324
   58SAPC  H14B 4295   4.935   2.444  11.277  0.0687  2.9161 -0.5765
   58SAPC  H14C 4296   5.086   2.413  11.376  0.2776 -0.0964 -0.1632
   58SAPC   C15 4297   5.053   2.217  11.175  0.3444  0.3358  0.2283
   58SAPC  H15A 4298   4.949   2.214  11.205 -0.3202 -0.4524 -2.0839
   58SAPC  H15B 4299   5.050   2.173  11.077  0.4969 -0.6599  0.6655
   58SAPC  H15C 4300   5.115   2.162  11.245  0.9059  1.1489  0.3738
   58SAPC   C11 4301   5.024   2.347  10.905  0.0090  0.5540  0.3073
   58SAPC  H11A 4302   5.129   2.316  10.884 -0.2776  0.3173 -0.8215
   58SAPC  H11B 4303   4.998   2.411  10.818  1.6637  1.9229  0.7969
   58SAPC     P 4304   4.791   2.234  10.892  0.2391  0.4031  0.6025
   58SAPC   O13 4305   4.738   2.099  10.866  0.0151 -0.1479 -0.4235
   58SAPC   O14 4306   4.748   2.315  11.006 -0.3267 -0.1436  0.3628
   58SAPC   O12 4307   4.948   2.226  10.916  0.7011 -0.5117 -0.3523
   58SAPC   O11 4308   4.782   2.320  10.764 -0.3188 -0.2919  0.4859
   58SAPC    C1 4309   4.821   2.269  10.637 -0.2173  0.0500 -0.0601
   58SAPC    HA 4310   4.931   2.252  10.640 -0.1624  0.1693 -1.2204
   58SAPC    HB 4311   4.778   2.169  10.615 -1.4109  0.8535 -1.4590
   58SAPC    C2 4312   4.778   2.356  10.519 -0.3135  0.4832  0.4070
   58SAPC    HS 4313   4.812   2.327  10.417 -1.4774 -1.1077  0.4550
   58SAPC   O21 4314   4.820   2.486  10.541 -0.2379 -0.0111  0.5427
   58SAPC   C21 4315   4.949   2.493  10.521 -0.3276 -0.0129 -0.2525
   58SAPC   O22 4316   5.022   2.403  10.484  0.3372 -0.1346  0.1338
   58SAPC   C22 4317   5.007   2.630  10.559  0.2237  0.2814  0.1301
   58SAPC   H2R 4318   4.936   2.707  10.523 -0.5378  0.8835  2.7684
   58SAPC   H2S 4319   5.013   2.647  10.669  3.0214  2.8371 -0.3559
   58SAPC    C3 4320   4.626   2.356  10.503 -0.4859 -0.0183  0.6795
   58SAPC    HX 4321   4.588   2.433  10.573  0.0164 -0.1808  1.1354
   58SAPC    HY 4322   4.577   2.263  10.539 -1.3187  0.7901  1.6527
   58SAPC   O31 4323   4.581   2.398  10.369  0.1650 -0.1389  0.3773
   58SAPC   C31 4324   4.583   2.295  10.281 -0.3010 -0.0538 -0.2824
   58SAPC   O32 4325   4.617   2.180  10.296  0.0589  0.2808  0.1699
   58SAPC   C32 4326   4.552   2.362  10.146  0.3945 -0.5935  0.4341
   58SAPC   H2X 4327   4.610   2.456  10.135  0.9948 -1.0723 -0.6212
   58SAPC   H2Y 4328   4.442   2.371  10.144  0.2490 -2.0531  0.9810
   58SAPC   C23 4329   5.144   2.648  10.509 -0.2484 -0.0715  0.3517
   58SAPC   H3R 4330   5.156   2.603  10.408 -3.1429 -1.6029  0.6350
   58SAPC   H3S 4331   5.202   2.589  10.584 -2.3584 -1.0792  1.2253
   58SAPC   C24 4332   5.196   2.792  10.498  0.5841 -0.5229 -0.3160
   58SAPC   H4R 4333   5.307   2.789  10.486  1.1120  0.5538  3.4340
   58SAPC   H4S 4334   5.187   2.838  10.599 -1.5393 -1.2493 -0.1734
   58SAPC   C25 4335   5.130   2.887  10.395 -0.2374  0.0362 -0.0679
   58SAPC   H5R 4336   5.023   2.910  10.407 -0.0465  0.8995 -0.0139
   58SAPC   C26 4337   5.184   2.953  10.291  0.4514  0.6975 -0.6780
   58SAPC   H6R 4338   5.114   3.002  10.222  0.3884  0.8236 -0.5260
   58SAPC   C27 4339   5.328   2.946  10.237  0.5844 -0.1991  0.0043
   58SAPC   H7R 4340   5.403   2.954  10.319  1.5397  0.9433 -0.9511
   58SAPC   H7S 4341   5.337   3.036  10.173 -1.9253 -1.5253 -2.3103
   58SAPC   C28 4342   5.354   2.823  10.151 -0.6536 -0.8518 -0.5372
   58SAPC   H8R 4343   5.361   2.735  10.215 -1.4538 -0.7590 -0.3175
   58SAPC   C29 4344   5.377   2.812  10.019  0.3264 -0.2459  1.1107
   58SAPC   H9R 4345   5.390   2.705   9.996 -0.9789 -0.3629  0.8661
   58SAPC  C210 4346   5.385   2.910   9.904 -0.1557 -0.0205 -0.3461
   58SAPC  H10R 4347   5.476   2.879   9.848  1.7497  1.1806  1.9782
   58SAPC  H10S 4348   5.414   3.009   9.944  1.1014  0.2728 -1.9335
   58SAPC  C211 4349   5.257   2.927   9.824  0.6972  0.0403  0.1826
   58SAPC  H11R 4350   5.166   2.947   9.882  0.1092 -2.1023  0.0529
   58SAPC  C212 4351   5.248   2.938   9.684  0.0417  0.0622 -0.3535
   58SAPC  H12R 4352   5.144   2.931   9.648  0.1365 -1.2434 -0.3991
   58SAPC  C213 4353   5.361   2.930   9.582  0.5054 -0.1780  0.4413
   58SAPC  H13R 4354   5.443   3.000   9.612  0.5473 -0.1224  0.1939
   58SAPC  H13S 4355   5.326   2.955   9.480  1.7001  1.4759  0.4123
   58SAPC  C214 4356   5.426   2.800   9.577  0.3611 -0.0526  0.2232
   58SAPC  H14R 4357   5.410   2.734   9.664 -2.0909 -2.2645 -1.8350
   58SAPC  C215 4358   5.493   2.747   9.477  0.0215  0.3920  0.9358
   58SAPC  H15R 4359   5.517   2.639   9.481  0.2348  0.4634  1.6420
   58SAPC  C216 4360   5.530   2.815   9.353 -0.0552  0.1230  0.1347
   58SAPC  H16R 4361   5.641   2.821   9.363 -0.0210  0.0575 -0.2013
   58SAPC  H16S 4362   5.503   2.923   9.343  1.9718  0.7800  1.4710
   58SAPC  C217 4363   5.486   2.744   9.232 -0.7206  0.1338  0.2435
   58SAPC  H17R 4364   5.530   2.644   9.249 -3.4003 -0.6006  3.2345
   58SAPC  H17S 4365   5.536   2.781   9.139 -2.6113 -0.1281 -0.9118
   58SAPC  C218 4366   5.340   2.742   9.198  0.3182  0.1829 -0.8987
   58SAPC  H18R 4367   5.322   2.843   9.155 -0.3451  0.0972 -0.8300
   58SAPC  H18S 4368   5.284   2.725   9.292  2.2405  1.5510  0.5208
   58SAPC  C219 4369   5.291   2.631   9.113  0.4068  0.0726  0.2617
   58SAPC  H19R 4370   5.180   2.624   9.107  0.3562 -0.5003  1.6274
   58SAPC  H19S 4371   5.314   2.533   9.159 -3.1838 -0.5385  0.9015
   58SAPC  C220 4372   5.345   2.636   8.969 -0.2454 -0.0371  0.0097
   58SAPC  H20R 4373   5.305   2.548   8.916 -1.6167  0.6396 -0.1015
   58SAPC  H20S 4374   5.456   2.625   8.975 -0.2167  0.7539  1.2668
   58SAPC  H20T 4375   5.314   2.728   8.915 -0.2401 -1.0232 -1.7152
   58SAPC   C33 4376   4.588   2.266  10.019  0.4334  0.8892  0.3056
   58SAPC   H3X 4377   4.525   2.174  10.022 -0.6605  1.6268  0.2627
   58SAPC   H3Y 4378   4.695   2.237  10.029  0.5789  0.2829 -2.5239
   58SAPC   C34 4379   4.568   2.339   9.879 -0.9350 -0.2547  0.0445
   58SAPC   H4X 4380   4.603   2.444   9.883 -0.8224 -0.3228  0.9958
   58SAPC   H4Y 4381   4.458   2.346   9.874 -1.0911 -2.2193  0.1316
   58SAPC   C35 4382   4.644   2.251   9.779 -0.0989  0.0235  0.5465
   58SAPC   H5X 4383   4.613   2.144   9.786  1.4860 -0.5060 -0.1370
   58SAPC   H5Y 4384   4.751   2.247   9.809  0.3340  1.5576 -0.7411
   58SAPC   C36 4385   4.619   2.291   9.638  0.5252  0.6967 -0.5208
   58SAPC   H6X 4386   4.650   2.396   9.616  0.0704  0.6789 -1.2652
   58SAPC   H6Y 4387   4.509   2.282   9.625  0.4587 -0.5890  0.8414
   58SAPC   C37 4388   4.688   2.208   9.535  0.4167 -0.0919  0.7703
   58SAPC   H7X 4389   4.710   2.104   9.566  4.0501 -0.3693 -2.3532
   58SAPC   H7Y 4390   4.788   2.255   9.527 -0.2711  1.5376  1.4964
   58SAPC   C38 4391   4.619   2.207   9.395  0.1407 -0.5359 -0.0103
   58SAPC   H8X 4392   4.594   2.314   9.375  0.2057 -0.3898  0.6907
   58SAPC   H8Y 4393   4.521   2.156   9.395  0.2644 -0.7868  1.3845
   58SAPC   C39 4394   4.693   2.127   9.288  0.8278 -0.2481 -0.1635
   58SAPC   H9X 4395   4.711   2.030   9.339 -1.4674 -0.4748  0.2350
   58SAPC   H9Y 4396   4.795   2.172   9.278  1.1417 -1.4725 -2.8278
   58SAPC  C310 4397   4.609   2.100   9.162  0.2850  0.7317 -0.6330
   58SAPC  H10X 4398   4.554   2.192   9.134 -1.1550  0.1021  0.1323
   58SAPC  H10Y 4399   4.543   2.010   9.162 -0.9300  1.6160 -0.2166
   58SAPC  C311 4400   4.708   2.072   9.042 -0.1239 -0.0637 -0.3526
   58SAPC  H11X 4401   4.766   1.979   9.061  0.7246  0.6881  0.8041
   58SAPC  H11Y 4402   4.782   2.155   9.040  0.4687 -0.5641  0.4422
   58SAPC  C312 4403   4.626   2.072   8.915  0.0840 -0.7705  0.3133
   58SAPC  H12X 4404   4.571   2.168   8.918  1.6070  0.0870  1.6384
   58SAPC  H12Y 4405   4.559   1.984   8.919  0.4376 -1.0046  1.2433
   58SAPC  C313 4406   4.697   2.056   8.781  0.2613  0.6857  0.6975
   58SAPC  H13X 4407   4.626   2.021   8.703  1.6939 -0.8232  0.0509
   58SAPC  H13Y 4408   4.779   1.982   8.785 -1.1163 -0.8548  1.1158
   58SAPC  C314 4409   4.775   2.184   8.742  0.2031 -1.1656  0.6197
   58SAPC  H14X 4410   4.813   2.228   8.837 -1.3870  2.2614 -0.2592
   58SAPC  H14Y 4411   4.701   2.258   8.705  1.4206  0.5642  1.5595
   58SAPC  C315 4412   4.887   2.162   8.645 -0.2134  0.5604 -0.6901
   58SAPC  H15X 4413   4.858   2.113   8.550  1.3982 -1.6327 -0.1038
   58SAPC  H15Y 4414   4.955   2.098   8.706 -0.7041  1.1546  0.5007
   58SAPC  C316 4415   4.962   2.291   8.599 -0.2786 -0.6626  0.6579
   58SAPC  H16X 4416   4.894   2.364   8.549 -1.1053  0.4707  3.3348
   58SAPC  H16Y 4417   5.032   2.263   8.517  0.0124 -0.3656  0.8070
   58SAPC  C317 4418   5.027   2.371   8.716  0.1918 -0.4425 -0.8303
   58SAPC  H17X 4419   5.073   2.301   8.788  0.9219  2.6284  1.8146
   58SAPC  H17Y 4420   4.948   2.412   8.783 -0.6765  3.5422 -4.0758
   58SAPC  C318 4421   5.109   2.488   8.662  0.2004  0.7116  0.9127
   58SAPC  H18X 4422   5.044   2.575   8.639 -2.1948 -1.7793 -2.2271
   58SAPC  H18Y 4423   5.161   2.451   8.571 -1.6045  0.4709 -0.0297
   58SAPC  H18Z 4424   5.179   2.512   8.745 -0.2387  1.0961  1.1746
   59SAPC     N 4425   6.140   3.514  11.219 -0.3556  0.1966  0.7476
   59SAPC   C12 4426   6.051   3.565  11.110  0.1875  0.0041  0.0625
   59SAPC  H12A 4427   5.948   3.580  11.138 -0.3006 -0.4636 -1.4246
   59SAPC  H12B 4428   6.029   3.477  11.050 -2.4754  0.5710  0.1351
   59SAPC   C13 4429   6.078   3.387  11.277  0.9721 -0.1149 -0.0443
   59SAPC  H13A 4430   5.973   3.399  11.300  1.4977  0.5733  2.0540
   59SAPC  H13B 4431   6.090   3.306  11.207 -0.3323 -0.8288  0.5499
   59SAPC  H13C 4432   6.126   3.357  11.368 -0.1653  2.8725  1.6384
   59SAPC   C14 4433   6.286   3.484  11.177  0.0256 -0.7744  0.0129
   59SAPC  H14A 4434   6.338   3.439  11.260  0.0398  0.3199  0.6093
   59SAPC  H14B 4435   6.287   3.413  11.096 -0.7186 -1.3237  0.4790
   59SAPC  H14C 4436   6.332   3.578  11.151  0.0328 -0.6017  0.6309
   59SAPC   C15 4437   6.145   3.614  11.327  0.2113 -0.0182  0.0247
   59SAPC  H15A 4438   6.045   3.630  11.365 -0.5497 -0.5218 -1.7269
   59SAPC  H15B 4439   6.205   3.589  11.414  1.5438 -0.3059 -0.9598
   59SAPC  H15C 4440   6.175   3.709  11.286  2.0090  0.4876  2.4007
   59SAPC   C11 4441   6.101   3.687  11.027  0.6874  0.3968  1.0583
   59SAPC  H11A 4442   6.030   3.696  10.942 -0.4340 -0.1206  1.9410
   59SAPC  H11B 4443   6.197   3.656  10.980  0.6432 -0.4244  1.5002
   59SAPC     P 4444   6.230   3.904  11.101  0.1090 -0.0153 -0.1467
   59SAPC   O13 4445   6.217   3.987  11.223 -0.1246 -0.0768 -0.0621
   59SAPC   O14 4446   6.357   3.834  11.093  0.3892  0.2600  0.2673
   59SAPC   O12 4447   6.107   3.808  11.099  0.1572  0.4040 -0.2359
   59SAPC   O11 4448   6.212   4.000  10.973 -0.6136  0.2997 -0.2248
   59SAPC    C1 4449   6.096   3.992  10.888  0.6611 -0.8496  0.2021
   59SAPC    HA 4450   6.004   3.942  10.926  0.0458  0.1745  0.0993
   59SAPC    HB 4451   6.050   4.092  10.871  3.2744  0.4374  0.5337
   59SAPC    C2 4452   6.125   3.931  10.750 -0.6044  0.3322 -0.1233
   59SAPC    HS 4453   6.141   3.823  10.771  0.9796  0.5296 -0.2304
   59SAPC   O21 4454   6.233   3.990  10.682 -0.2661 -0.8035 -0.3180
   59SAPC   C21 4455   6.356   3.955  10.718 -0.0885 -0.2717 -0.0851
   59SAPC   O22 4456   6.395   3.861  10.783  0.6424  0.2299  0.1252
   59SAPC   C22 4457   6.457   4.065  10.666  0.2726  0.4639 -0.3085
   59SAPC   H2R 4458   6.407   4.127  10.589  1.3627 -0.3816 -1.7266
   59SAPC   H2S 4459   6.487   4.126  10.754  2.1869  1.7239 -1.7990
   59SAPC    C3 4460   6.003   3.935  10.655  0.1622 -0.6172  0.8677
   59SAPC    HX 4461   5.985   4.041  10.629 -0.9481 -1.1649 -0.6778
   59SAPC    HY 4462   5.914   3.887  10.700 -0.8589 -0.2267 -0.7066
   59SAPC   O31 4463   6.022   3.853  10.532  0.0595  0.8995 -0.3632
   59SAPC   C31 4464   6.077   3.915  10.435  0.1586  0.2032  0.6604
   59SAPC   O32 4465   6.073   4.035  10.422  0.0682  0.7521 -0.0895
   59SAPC   C32 4466   6.138   3.818  10.338 -0.5600 -0.4642  0.5870
   59SAPC   H2X 4467   6.058   3.762  10.286 -0.2979  0.7624 -1.1671
   59SAPC   H2Y 4468   6.198   3.749  10.402 -0.0973  0.2492  0.9296
   59SAPC   C23 4469   6.583   3.991  10.611  0.1289 -0.5567  0.2469
   59SAPC   H3R 4470   6.634   3.942  10.697 -2.4524 -2.6015  0.6728
   59SAPC   H3S 4471   6.650   4.069  10.570 -0.3814 -0.6877 -0.8695
   59SAPC   C24 4472   6.567   3.876  10.504  0.1368 -0.1716 -0.3956
   59SAPC   H4R 4473   6.479   3.814  10.530  1.5595 -1.5644  1.1884
   59SAPC   H4S 4474   6.658   3.816  10.526 -1.9732 -2.2899  2.9938
   59SAPC   C25 4475   6.551   3.943  10.370 -0.0838  0.6077 -0.5072
   59SAPC   H5R 4476   6.456   3.995  10.347 -0.6246 -0.9547 -1.9324
   59SAPC   C26 4477   6.654   3.954  10.287  0.0450  0.2688  0.6802
   59SAPC   H6R 4478   6.645   4.020  10.200 -0.8686 -1.1227 -0.2992
   59SAPC   C27 4479   6.793   3.899  10.310 -0.7549  0.2249  0.1445
   59SAPC   H7R 4480   6.844   3.928  10.216  0.3274  2.2172  1.3016
   59SAPC   H7S 4481   6.777   3.789  10.302 -0.2698  0.1783 -0.2684
   59SAPC   C28 4482   6.877   3.940  10.425  1.1412  0.3989 -0.7466
   59SAPC   H8R 4483   6.846   4.020  10.494  1.9172 -0.2460  0.3710
   59SAPC   C29 4484   6.991   3.889  10.464  0.8738  0.0186  0.6196
   59SAPC   H9R 4485   7.032   3.924  10.560  2.5953  0.5267 -0.2835
   59SAPC  C210 4486   7.058   3.768  10.406 -0.1213  0.7473  0.0543
   59SAPC  H10R 4487   6.980   3.697  10.373  0.7599  1.4343 -3.6488
   59SAPC  H10S 4488   7.116   3.721  10.489 -1.1459  2.2562  1.6761
   59SAPC  C211 4489   7.163   3.812  10.301 -0.0986  0.3466 -0.1415
   59SAPC  H11R 4490   7.252   3.864  10.338  0.2239 -1.0395  1.0973
   59SAPC  C212 4491   7.174   3.775  10.171  0.1484 -0.7043  0.2224
   59SAPC  H12R 4492   7.258   3.805  10.105  0.1567  3.1160  1.8241
   59SAPC  C213 4493   7.063   3.688  10.111 -0.2792 -0.5253  0.4070
   59SAPC  H13R 4494   6.964   3.729  10.142 -0.0796  1.2455 -1.2288
   59SAPC  H13S 4495   7.071   3.590  10.163 -0.7518 -0.6352  0.2760
   59SAPC  C214 4496   7.081   3.705   9.964 -0.1528 -0.4817  0.1326
   59SAPC  H14R 4497   7.114   3.608   9.923  0.0577 -0.6388  0.6802
   59SAPC  C215 4498   7.047   3.802   9.881  0.5845 -0.3789 -0.7632
   59SAPC  H15R 4499   7.080   3.800   9.776  1.8560 -0.3895 -0.3736
   59SAPC  C216 4500   6.973   3.932   9.922  0.4234  0.2028 -0.2826
   59SAPC  H16R 4501   7.021   4.023   9.879  1.6468 -0.6590 -0.7767
   59SAPC  H16S 4502   6.976   3.947  10.032 -0.2268 -2.2255  0.0980
   59SAPC  C217 4503   6.821   3.940   9.896 -0.3695  0.2033  0.2950
   59SAPC  H17R 4504   6.794   4.042   9.930  2.0595  0.4683  1.5325
   59SAPC  H17S 4505   6.786   3.868   9.972  0.6328  0.7961  1.3362
   59SAPC  C218 4506   6.774   3.905   9.757 -0.8262 -0.0535 -0.9085
   59SAPC  H18R 4507   6.666   3.932   9.752 -0.7905  0.0986 -0.8756
   59SAPC  H18S 4508   6.783   3.798   9.730 -1.8146  0.2714 -2.6387
   59SAPC  C219 4509   6.849   3.981   9.651 -0.1458  0.6011 -0.8953
   59SAPC  H19R 4510   6.954   3.945   9.650 -0.1985  0.3921  0.1385
   59SAPC  H19S 4511   6.844   4.090   9.673  0.6744  0.4075  0.2903
   59SAPC  C220 4512   6.800   3.974   9.505  0.6613  0.6381 -0.4318
   59SAPC  H20R 4513   6.754   3.874   9.487  3.2351 -0.0581 -3.7595
   59SAPC  H20S 4514   6.879   4.002   9.432  2.3846 -0.7476  0.8373
   59SAPC  H20T 4515   6.723   4.053   9.499 -0.0241 -0.0326 -0.5009
   59SAPC   C33 4516   6.219   3.886  10.228  0.1408  0.2226 -0.5339
   59SAPC   H3X 4517   6.298   3.818  10.190  1.9502  1.6345  0.6246
   59SAPC   H3Y 4518   6.262   3.984  10.258  0.8649  0.1138 -1.1889
   59SAPC   C34 4519   6.138   3.924  10.109 -0.0366 -0.3156  0.2657
   59SAPC   H4X 4520   6.055   3.992  10.136  0.1002  1.9211 -4.5639
   59SAPC   H4Y 4521   6.087   3.833  10.072  0.5607 -0.4161 -0.3290
   59SAPC   C35 4522   6.235   3.974   9.998  0.7840  0.5915  0.2275
   59SAPC   H5X 4523   6.342   3.951  10.016  0.7175  0.2306  0.1773
   59SAPC   H5Y 4524   6.233   4.085  10.005 -3.7293  0.6931 -1.0807
   59SAPC   C36 4525   6.180   3.934   9.857 -0.1079 -0.0046  0.1980
   59SAPC   H6X 4526   6.078   3.978   9.851  0.4493  1.6231  2.0284
   59SAPC   H6Y 4527   6.173   3.824   9.848 -0.2902 -0.2074  2.5520
   59SAPC   C37 4528   6.285   3.966   9.751 -0.0366  0.4044 -0.3301
   59SAPC   H7X 4529   6.385   3.941   9.791 -1.6139 -0.3205  3.3137
   59SAPC   H7Y 4530   6.271   4.077   9.745 -1.4234  0.1469 -2.3691
   59SAPC   C38 4531   6.270   3.899   9.616 -0.6473  0.2427  0.2719
   59SAPC   H8X 4532   6.171   3.919   9.571  0.2390  1.8812 -1.0149
   59SAPC   H8Y 4533   6.290   3.790   9.618 -2.0741 -0.0091  3.3594
   59SAPC   C39 4534   6.381   3.948   9.515 -0.0322 -0.4836 -0.0641
   59SAPC   H9X 4535   6.475   3.950   9.574  0.3696 -1.1995 -0.6804
   59SAPC   H9Y 4536   6.359   4.052   9.483  0.2927 -0.7341 -1.1012
   59SAPC  C310 4537   6.399   3.869   9.388 -0.4726 -0.1742  0.7527
   59SAPC  H10X 4538   6.303   3.863   9.332  0.4282 -0.1537 -0.8228
   59SAPC  H10Y 4539   6.438   3.768   9.412 -0.3506  0.1156  1.8144
   59SAPC  C311 4540   6.494   3.930   9.285 -0.2596  0.1477 -0.1365
   59SAPC  H11X 4541   6.596   3.940   9.326 -0.1212 -2.1995  0.1560
   59SAPC  H11Y 4542   6.458   4.032   9.257 -1.4318 -0.0330  0.6622
   59SAPC  C312 4543   6.520   3.854   9.157 -0.0671  0.1763  0.7834
   59SAPC  H12X 4544   6.429   3.850   9.093 -0.9164 -1.2093  2.0513
   59SAPC  H12Y 4545   6.549   3.749   9.177  1.0218 -0.4089 -3.3429
   59SAPC  C313 4546   6.623   3.926   9.071 -0.4231 -0.1691  0.2736
   59SAPC  H13X 4547   6.716   3.938   9.131  1.8474  0.7916 -3.3259
   59SAPC  H13Y 4548   6.589   4.028   9.043 -0.7468 -0.3162  0.1208
   59SAPC  C314 4549   6.660   3.852   8.949  0.3081 -0.4133  0.0164
   59SAPC  H14X 4550   6.713   3.918   8.877 -1.2352  1.1519  0.2910
   59SAPC  H14Y 4551   6.567   3.830   8.893  0.6350  0.3685 -0.8278
   59SAPC  C315 4552   6.744   3.731   8.966 -0.2891  0.7164  0.2888
   59SAPC  H15X 4553   6.669   3.650   8.979 -0.3395  0.5588 -0.9137
   59SAPC  H15Y 4554   6.806   3.739   9.058  0.8090 -0.6402 -0.3074
   59SAPC  C316 4555   6.842   3.699   8.858 -0.1123 -0.4770  0.0562
   59SAPC  H16X 4556   6.878   3.596   8.880 -2.3181 -1.4031 -0.5988
   59SAPC  H16Y 4557   6.931   3.765   8.856 -1.9414  2.0398 -0.3255
   59SAPC  C317 4558   6.790   3.693   8.711  0.0917 -0.6253 -0.5932
   59SAPC  H17X 4559   6.868   3.686   8.633 -0.7275  0.6004 -1.5513
   59SAPC  H17Y 4560   6.742   3.790   8.686  1.1994 -0.3600 -1.7140
   59SAPC  C318 4561   6.692   3.576   8.688  0.3370  0.2059 -0.8254
   59SAPC  H18X 4562   6.653   3.576   8.584 -1.9896  1.6799 -0.0061
   59SAPC  H18Y 4563   6.602   3.584   8.753  1.3156  1.1712  0.4366
   59SAPC  H18Z 4564   6.740   3.479   8.711  0.7011  0.0485 -2.2271
   60SAPC     N 4565   1.772   2.553  10.953 -0.0577  0.3426 -0.1225
   60SAPC   C12 4566   1.779   2.447  10.838 -0.2481  0.3339  0.5308
   60SAPC  H12A 4567   1.784   2.348  10.879  2.2960  0.3834  0.4346
   60SAPC  H12B 4568   1.873   2.458  10.786 -0.5274 -1.0069 -0.2685
   60SAPC   C13 4569   1.904   2.530  11.022  0.2501  0.3321  0.0323
   60SAPC  H13A 4570   1.973   2.571  10.950  1.4975 -1.1273  0.3774
   60SAPC  H13B 4571   1.909   2.576  11.120  1.1308  0.2522  0.0223
   60SAPC  H13C 4572   1.924   2.424  11.021  0.1689  0.2578  2.6636
   60SAPC   C14 4573   1.748   2.690  10.911  0.0996 -0.3952  0.7200
   60SAPC  H14A 4574   1.645   2.699  10.880  0.1955  0.9461  0.7273
   60SAPC  H14B 4575   1.763   2.767  10.985 -1.3380 -0.1996  0.8311
   60SAPC  H14C 4576   1.806   2.723  10.826  1.9055  0.1496  2.1306
   60SAPC   C15 4577   1.661   2.517  11.051 -0.2259 -0.1600 -0.0113
   60SAPC  H15A 4578   1.566   2.522  11.000 -0.1801  0.8881 -0.0018
   60SAPC  H15B 4579   1.668   2.416  11.091 -3.5292 -1.4972 -2.5483
   60SAPC  H15C 4580   1.671   2.584  11.135 -0.0185  1.2189 -1.1181
   60SAPC   C11 4581   1.662   2.443  10.727  0.1820 -0.1262  0.8242
   60SAPC  H11A 4582   1.686   2.365  10.653  0.8186  0.8348  0.0157
   60SAPC  H11B 4583   1.655   2.534  10.664 -1.5633 -0.1571  0.9348
   60SAPC     P 4584   1.508   2.264  10.845  0.2382  0.8673  0.1971
   60SAPC   O13 4585   1.632   2.197  10.885 -0.3530  0.7029  0.0963
   60SAPC   O14 4586   1.402   2.275  10.948 -0.1621 -0.3853 -0.1089
   60SAPC   O12 4587   1.537   2.410  10.789 -0.0731 -0.1167 -0.0961
   60SAPC   O11 4588   1.443   2.190  10.725 -0.1559 -0.0885 -0.3201
   60SAPC    C1 4589   1.513   2.170  10.600  0.0051 -0.5254 -0.2995
   60SAPC    HA 4590   1.622   2.187  10.607 -0.3612  1.0431  2.3166
   60SAPC    HB 4591   1.492   2.069  10.558 -0.1907 -0.9594  0.8334
   60SAPC    C2 4592   1.463   2.275  10.496 -0.3010 -0.0276  0.5022
   60SAPC    HS 4593   1.474   2.379  10.534 -0.1713  0.2890 -0.3946
   60SAPC   O21 4594   1.329   2.224  10.468  0.5544 -0.0519 -0.1187
   60SAPC   C21 4595   1.238   2.318  10.438  0.0154 -0.6130  0.0706
   60SAPC   O22 4596   1.260   2.438  10.450  0.0835 -0.5248 -0.0728
   60SAPC   C22 4597   1.106   2.255  10.387  0.5658  0.5610  0.4390
   60SAPC   H2R 4598   1.105   2.144  10.392  0.5806  0.5636  0.5110
   60SAPC   H2S 4599   1.023   2.285  10.455 -1.6979 -0.0084 -2.0174
   60SAPC    C3 4600   1.549   2.268  10.366  0.3435 -0.0120  0.0769
   60SAPC    HX 4601   1.546   2.162  10.334 -0.8411  0.4521 -1.4598
   60SAPC    HY 4602   1.656   2.295  10.377 -0.2373  1.7841  1.7675
   60SAPC   O31 4603   1.484   2.332  10.250  0.2175 -0.2689 -0.3520
   60SAPC   C31 4604   1.515   2.465  10.237 -0.0138  0.5897  0.1389
   60SAPC   O32 4605   1.590   2.528  10.310 -0.1665  0.1989  0.3599
   60SAPC   C32 4606   1.429   2.518  10.128 -0.0907  0.2491  0.8719
   60SAPC   H2X 4607   1.468   2.615  10.088  0.9540  0.3426  2.0776
   60SAPC   H2Y 4608   1.330   2.555  10.162 -1.3196 -2.0131 -0.1430
   60SAPC   C23 4609   1.068   2.307  10.249  0.5483  0.1998 -0.2384
   60SAPC   H3R 4610   1.151   2.367  10.206 -0.2378  1.8559  0.4853
   60SAPC   H3S 4611   0.985   2.381  10.260  0.4488 -0.1319  1.4678
   60SAPC   C24 4612   1.026   2.208  10.134  0.1072  0.0729 -0.2077
   60SAPC   H4R 4613   1.110   2.136  10.129  1.1848  1.4373 -3.9603
   60SAPC   H4S 4614   1.038   2.259  10.036 -1.5113 -0.8452 -0.9050
   60SAPC   C25 4615   0.906   2.124  10.166 -0.3797 -0.3556  0.8228
   60SAPC   H5R 4616   0.913   2.058  10.253  0.5725 -0.8909  0.3513
   60SAPC   C26 4617   0.796   2.124  10.090  0.6224  0.3858  0.2896
   60SAPC   H6R 4618   0.711   2.061  10.120  1.3932 -1.6281 -1.5786
   60SAPC   C27 4619   0.758   2.206   9.965  0.4591 -0.8910  0.2004
   60SAPC   H7R 4620   0.850   2.266   9.946 -0.8853  0.9544 -0.5213
   60SAPC   H7S 4621   0.678   2.279   9.987 -0.3948 -1.3025 -1.4801
   60SAPC   C28 4622   0.712   2.121   9.843  0.0617 -0.1158 -0.1134
   60SAPC   H8R 4623   0.633   2.054   9.880  1.0698 -1.2434  0.0300
   60SAPC   C29 4624   0.751   2.129   9.713  0.4020 -0.0811 -0.2048
   60SAPC   H9R 4625   0.699   2.059   9.647  0.1022 -0.4823  0.4525
   60SAPC  C210 4626   0.855   2.224   9.658 -0.4716 -0.1074  0.1851
   60SAPC  H10R 4627   0.927   2.161   9.602 -1.6956 -0.9691 -0.4192
   60SAPC  H10S 4628   0.922   2.265   9.737 -0.8702  0.4839  0.2267
   60SAPC  C211 4629   0.811   2.340   9.577  0.4181 -0.0948  0.0996
   60SAPC  H11R 4630   0.741   2.400   9.637  0.7542  0.6687 -0.2646
   60SAPC  C212 4631   0.830   2.375   9.451  0.1855 -0.3480  0.5208
   60SAPC  H12R 4632   0.786   2.465   9.405  0.9230 -0.4949 -0.5052
   60SAPC  C213 4633   0.908   2.299   9.353 -0.0774  0.0581  0.3908
   60SAPC  H13R 4634   0.951   2.213   9.409  0.2375 -1.0112 -1.4373
   60SAPC  H13S 4635   1.003   2.354   9.334  0.7566 -2.3217 -2.8462
   60SAPC  C214 4636   0.834   2.261   9.221 -0.5757 -0.1778 -0.0779
   60SAPC  H14R 4637   0.752   2.191   9.243 -1.1625  0.0530 -1.5096
   60SAPC  C215 4638   0.853   2.312   9.102 -0.0132  0.6155 -0.0162
   60SAPC  H15R 4639   0.800   2.273   9.014 -2.0644 -1.2076  1.9511
   60SAPC  C216 4640   0.953   2.425   9.084 -0.8391  0.4734 -0.4117
   60SAPC  H16R 4641   1.055   2.391   9.054 -0.9957 -0.0413 -0.3726
   60SAPC  H16S 4642   0.954   2.492   9.173 -2.0844  2.4168 -1.8332
   60SAPC  C217 4643   0.909   2.525   8.983 -0.3582 -0.4987 -0.4015
   60SAPC  H17R 4644   0.968   2.619   8.987  0.1362 -0.7696 -1.2892
   60SAPC  H17S 4645   0.805   2.557   9.008 -1.1829 -1.8420 -2.0035
   60SAPC  C218 4646   0.908   2.484   8.835  0.4849 -0.8284  0.2053
   60SAPC  H18R 4647   0.836   2.406   8.804 -2.0797  1.9592 -1.0694
   60SAPC  H18S 4648   1.012   2.449   8.818 -0.7317 -3.5722 -1.9302
   60SAPC  C219 4649   0.904   2.612   8.749  0.3872  0.0254 -0.1581
   60SAPC  H19R 4650   0.961   2.689   8.805  0.2900  1.3302 -1.7919
   60SAPC  H19S 4651   0.798   2.645   8.749  0.7711  1.3049  0.1994
   60SAPC  C220 4652   0.958   2.605   8.598 -0.0140  0.2286  1.2542
   60SAPC  H20R 4653   0.962   2.708   8.555 -3.7778  0.0259  0.2340
   60SAPC  H20S 4654   0.898   2.530   8.542  1.2847  0.8165 -0.9946
   60SAPC  H20T 4655   1.061   2.564   8.597  0.1022  0.5011  1.9441
   60SAPC   C33 4656   1.401   2.424  10.012  0.1721 -0.1077 -1.1378
   60SAPC   H3X 4657   1.305   2.464   9.972 -0.1087  0.2041 -0.1619
   60SAPC   H3Y 4658   1.382   2.320  10.046  3.0249 -0.1229  0.6638
   60SAPC   C34 4659   1.512   2.408   9.899 -0.1786  0.7284 -0.4360
   60SAPC   H4X 4660   1.483   2.318   9.841 -0.5419  1.4752 -1.4273
   60SAPC   H4Y 4661   1.614   2.403   9.943 -0.3358  1.2447  0.0086
   60SAPC   C35 4662   1.488   2.532   9.809  0.2576  0.1331  0.3750
   60SAPC   H5X 4663   1.535   2.617   9.864  1.1900 -2.0106  3.0189
   60SAPC   H5Y 4664   1.380   2.552   9.794  0.0340 -1.9814 -1.0116
   60SAPC   C36 4665   1.550   2.511   9.664 -0.0304 -0.7730  0.3154
   60SAPC   H6X 4666   1.504   2.418   9.624 -0.7829 -0.1394 -0.3167
   60SAPC   H6Y 4667   1.659   2.500   9.685 -0.1513 -1.0980  0.7731
   60SAPC   C37 4668   1.526   2.636   9.569 -0.7916  0.3874  0.6694
   60SAPC   H7X 4669   1.540   2.728   9.629  2.1262  0.2912  0.1998
   60SAPC   H7Y 4670   1.419   2.626   9.540 -1.1875  2.4367  1.3165
   60SAPC   C38 4671   1.616   2.633   9.448  0.4394 -1.0250  0.1055
   60SAPC   H8X 4672   1.632   2.526   9.423 -3.4547 -0.7239 -4.3691
   60SAPC   H8Y 4673   1.713   2.674   9.482  0.5232 -0.3350 -0.9520
   60SAPC   C39 4674   1.554   2.720   9.335  0.1972  0.7273  0.5199
   60SAPC   H9X 4675   1.545   2.825   9.369 -2.0179  0.7027  0.0679
   60SAPC   H9Y 4676   1.456   2.675   9.311  0.7305  0.6859 -1.6803
   60SAPC  C310 4677   1.632   2.733   9.205  0.5519 -0.3195  0.0559
   60SAPC  H10X 4678   1.617   2.643   9.141  3.1568  0.0216 -1.0843
   60SAPC  H10Y 4679   1.739   2.760   9.218  0.5183  1.2665 -2.5845
   60SAPC  C311 4680   1.572   2.851   9.128  0.3230 -0.0400 -0.7232
   60SAPC  H11X 4681   1.597   2.936   9.196  0.4510 -0.0983 -0.6956
   60SAPC  H11Y 4682   1.464   2.838   9.110  1.1232 -4.7583 -2.9772
   60SAPC  C312 4683   1.629   2.873   8.984  0.3803 -0.0570  0.3595
   60SAPC  H12X 4684   1.637   2.779   8.924 -1.4319 -0.2888  0.4490
   60SAPC  H12Y 4685   1.736   2.900   8.998  0.5378  0.3295 -1.5781
   60SAPC  C313 4686   1.555   2.979   8.901  0.2120  0.5141 -0.3205
   60SAPC  H13X 4687   1.555   3.074   8.958 -0.6040  1.6686 -2.2060
   60SAPC  H13Y 4688   1.448   2.951   8.890  0.1880  0.9794 -1.3559
   60SAPC  C314 4689   1.599   2.997   8.753  0.3205 -0.1297  0.1765
   60SAPC  H14X 4690   1.599   2.891   8.721 -0.1501 -0.2290  0.5064
   60SAPC  H14Y 4691   1.703   3.036   8.762  0.0471  0.5203  0.5313
   60SAPC  C315 4692   1.508   3.080   8.662 -0.0697  0.1943 -0.0474
   60SAPC  H15X 4693   1.480   3.178   8.708 -0.3087  0.2428 -0.2924
   60SAPC  H15Y 4694   1.418   3.020   8.638  0.2986 -0.1909 -0.4597
   60SAPC  C316 4695   1.581   3.112   8.530  0.1754 -0.6316 -0.2243
   60SAPC  H16X 4696   1.561   3.041   8.447  0.5333  1.7635 -2.3796
   60SAPC  H16Y 4697   1.690   3.110   8.549  0.4831  0.4995 -1.8383
   60SAPC  C317 4698   1.545   3.256   8.483 -0.5845  0.2666  0.5411
   60SAPC  H17X 4699   1.581   3.311   8.572  0.0089  0.7197  0.0255
   60SAPC  H17Y 4700   1.435   3.269   8.469 -0.6295 -0.5052  0.1274
   60SAPC  C318 4701   1.608   3.301   8.346  0.2615  0.0986  0.6668
   60SAPC  H18X 4702   1.715   3.322   8.365  0.4414 -2.4808  2.8204
   60SAPC  H18Y 4703   1.564   3.401   8.324  3.6990  1.9052  1.7420
   60SAPC  H18Z 4704   1.586   3.230   8.264  0.3591  1.9966 -1.0509
   61SAPC     N 4705   2.025   1.012  11.181 -0.4481  0.1966  0.1161
   61SAPC   C12 4706   2.155   0.956  11.121  0.5082 -0.1478 -1.1824
   61SAPC  H12A 4707   2.235   1.024  11.145 -1.1523  1.6383 -0.5559
   61SAPC  H12B 4708   2.138   0.962  11.015  0.6120 -0.9696 -1.2488
   61SAPC   C13 4709   1.901   0.936  11.151  0.3960  0.0772  0.1956
   61SAPC  H13A 4710   1.865   0.960  11.052 -1.1159  1.0477  0.9619
   61SAPC  H13B 4711   1.915   0.829  11.143 -0.5195 -0.0067 -0.2903
   61SAPC  H13C 4712   1.820   0.957  11.220  0.2601  0.7529 -0.1701
   61SAPC   C14 4713   2.037   1.032  11.332  0.4510  0.6987  0.1786
   61SAPC  H14A 4714   1.953   1.092  11.366 -1.4528 -0.5532 -2.1877
   61SAPC  H14B 4715   2.043   0.940  11.388 -1.0514  0.0551 -0.6937
   61SAPC  H14C 4716   2.130   1.083  11.354 -0.5515  2.0251  1.3917
   61SAPC   C15 4717   2.003   1.151  11.120 -0.3297  0.3594  0.3855
   61SAPC  H15A 4718   2.081   1.215  11.160  1.2877 -1.5705  0.4039
   61SAPC  H15B 4719   1.987   1.140  11.014 -1.1675  1.1520  0.4221
   61SAPC  H15C 4720   1.915   1.193  11.166 -0.7802 -0.8749  0.6714
   61SAPC   C11 4721   2.206   0.811  11.166  0.2125 -0.0263  0.0653
   61SAPC  H11A 4722   2.224   0.808  11.276  1.3094  1.2618 -0.0773
   61SAPC  H11B 4723   2.307   0.795  11.123  0.4515  0.0084  0.6055
   61SAPC     P 4724   2.089   0.636  10.998  0.1823  0.0781  0.1900
   61SAPC   O13 4725   2.197   0.540  10.971 -0.1887 -0.5565 -0.1794
   61SAPC   O14 4726   1.958   0.568  10.993  0.2762 -0.2667  0.2054
   61SAPC   O12 4727   2.118   0.708  11.142  0.2914  0.2941 -0.2977
   61SAPC   O11 4728   2.093   0.752  10.895  0.2428  0.1656 -0.2604
   61SAPC    C1 4729   2.141   0.719  10.767  0.9421 -0.6030 -0.0015
   61SAPC    HA 4730   2.251   0.732  10.758  0.6960  1.5950 -0.0030
   61SAPC    HB 4731   2.126   0.613  10.736  0.8739 -0.9303  1.1202
   61SAPC    C2 4732   2.074   0.799  10.650  0.4582 -0.6802 -0.3959
   61SAPC    HS 4733   2.083   0.906  10.680  3.8954 -0.5636 -1.6171
   61SAPC   O21 4734   1.931   0.769  10.643 -0.4935  0.0054 -0.0206
   61SAPC   C21 4735   1.853   0.872  10.618  0.0524  0.0887  0.0323
   61SAPC   O22 4736   1.895   0.987  10.607 -0.7472  0.4044 -0.2424
   61SAPC   C22 4737   1.706   0.835  10.610  0.3942 -0.1968 -0.2513
   61SAPC   H2R 4738   1.704   0.740  10.667  2.5083  1.8096  3.3278
   61SAPC   H2S 4739   1.651   0.914  10.666  2.0789  0.3272  0.7073
   61SAPC    C3 4740   2.131   0.770  10.507 -0.5163 -0.4846 -0.0720
   61SAPC    HX 4741   2.091   0.668  10.487  1.3123 -0.9369 -1.5308
   61SAPC    HY 4742   2.241   0.763  10.502 -0.5594 -1.2479  0.0080
   61SAPC   O31 4743   2.085   0.856  10.414 -0.0823  0.6477 -0.2950
   61SAPC   C31 4744   2.147   0.973  10.400 -0.2427 -0.2896  0.9419
   61SAPC   O32 4745   2.244   1.016  10.459  0.8499  0.2177 -0.5307
   61SAPC   C32 4746   2.069   1.050  10.287 -0.0554 -0.3763  0.0886
   61SAPC   H2X 4747   1.958   1.049  10.300 -0.6351  1.1873 -3.9918
   61SAPC   H2Y 4748   2.103   1.000  10.194 -0.2745  0.4940 -0.4684
   61SAPC   C23 4749   1.649   0.806  10.468  0.4428 -1.1545  1.0305
   61SAPC   H3R 4750   1.672   0.891  10.400 -0.4711 -0.9800  0.9306
   61SAPC   H3S 4751   1.541   0.813  10.491  1.0310  3.4263  2.8625
   61SAPC   C24 4752   1.678   0.665  10.405 -0.3510  0.3069  0.1748
   61SAPC   H4R 4753   1.586   0.635  10.350  0.3915 -2.2021  0.2174
   61SAPC   H4S 4754   1.690   0.599  10.493 -2.2275  2.5726  2.1806
   61SAPC   C25 4755   1.800   0.680  10.317  0.1623  0.3371 -0.2116
   61SAPC   H5R 4756   1.889   0.702  10.378  0.5901  2.0528 -1.3933
   61SAPC   C26 4757   1.809   0.662  10.181 -0.1689 -0.1252  0.3229
   61SAPC   H6R 4758   1.914   0.668  10.150 -0.1380 -0.2193  0.4080
   61SAPC   C27 4759   1.707   0.630  10.078  0.1090 -0.6436  0.5871
   61SAPC   H7R 4760   1.700   0.702   9.993 -0.4259 -2.0111 -0.5358
   61SAPC   H7S 4761   1.612   0.638  10.134 -0.3672  2.3812 -0.5618
   61SAPC   C28 4762   1.727   0.488  10.031 -0.2456  0.7325 -0.7794
   61SAPC   H8R 4763   1.731   0.409  10.108  1.0581  1.4570 -0.0860
   61SAPC   C29 4764   1.739   0.455   9.901  0.2524 -0.2666 -0.9336
   61SAPC   H9R 4765   1.755   0.348   9.880  3.5549 -0.0639  0.2264
   61SAPC  C210 4766   1.734   0.537   9.771 -0.1877 -0.1822 -0.4273
   61SAPC  H10R 4767   1.668   0.626   9.782 -0.2614 -0.5731  2.7799
   61SAPC  H10S 4768   1.677   0.494   9.686 -2.1588  1.9950 -0.2721
   61SAPC  C211 4769   1.869   0.579   9.726  0.0191  0.2537  0.1225
   61SAPC  H11R 4770   1.946   0.590   9.805  0.8429  2.5949 -0.9500
   61SAPC  C212 4771   1.916   0.601   9.603  0.5340  0.4264  0.0321
   61SAPC  H12R 4772   2.024   0.621   9.596  0.5165 -0.2202 -2.2704
   61SAPC  C213 4773   1.848   0.595   9.470 -0.0980  0.0914  0.4099
   61SAPC  H13R 4774   1.766   0.519   9.477 -0.2575  0.0901 -1.2774
   61SAPC  H13S 4775   1.920   0.552   9.397 -0.2760  1.3613 -0.5453
   61SAPC  C214 4776   1.784   0.726   9.417  0.0547 -0.3258 -0.2515
   61SAPC  H14R 4777   1.685   0.747   9.460 -1.4742 -0.2650 -3.6084
   61SAPC  C215 4778   1.831   0.818   9.333 -1.2111 -1.0001  0.0203
   61SAPC  H15R 4779   1.768   0.906   9.318  0.3876  0.2783  0.6609
   61SAPC  C216 4780   1.968   0.822   9.266 -1.2303 -0.0763 -0.5138
   61SAPC  H16R 4781   2.037   0.742   9.302  0.0988  0.4628 -1.7698
   61SAPC  H16S 4782   2.004   0.922   9.298 -3.2524  0.9718 -1.4589
   61SAPC  C217 4783   1.945   0.818   9.115  0.4410 -0.0974 -0.3162
   61SAPC  H17R 4784   1.891   0.727   9.082 -1.0763  0.9639 -0.8217
   61SAPC  H17S 4785   2.045   0.807   9.069  0.7156  1.1281 -0.0271
   61SAPC  C218 4786   1.870   0.930   9.039  0.6257 -0.6805 -0.0721
   61SAPC  H18R 4787   1.907   1.028   9.075  1.7847  0.3610 -3.7761
   61SAPC  H18S 4788   1.763   0.918   9.064  0.1921 -2.0525 -2.4272
   61SAPC  C219 4789   1.905   0.938   8.889  0.3770  0.3560  0.0297
   61SAPC  H19R 4790   1.826   0.998   8.838  0.2557  0.3028  0.1524
   61SAPC  H19S 4791   1.915   0.833   8.853 -0.0789  0.5387 -0.6385
   61SAPC  C220 4792   2.045   0.999   8.855  0.6611  1.0060  0.7982
   61SAPC  H20R 4793   2.045   0.979   8.746 -0.9155  0.4042  0.8997
   61SAPC  H20S 4794   2.123   0.938   8.905  0.3677 -2.5462 -2.8406
   61SAPC  H20T 4795   2.048   1.108   8.878 -0.8427  0.8802  1.6627
   61SAPC   C33 4796   2.120   1.193  10.272  0.1903 -0.0187  0.3191
   61SAPC   H3X 4797   2.140   1.236  10.373  0.1569  1.5671 -0.3339
   61SAPC   H3Y 4798   2.035   1.250  10.229  0.1275 -1.2064 -1.1817
   61SAPC   C34 4799   2.250   1.201  10.184  0.7135  0.3260 -0.3951
   61SAPC   H4X 4800   2.231   1.144  10.091 -0.4161  0.1402 -0.0594
   61SAPC   H4Y 4801   2.343   1.168  10.233  0.8605  0.2240 -0.7434
   61SAPC   C35 4802   2.281   1.344  10.134 -0.0924  0.1062 -0.8591
   61SAPC   H5X 4803   2.336   1.398  10.214  0.5625  2.0833 -2.5762
   61SAPC   H5Y 4804   2.189   1.403  10.110  1.1638  1.8697 -1.4583
   61SAPC   C36 4805   2.368   1.341  10.009 -0.0517 -0.3174  0.5995
   61SAPC   H6X 4806   2.453   1.271   9.996  2.3007  2.2495  1.5739
   61SAPC   H6Y 4807   2.422   1.437  10.020 -0.8351  0.4079 -1.6157
   61SAPC   C37 4808   2.286   1.359   9.881  0.4036  0.0226  0.2406
   61SAPC   H7X 4809   2.201   1.429   9.899  1.4538  0.2660  4.9440
   61SAPC   H7Y 4810   2.246   1.257   9.859  0.1690  0.5014 -1.5988
   61SAPC   C38 4811   2.368   1.411   9.760 -0.5710  0.6216  0.0684
   61SAPC   H8X 4812   2.461   1.353   9.745 -0.2522  0.4930  2.3087
   61SAPC   H8Y 4813   2.415   1.508   9.785  1.4579  0.1858 -1.9564
   61SAPC   C39 4814   2.284   1.429   9.638 -0.3689 -1.3115  0.2456
   61SAPC   H9X 4815   2.198   1.497   9.660 -0.1315 -0.8002 -0.4199
   61SAPC   H9Y 4816   2.235   1.336   9.601 -2.0560 -0.8302  1.2160
   61SAPC  C310 4817   2.364   1.499   9.528 -0.0783  0.4794 -0.7354
   61SAPC  H10X 4818   2.455   1.443   9.498 -1.0355 -0.5215 -1.8137
   61SAPC  H10Y 4819   2.386   1.595   9.578  0.8517  0.2331 -0.6648
   61SAPC  C311 4820   2.273   1.517   9.405  0.3096  0.5309  0.2181
   61SAPC  H11X 4821   2.180   1.573   9.429 -0.5215 -0.9620  0.5572
   61SAPC  H11Y 4822   2.250   1.412   9.378  2.4368  0.0396  0.1848
   61SAPC  C312 4823   2.348   1.576   9.293  0.2917  0.6039  0.0757
   61SAPC  H12X 4824   2.451   1.534   9.296  0.0511  0.1102  2.2313
   61SAPC  H12Y 4825   2.352   1.686   9.309  0.3165  0.6758 -0.4138
   61SAPC  C313 4826   2.289   1.562   9.146 -0.0343 -0.0839 -0.0151
   61SAPC  H13X 4827   2.192   1.616   9.152 -0.6575 -0.9732 -1.6334
   61SAPC  H13Y 4828   2.262   1.457   9.125 -0.5682  0.0671 -0.1076
   61SAPC  C314 4829   2.368   1.615   9.021 -0.0976  0.2042  0.3598
   61SAPC  H14X 4830   2.306   1.593   8.931  1.7978 -0.1245 -0.8916
   61SAPC  H14Y 4831   2.467   1.565   9.020  0.1044  0.6079 -0.5534
   61SAPC  C315 4832   2.380   1.766   9.016 -0.6300  0.2581 -0.3437
   61SAPC  H15X 4833   2.456   1.801   9.089 -0.4289  0.5782 -0.7053
   61SAPC  H15Y 4834   2.285   1.812   9.050  0.9849  2.0889  1.8325
   61SAPC  C316 4835   2.420   1.830   8.878  0.1232 -0.1273 -0.0774
   61SAPC  H16X 4836   2.438   1.938   8.899  0.1008 -0.0528 -0.4382
   61SAPC  H16Y 4837   2.330   1.818   8.815 -0.5595  1.7975  0.4827
   61SAPC  C317 4838   2.543   1.765   8.816 -0.2282  0.1980 -0.7965
   61SAPC  H17X 4839   2.537   1.655   8.825  0.9281  0.1784 -0.1504
   61SAPC  H17Y 4840   2.630   1.799   8.876 -0.7636  2.6570 -1.3315
   61SAPC  C318 4841   2.563   1.800   8.665  0.0246  0.2317  0.4281
   61SAPC  H18X 4842   2.577   1.910   8.659  1.7480  0.1940  2.9168
   61SAPC  H18Y 4843   2.469   1.781   8.610  0.7987 -2.2440 -0.1363
   61SAPC  H18Z 4844   2.646   1.748   8.613  0.8501  4.5574 -2.8322
   62SAPC     N 4845   2.163   0.223  10.844  0.2706  1.1068 -0.4219
   62SAPC   C12 4846   2.141   0.346  10.749  0.5834  0.7342  0.4684
   62SAPC  H12A 4847   2.205   0.327  10.664  0.7499  2.1936  0.2697
   62SAPC  H12B 4848   2.167   0.437  10.800  1.3751  1.6790 -1.5521
   62SAPC   C13 4849   2.061   0.239  10.956 -0.3981 -0.4407 -0.1128
   62SAPC  H13A 4850   2.050   0.341  10.991 -1.1861 -0.6421  0.2450
   62SAPC  H13B 4851   1.964   0.206  10.920 -1.5810  2.3726  0.3607
   62SAPC  H13C 4852   2.081   0.161  11.027 -0.5066 -0.0211  0.3765
   62SAPC   C14 4853   2.140   0.100  10.779  0.1576  0.1785 -0.0702
   62SAPC  H14A 4854   2.215   0.091  10.701 -0.7820 -1.8576 -0.7724
   62SAPC  H14B 4855   2.140   0.021  10.852 -1.4395 -1.6990 -2.0112
   62SAPC  H14C 4856   2.041   0.093  10.737 -0.2867  0.2336  0.9764
   62SAPC   C15 4857   2.298   0.231  10.909 -1.2354  0.5678 -0.0672
   62SAPC  H15A 4858   2.322   0.150  10.976 -0.1393 -0.2436 -1.4094
   62SAPC  H15B 4859   2.369   0.229  10.827 -1.3392  0.4924 -0.1570
   62SAPC  H15C 4860   2.308   0.326  10.958  1.4518  0.5316 -0.4869
   62SAPC   C11 4861   1.992   0.356  10.693  0.0858 -0.3935 -0.6382
   62SAPC  H11A 4862   1.994   0.434  10.613 -1.3263 -0.2456 -0.5492
   62SAPC  H11B 4863   1.933   0.396  10.779 -1.7497 -1.3492 -1.4166
   62SAPC     P 4864   1.797   0.191  10.644 -0.2478 -0.6053 -0.1003
   62SAPC   O13 4865   1.794   0.043  10.618 -0.3847  0.1682  0.3627
   62SAPC   O14 4866   1.738   0.232  10.775 -0.4443  0.6279 -0.6458
   62SAPC   O12 4867   1.942   0.235  10.633 -0.6605  0.1515  0.0866
   62SAPC   O11 4868   1.715   0.250  10.530  0.4005  0.3980  0.5413
   62SAPC    C1 4869   1.768   0.254  10.393 -0.1504 -0.8247 -0.9659
   62SAPC    HA 4870   1.725   0.345  10.345 -0.1662  0.7261  1.9128
   62SAPC    HB 4871   1.879   0.261  10.391 -0.1446 -0.4874  0.4702
   62SAPC    C2 4872   1.729   0.125  10.314  0.6368 -0.0498  0.8544
   62SAPC    HS 4873   1.765   0.033  10.365  0.1692 -0.1609  0.9884
   62SAPC   O21 4874   1.790   0.134  10.183  0.3500  0.2363  0.3593
   62SAPC   C21 4875   1.788   0.025  10.110 -0.1948  0.1542  0.4380
   62SAPC   O22 4876   1.749  -0.086  10.137  0.7783 -0.0409  0.0936
   62SAPC   C22 4877   1.854   0.058   9.979  0.4262  0.5475  0.5610
   62SAPC   H2R 4878   1.867   0.168   9.966 -0.2839  0.7010  1.1032
   62SAPC   H2S 4879   1.959   0.022   9.988 -0.5378 -2.5965 -0.1858
   62SAPC    C3 4880   1.572   0.104  10.317 -0.4151  0.5340  0.5198
   62SAPC    HX 4881   1.551   0.107  10.426 -0.2584  0.6514  0.5465
   62SAPC    HY 4882   1.545   0.004  10.277  2.9743  0.4105 -1.6928
   62SAPC   O31 4883   1.499   0.209  10.241 -0.4208 -0.1067 -0.4034
   62SAPC   C31 4884   1.369   0.182  10.225  0.1053  0.6513 -0.9545
   62SAPC   O32 4885   1.317   0.071  10.238 -0.1090  0.2734 -0.6703
   62SAPC   C32 4886   1.299   0.314  10.215 -0.4862 -0.7078 -0.3009
   62SAPC   H2X 4887   1.316   0.370  10.309  2.6809 -1.8383 -0.1474
   62SAPC   H2Y 4888   1.189   0.298  10.206 -0.3268 -1.5739 -0.7524
   62SAPC   C23 4889   1.780   0.011   9.853  0.1479  0.2748  0.1555
   62SAPC   H3R 4890   1.682   0.064   9.846  0.1170  0.1429 -0.4583
   62SAPC   H3S 4891   1.744  -0.094   9.861 -1.8358  1.0539  2.3221
   62SAPC   C24 4892   1.851   0.033   9.719  0.0765 -0.2134  0.3185
   62SAPC   H4R 4893   1.797  -0.032   9.647  1.4817 -3.8223  2.4054
   62SAPC   H4S 4894   1.951  -0.015   9.726  1.4584  2.0751 -2.6058
   62SAPC   C25 4895   1.878   0.175   9.688 -0.5094  0.3369  0.2274
   62SAPC   H5R 4896   1.932   0.226   9.769  0.1945 -0.3320  0.1839
   62SAPC   C26 4897   1.866   0.239   9.571 -0.1747  0.2705 -0.2254
   62SAPC   H6R 4898   1.905   0.342   9.564  0.2330  0.1754  0.6684
   62SAPC   C27 4899   1.825   0.180   9.439  0.4673 -0.4213  0.2327
   62SAPC   H7R 4900   1.745   0.106   9.462 -1.4760  1.5972  0.1788
   62SAPC   H7S 4901   1.908   0.123   9.391  0.8807 -0.2436  0.7359
   62SAPC   C28 4902   1.749   0.282   9.353  0.6305  0.2904  0.2733
   62SAPC   H8R 4903   1.661   0.324   9.405  0.8249  2.8662 -1.4157
   62SAPC   C29 4904   1.778   0.322   9.234 -0.0193  0.2079 -0.0550
   62SAPC   H9R 4905   1.703   0.382   9.180  0.2047 -0.3800 -1.0249
   62SAPC  C210 4906   1.887   0.280   9.142 -0.5582  1.0175  0.2371
   62SAPC  H10R 4907   1.841   0.255   9.044 -1.4357  2.2800  0.3223
   62SAPC  H10S 4908   1.938   0.188   9.179 -0.9911  0.6150 -0.1602
   62SAPC  C211 4909   1.986   0.390   9.122 -0.8402 -0.5019  0.2287
   62SAPC  H11R 4910   2.025   0.439   9.212 -3.2129  0.2445  0.8929
   62SAPC  C212 4911   2.020   0.441   9.003  0.5293 -0.5879  1.2927
   62SAPC  H12R 4912   2.086   0.528   9.015 -1.1730  0.8818  0.2332
   62SAPC  C213 4913   1.970   0.408   8.867 -0.3593  0.4259  0.4631
   62SAPC  H13R 4914   1.861   0.383   8.867 -0.8888  2.5507 -1.5201
   62SAPC  H13S 4915   2.023   0.316   8.837  1.1143  1.2292  0.5341
   62SAPC  C214 4916   1.990   0.511   8.767 -0.1380 -0.0090 -0.0724
   62SAPC  H14R 4917   1.924   0.597   8.783 -0.1407 -0.2999  1.5705
   62SAPC  C215 4918   2.064   0.499   8.654 -0.1934 -0.1246  0.2873
   62SAPC  H15R 4919   2.076   0.587   8.589  1.9360 -1.5602 -1.3275
   62SAPC  C216 4920   2.137   0.377   8.611  0.1220  0.0789 -0.2078
   62SAPC  H16R 4921   2.200   0.340   8.695  0.1482  1.6838  0.4954
   62SAPC  H16S 4922   2.218   0.415   8.546  1.1293  0.5795  1.3229
   62SAPC  C217 4923   2.064   0.265   8.540  0.8156  0.3633 -0.1411
   62SAPC  H17R 4924   2.126   0.212   8.465 -1.9774 -0.3662 -2.0112
   62SAPC  H17S 4925   1.983   0.309   8.477 -1.9043 -0.4856  2.6451
   62SAPC  C218 4926   2.008   0.157   8.640  0.7714 -0.1327  0.4207
   62SAPC  H18R 4927   1.933   0.210   8.702  1.3572  0.1517  0.8921
   62SAPC  H18S 4928   2.089   0.117   8.706 -0.0427 -4.3744 -1.0187
   62SAPC  C219 4929   1.933   0.041   8.570 -0.3051 -0.1359  0.5954
   62SAPC  H19R 4930   1.997  -0.007   8.493 -1.8842  0.0576 -0.8818
   62SAPC  H19S 4931   1.842   0.076   8.516 -0.6033 -0.8095  0.6537
   62SAPC  C220 4932   1.891  -0.068   8.678 -0.2303  0.8301  0.7985
   62SAPC  H20R 4933   1.836  -0.016   8.759 -0.1067  2.0500  0.1156
   62SAPC  H20S 4934   1.981  -0.115   8.724  0.3434  1.2573  0.1410
   62SAPC  H20T 4935   1.834  -0.150   8.630  0.4081  0.0097  1.4444
   62SAPC   C33 4936   1.352   0.383  10.088 -0.2200 -0.3769 -0.3831
   62SAPC   H3X 4937   1.462   0.399  10.084 -0.0344 -1.1449  1.2831
   62SAPC   H3Y 4938   1.297   0.479  10.076  1.0359  0.3046 -0.7680
   62SAPC   C34 4939   1.319   0.317   9.957 -0.0168 -0.8008  0.2710
   62SAPC   H4X 4940   1.210   0.305   9.945  0.4494 -3.1891 -2.1150
   62SAPC   H4Y 4941   1.360   0.214   9.955  0.5204 -0.5896 -1.5101
   62SAPC   C35 4942   1.374   0.393   9.838 -0.3675 -0.0026 -0.3458
   62SAPC   H5X 4943   1.484   0.379   9.830 -0.2351 -0.1126  1.4664
   62SAPC   H5Y 4944   1.346   0.501   9.845  1.7224  0.5989 -0.7799
   62SAPC   C36 4945   1.306   0.337   9.707 -0.3564  0.3107 -0.3807
   62SAPC   H6X 4946   1.196   0.355   9.706 -0.2364  1.1154  0.2423
   62SAPC   H6Y 4947   1.302   0.226   9.713 -0.1988  0.3518  0.6856
   62SAPC   C37 4948   1.378   0.374   9.582 -0.2004 -0.1814  0.1272
   62SAPC   H7X 4949   1.351   0.305   9.499 -1.0242  1.7967 -1.2965
   62SAPC   H7Y 4950   1.487   0.389   9.594 -0.0629 -0.6795 -0.4830
   62SAPC   C38 4951   1.330   0.511   9.533 -0.3302 -0.0712 -0.6909
   62SAPC   H8X 4952   1.342   0.576   9.622  0.5548 -1.4639  0.2186
   62SAPC   H8Y 4953   1.221   0.505   9.511 -0.1620  2.3458 -2.3104
   62SAPC   C39 4954   1.411   0.562   9.418  0.4258  0.2609 -0.0088
   62SAPC   H9X 4955   1.517   0.589   9.441  0.3156  1.0647 -0.4629
   62SAPC   H9Y 4956   1.365   0.653   9.376  1.9494  1.0848  0.0736
   62SAPC  C310 4957   1.399   0.477   9.288  0.6326  0.2423 -0.2030
   62SAPC  H10X 4958   1.294   0.452   9.265  0.3044  1.4717 -0.1023
   62SAPC  H10Y 4959   1.460   0.384   9.291  0.1298 -0.0757  0.1501
   62SAPC  C311 4960   1.455   0.550   9.168  0.6031 -0.1716  0.3355
   62SAPC  H11X 4961   1.561   0.578   9.187 -0.2324  2.6705  0.9986
   62SAPC  H11Y 4962   1.403   0.647   9.166 -0.2802 -0.6644 -1.3981
   62SAPC  C312 4963   1.437   0.480   9.030  0.3548 -0.0734 -0.4408
   62SAPC  H12X 4964   1.342   0.423   9.040 -2.7024  4.6811 -0.7356
   62SAPC  H12Y 4965   1.528   0.427   8.997  1.6823  0.9965  1.3576
   62SAPC  C313 4966   1.399   0.578   8.922  0.0291 -0.2227  0.5934
   62SAPC  H13X 4967   1.320   0.649   8.955  0.0343 -0.7051  1.6634
   62SAPC  H13Y 4968   1.353   0.527   8.836 -2.0264  1.4822  0.6242
   62SAPC  C314 4969   1.531   0.648   8.865  0.1759 -1.0379  0.4009
   62SAPC  H14X 4970   1.624   0.590   8.877  0.9903  0.5068  1.8163
   62SAPC  H14Y 4971   1.549   0.742   8.922  1.2374 -1.7853  1.2994
   62SAPC  C315 4972   1.499   0.690   8.718  0.7727 -0.4466 -0.4149
   62SAPC  H15X 4973   1.420   0.766   8.706  0.1649 -1.1239 -0.7366
   62SAPC  H15Y 4974   1.457   0.600   8.669  0.2951  0.2461 -1.2773
   62SAPC  C316 4975   1.623   0.738   8.652 -0.2558  0.4538  0.0071
   62SAPC  H16X 4976   1.689   0.654   8.624  0.0948 -0.2903  2.9066
   62SAPC  H16Y 4977   1.688   0.801   8.716  0.3322  0.9014 -1.0171
   62SAPC  C317 4978   1.595   0.833   8.530  0.4580 -0.2009  0.6031
   62SAPC  H17X 4979   1.532   0.916   8.570  2.0472  1.2892  0.0904
   62SAPC  H17Y 4980   1.535   0.780   8.453  1.5536 -0.1050 -0.3096
   62SAPC  C318 4981   1.725   0.890   8.474  0.5794 -0.4360 -0.6847
   62SAPC  H18X 4982   1.776   0.948   8.553  2.0527  0.2097 -2.0723
   62SAPC  H18Y 4983   1.709   0.955   8.385 -0.7364 -0.7556 -0.6922
   62SAPC  H18Z 4984   1.791   0.810   8.434 -1.9828 -1.4168 -3.1557
   63SAPC     N 4985   5.445   5.891   6.206 -0.8365  0.2803 -0.0710
   63SAPC   C12 4986   5.566   5.984   6.195 -0.0393  0.1872  0.4573
   63SAPC  H12A 4987   5.531   6.052   6.118  0.2880  0.6613  0.7237
   63SAPC  H12B 4988   5.653   5.936   6.153  0.6620  1.6246  0.2223
   63SAPC   C13 4989   5.478   5.777   6.303  0.2015  0.1134  0.0600
   63SAPC  H13A 4990   5.521   5.813   6.396 -0.9198 -0.1048  0.6660
   63SAPC  H13B 4991   5.391   5.718   6.327 -0.1322  1.0241  1.1044
   63SAPC  H13C 4992   5.557   5.717   6.261 -0.4516  0.5789 -1.8711
   63SAPC   C14 4993   5.334   5.962   6.272  0.4368 -0.1246  0.4893
   63SAPC  H14A 4994   5.247   5.899   6.262  0.4280  0.1097 -1.0186
   63SAPC  H14B 4995   5.353   5.969   6.378 -1.6320  0.8121  0.8275
   63SAPC  H14C 4996   5.305   6.062   6.244  1.3645  0.2829  0.9520
   63SAPC   C15 4997   5.410   5.836   6.074 -0.8212 -0.2617  0.1728
   63SAPC  H15A 4998   5.321   5.778   6.098  0.4968 -2.3032  0.2533
   63SAPC  H15B 4999   5.389   5.906   5.995 -0.8953 -0.0391  0.3893
   63SAPC  H15C 5000   5.483   5.766   6.036 -0.1428  1.3332 -1.5723
   63SAPC   C11 5001   5.603   6.076   6.313  0.1605 -1.8232  0.3359
   63SAPC  H11A 5002   5.520   6.144   6.345  2.7903  2.0153 -0.6448
   63SAPC  H11B 5003   5.688   6.139   6.280 -0.4163  0.3848  2.8460
   63SAPC     P 5004   5.793   5.937   6.434 -0.1827 -0.0836  0.0581
   63SAPC   O13 5005   5.803   5.850   6.552  0.6236 -0.2741 -0.1777
   63SAPC   O14 5006   5.827   5.863   6.304 -0.0670  0.0406 -0.0510
   63SAPC   O12 5007   5.644   5.992   6.419  0.5908 -0.2590  0.1799
   63SAPC   O11 5008   5.882   6.071   6.438  0.0488 -1.2327  0.3732
   63SAPC    C1 5009   5.844   6.150   6.549  0.1991  0.0042 -0.4831
   63SAPC    HA 5010   5.869   6.257   6.532 -2.5734  0.8364  0.3905
   63SAPC    HB 5011   5.741   6.142   6.589  0.7819 -3.4430  0.4820
   63SAPC    C2 5012   5.943   6.117   6.667  0.5080  0.3984  0.4106
   63SAPC    HS 5013   5.921   6.012   6.696  0.9203  0.7570  2.0670
   63SAPC   O21 5014   5.918   6.206   6.778  0.1987 -0.6371 -0.3707
   63SAPC   C21 5015   5.837   6.168   6.876  0.4017  0.5825  0.8075
   63SAPC   O22 5016   5.758   6.076   6.865  0.8121  0.0405  0.0421
   63SAPC   C22 5017   5.859   6.256   6.996 -0.1776 -0.0020  0.1371
   63SAPC   H2R 5018   5.969   6.263   7.006 -0.1111 -0.1700 -0.5168
   63SAPC   H2S 5019   5.823   6.359   6.976 -1.9371 -0.6380 -0.0920
   63SAPC    C3 5020   6.090   6.124   6.625 -0.0142 -0.5586 -0.3946
   63SAPC    HX 5021   6.103   6.196   6.541 -1.4489  2.4166  1.8751
   63SAPC    HY 5022   6.123   6.026   6.582 -0.3891 -1.0492  0.4414
   63SAPC   O31 5023   6.167   6.169   6.737  0.1863  0.5772  0.3611
   63SAPC   C31 5024   6.179   6.086   6.845  0.2287  0.0787 -0.2359
   63SAPC   O32 5025   6.130   5.976   6.852 -0.0212 -0.0358 -0.5113
   63SAPC   C32 5026   6.253   6.158   6.960  0.7265  0.4748  0.4427
   63SAPC   H2X 5027   6.236   6.267   6.953  2.4439  0.8150  1.1765
   63SAPC   H2Y 5028   6.362   6.141   6.945  0.5624 -2.9770  2.6546
   63SAPC   C23 5029   5.797   6.213   7.136  0.1648 -0.4649  0.6953
   63SAPC   H3R 5030   5.853   6.125   7.175 -0.0751 -1.1731 -0.5423
   63SAPC   H3S 5031   5.690   6.183   7.126 -0.5409  1.6137  1.5737
   63SAPC   C24 5032   5.802   6.328   7.233  0.1890 -0.5563 -0.0135
   63SAPC   H4R 5033   5.732   6.306   7.317 -0.9604  1.6230 -0.3600
   63SAPC   H4S 5034   5.769   6.419   7.177  2.3925 -0.3553 -1.0247
   63SAPC   C25 5035   5.936   6.353   7.297  0.3009  0.8787 -0.2352
   63SAPC   H5R 5036   5.998   6.421   7.237  0.4226  1.1739  0.2223
   63SAPC   C26 5037   5.982   6.309   7.414  0.0293  0.7782  0.5540
   63SAPC   H6R 5038   6.079   6.340   7.456  0.5143  0.5968 -0.4030
   63SAPC   C27 5039   5.887   6.234   7.506 -0.0391  0.0092 -0.4241
   63SAPC   H7R 5040   5.830   6.159   7.447 -1.8991  0.6984  0.4518
   63SAPC   H7S 5041   5.803   6.287   7.556 -0.4025  0.7772 -1.8279
   63SAPC   C28 5042   5.965   6.161   7.610 -0.1108 -0.1098 -0.1433
   63SAPC   H8R 5043   5.956   6.051   7.605 -1.7939 -0.0080  0.1085
   63SAPC   C29 5044   6.031   6.220   7.719  0.5088  1.0050 -0.0171
   63SAPC   H9R 5045   6.071   6.147   7.792 -0.3669 -0.5540 -1.0695
   63SAPC  C210 5046   6.037   6.368   7.754 -0.4105  0.7007  1.2073
   63SAPC  H10R 5047   5.953   6.397   7.821  1.1026 -0.6866  3.7848
   63SAPC  H10S 5048   6.015   6.441   7.674  0.6659  0.0403  0.3032
   63SAPC  C211 5049   6.176   6.409   7.811  0.4063  0.7005  0.7261
   63SAPC  H11R 5050   6.242   6.462   7.741  1.3731  0.1386  1.2108
   63SAPC  C212 5051   6.225   6.387   7.935  0.8158  0.0481  0.6834
   63SAPC  H12R 5052   6.331   6.413   7.951  0.6529  0.4669  1.0922
   63SAPC  C213 5053   6.144   6.314   8.046  0.5124  0.0177  0.1044
   63SAPC  H13R 5054   6.150   6.205   8.027 -1.8479  0.1508 -1.6433
   63SAPC  H13S 5055   6.038   6.345   8.052  0.2651 -0.9414  0.7937
   63SAPC  C214 5056   6.212   6.342   8.178 -0.6695 -0.5541 -1.3394
   63SAPC  H14R 5057   6.291   6.269   8.202  0.7812  1.4003 -0.0852
   63SAPC  C215 5058   6.194   6.435   8.271  0.3313 -0.5711  0.0400
   63SAPC  H15R 5059   6.257   6.439   8.361  2.0856  0.3154 -1.2035
   63SAPC  C216 5060   6.093   6.549   8.277  0.0206 -0.2437 -0.4899
   63SAPC  H16R 5061   6.003   6.519   8.336  0.7032 -1.3574 -0.0015
   63SAPC  H16S 5062   6.058   6.578   8.176  0.9248 -0.7805 -0.9587
   63SAPC  C217 5063   6.154   6.681   8.337 -1.1266 -0.6367  0.4850
   63SAPC  H17R 5064   6.073   6.757   8.343 -1.5056 -0.7304 -2.8676
   63SAPC  H17S 5065   6.226   6.720   8.263  0.6823  0.3324  2.6919
   63SAPC  C218 5066   6.235   6.671   8.464  0.1272  0.2128 -0.3361
   63SAPC  H18R 5067   6.325   6.611   8.440  0.8625  0.0570  2.6053
   63SAPC  H18S 5068   6.183   6.615   8.544 -0.1371  1.7232  0.5649
   63SAPC  C219 5069   6.288   6.817   8.513 -0.6215  0.0579  0.1014
   63SAPC  H19R 5070   6.199   6.873   8.550 -1.8464 -1.6064 -0.2350
   63SAPC  H19S 5071   6.315   6.864   8.417 -0.3164 -0.9679 -0.3222
   63SAPC  C220 5072   6.403   6.811   8.604  0.7830  0.2460 -0.6004
   63SAPC  H20R 5073   6.439   6.907   8.646 -0.8880  0.1807  1.1104
   63SAPC  H20S 5074   6.481   6.747   8.558  0.5521 -1.5741  1.4052
   63SAPC  H20T 5075   6.367   6.746   8.687  1.3124  1.1816  0.3800
   63SAPC   C33 5076   6.224   6.106   7.103  0.4450 -0.0208 -0.2962
   63SAPC   H3X 5077   6.243   5.999   7.126 -1.7518 -0.8758 -2.2315
   63SAPC   H3Y 5078   6.115   6.121   7.124  0.6121  0.0777  0.4995
   63SAPC   C34 5079   6.285   6.205   7.202 -0.5584  0.4324 -0.1742
   63SAPC   H4X 5080   6.231   6.299   7.228 -0.4512  0.0799  1.3554
   63SAPC   H4Y 5081   6.381   6.245   7.163 -1.0790  1.2369 -0.6485
   63SAPC   C35 5082   6.310   6.127   7.339 -0.0989 -0.3557  0.6203
   63SAPC   H5X 5083   6.376   6.041   7.316  0.4801  0.0881  0.6155
   63SAPC   H5Y 5084   6.214   6.090   7.380  0.5133 -1.5550  0.9866
   63SAPC   C36 5085   6.403   6.212   7.430  0.0534 -0.4271 -1.1000
   63SAPC   H6X 5086   6.380   6.321   7.420 -0.1802 -0.6120 -2.5973
   63SAPC   H6Y 5087   6.504   6.207   7.385 -0.1482 -0.6529 -1.5216
   63SAPC   C37 5088   6.405   6.158   7.576  0.0705 -0.2953  0.1660
   63SAPC   H7X 5089   6.414   6.048   7.567  0.4712 -0.1008 -2.2504
   63SAPC   H7Y 5090   6.308   6.186   7.623 -0.1952 -1.2355  0.1774
   63SAPC   C38 5091   6.518   6.206   7.660 -0.3075  0.3719 -0.3804
   63SAPC   H8X 5092   6.521   6.316   7.674 -2.6137  0.4671 -0.4399
   63SAPC   H8Y 5093   6.616   6.191   7.610 -0.2838  1.0759 -0.5522
   63SAPC   C39 5094   6.540   6.131   7.799 -0.8350 -0.6436 -0.4734
   63SAPC   H9X 5095   6.620   6.056   7.779  1.2539  0.9179  1.6842
   63SAPC   H9Y 5096   6.445   6.078   7.816  0.4011 -3.2092 -1.3561
   63SAPC  C310 5097   6.570   6.225   7.923  0.0106 -0.8231  0.7215
   63SAPC  H10X 5098   6.494   6.305   7.925 -3.4623 -3.9811  0.7145
   63SAPC  H10Y 5099   6.673   6.266   7.913  0.0887 -1.7380 -3.3734
   63SAPC  C311 5100   6.559   6.162   8.064  0.0613 -0.3040  0.8250
   63SAPC  H11X 5101   6.644   6.092   8.083  1.3898  1.2631  0.7659
   63SAPC  H11Y 5102   6.464   6.106   8.071 -0.7295  0.3337 -3.3655
   63SAPC  C312 5103   6.576   6.268   8.180 -0.0586 -0.0819 -0.2495
   63SAPC  H12X 5104   6.505   6.349   8.151 -0.7769 -0.7146 -0.2853
   63SAPC  H12Y 5105   6.681   6.303   8.179 -0.2383  0.5812  1.8919
   63SAPC  C313 5106   6.534   6.205   8.320  0.4774 -0.2445 -0.7870
   63SAPC  H13X 5107   6.590   6.120   8.364 -1.1291 -0.3541  1.0840
   63SAPC  H13Y 5108   6.435   6.164   8.288 -0.6070  0.0181  2.0895
   63SAPC  C314 5109   6.506   6.311   8.424 -0.3984 -0.3426 -0.0356
   63SAPC  H14X 5110   6.458   6.261   8.511 -3.1692 -2.1780 -2.5379
   63SAPC  H14Y 5111   6.430   6.379   8.381 -1.2930 -1.1789  0.1992
   63SAPC  C315 5112   6.635   6.388   8.455  0.1072 -0.4561 -0.2303
   63SAPC  H15X 5113   6.668   6.448   8.367  1.7110 -0.2579  0.4832
   63SAPC  H15Y 5114   6.713   6.313   8.478 -0.6227 -0.6490  1.7140
   63SAPC  C316 5115   6.623   6.482   8.577  0.3791 -0.3742 -0.5895
   63SAPC  H16X 5116   6.596   6.438   8.675  2.3234  1.3121  0.7424
   63SAPC  H16Y 5117   6.538   6.549   8.552  1.8006  1.5912 -0.2719
   63SAPC  C317 5118   6.755   6.549   8.623  0.5838  0.0051 -0.1876
   63SAPC  H17X 5119   6.808   6.577   8.530 -0.9451 -0.9728 -1.3851
   63SAPC  H17Y 5120   6.818   6.475   8.677  0.7170  0.6839  0.6016
   63SAPC  C318 5121   6.738   6.674   8.704 -0.1283 -0.3175  0.2132
   63SAPC  H18X 5122   6.834   6.709   8.748 -1.5680  1.0580  2.3206
   63SAPC  H18Y 5123   6.675   6.643   8.791 -0.7289 -1.3817 -0.5835
   63SAPC  H18Z 5124   6.695   6.760   8.649  1.5737  0.8011  0.5787
   64SAPC     N 5125   0.860   6.670   5.730 -0.0286 -0.5220 -0.2273
   64SAPC   C12 5126   0.773   6.578   5.816  0.8572 -0.3832 -0.6375
   64SAPC  H12A 5127   0.711   6.517   5.752  1.7603 -3.9902  1.8228
   64SAPC  H12B 5128   0.712   6.640   5.881 -0.9280 -3.5989  0.9048
   64SAPC   C13 5129   0.960   6.592   5.644 -0.3067  0.2036 -0.8665
   64SAPC  H13A 5130   1.027   6.533   5.703 -1.7434 -0.3243  0.2733
   64SAPC  H13B 5131   0.900   6.519   5.590 -1.8926  0.2910  0.7223
   64SAPC  H13C 5132   1.021   6.660   5.586 -0.3406  1.7432  0.8829
   64SAPC   C14 5133   0.777   6.761   5.648 -0.4694  0.0351  0.4494
   64SAPC  H14A 5134   0.715   6.702   5.581 -1.8399  1.3920  0.4821
   64SAPC  H14B 5135   0.714   6.823   5.711 -0.1718  1.5620 -0.7366
   64SAPC  H14C 5136   0.842   6.820   5.585 -0.9657 -0.3228 -0.4123
   64SAPC   C15 5137   0.938   6.762   5.823 -0.1834  0.8451  0.0207
   64SAPC  H15A 5138   1.004   6.831   5.772  0.4601  0.4276  0.2860
   64SAPC  H15B 5139   0.864   6.819   5.876 -1.2109  0.3663 -0.8821
   64SAPC  H15C 5140   1.005   6.711   5.891  1.1946  1.7085 -0.6542
   64SAPC   C11 5141   0.837   6.478   5.920 -0.3023 -0.3810 -0.0756
   64SAPC  H11A 5142   0.880   6.395   5.859  0.1481  1.4445 -2.3060
   64SAPC  H11B 5143   0.756   6.434   5.982 -1.3265  0.5272 -0.7567
   64SAPC     P 5144   0.906   6.601   6.140  0.2407  0.1249  0.2065
   64SAPC   O13 5145   1.011   6.699   6.175 -0.4968 -0.5106 -0.0413
   64SAPC   O14 5146   0.764   6.646   6.141 -0.4519 -0.3784 -0.0798
   64SAPC   O12 5147   0.940   6.544   6.002  0.3908  0.3798 -0.1844
   64SAPC   O11 5148   0.915   6.471   6.222  0.0158  0.0833 -0.3366
   64SAPC    C1 5149   0.815   6.421   6.305 -0.2901  0.4380  0.6266
   64SAPC    HA 5150   0.712   6.441   6.269 -0.2263  1.6940  1.1033
   64SAPC    HB 5151   0.833   6.311   6.309  1.2285  0.4496 -3.5652
   64SAPC    C2 5152   0.829   6.485   6.437 -0.4864  0.0523 -0.3706
   64SAPC    HS 5153   0.800   6.591   6.421 -0.0087 -0.2178 -3.2676
   64SAPC   O21 5154   0.965   6.464   6.483 -0.5613  0.1745  0.6760
   64SAPC   C21 5155   1.022   6.578   6.534 -0.2137 -0.2267 -0.1469
   64SAPC   O22 5156   0.971   6.685   6.555 -0.6101  0.5550 -0.9383
   64SAPC   C22 5157   1.172   6.544   6.545  0.0587 -0.0876  0.4357
   64SAPC   H2R 5158   1.209   6.530   6.441 -2.4236  0.6386 -0.5856
   64SAPC   H2S 5159   1.224   6.632   6.589 -0.0517 -0.6857  1.7971
   64SAPC    C3 5160   0.732   6.418   6.538  0.3651  0.5238  0.1393
   64SAPC    HX 5161   0.784   6.321   6.551 -0.9831 -0.2685 -0.2449
   64SAPC    HY 5162   0.628   6.399   6.504 -1.4966  2.3717  4.4729
   64SAPC   O31 5163   0.731   6.496   6.660  0.0809  0.1009 -0.4300
   64SAPC   C31 5164   0.633   6.592   6.664 -0.0338  0.1857 -0.0748
   64SAPC   O32 5165   0.562   6.627   6.569  0.7293 -0.4395 -0.7109
   64SAPC   C32 5166   0.625   6.667   6.798  0.7792 -0.2611 -0.1604
   64SAPC   H2X 5167   0.591   6.596   6.877 -0.2923 -1.1682 -1.4227
   64SAPC   H2Y 5168   0.541   6.737   6.780 -0.3897 -1.0401  2.0333
   64SAPC   C23 5169   1.203   6.426   6.639 -0.2961 -0.1182  0.0970
   64SAPC   H3R 5170   1.132   6.343   6.617 -0.2421 -0.1321 -0.0248
   64SAPC   H3S 5171   1.185   6.462   6.743 -1.1079 -0.6143  0.1265
   64SAPC   C24 5172   1.348   6.374   6.637  0.2758  0.5601  0.5830
   64SAPC   H4R 5173   1.419   6.445   6.684  0.6720  0.9030 -0.5039
   64SAPC   H4S 5174   1.371   6.378   6.528 -2.0661 -1.4534 -0.0410
   64SAPC   C25 5175   1.367   6.230   6.693  0.5941  1.0453 -0.3797
   64SAPC   H5R 5176   1.314   6.156   6.631  0.1251 -0.4344  1.7373
   64SAPC   C26 5177   1.425   6.189   6.809  0.3250  0.4899  0.2918
   64SAPC   H6R 5178   1.435   6.082   6.829 -0.7946  0.0406 -1.4111
   64SAPC   C27 5179   1.488   6.268   6.918  0.0645 -0.1221 -0.1691
   64SAPC   H7R 5180   1.578   6.322   6.880  0.4555  0.6510  1.7838
   64SAPC   H7S 5181   1.522   6.191   6.990  1.7847 -0.4233 -1.2719
   64SAPC   C28 5182   1.399   6.364   6.983  0.1876  0.7106  0.5116
   64SAPC   H8R 5183   1.321   6.418   6.926 -0.3416 -0.7501 -0.1703
   64SAPC   C29 5184   1.388   6.375   7.122 -0.3540 -0.2441 -0.5455
   64SAPC   H9R 5185   1.303   6.433   7.161  1.6079  3.0374 -0.9078
   64SAPC  C210 5186   1.471   6.297   7.222  0.5816 -0.2001  0.1387
   64SAPC  H10R 5187   1.573   6.279   7.183  0.7928  1.1047  0.0485
   64SAPC  H10S 5188   1.425   6.200   7.251  1.5887 -0.8919 -0.5606
   64SAPC  C211 5189   1.481   6.387   7.345 -0.2259 -0.1219 -1.0131
   64SAPC  H11R 5190   1.580   6.434   7.349 -0.6422  0.6759  0.2752
   64SAPC  C212 5191   1.385   6.408   7.441 -0.2483  0.7087 -0.4629
   64SAPC  H12R 5192   1.411   6.472   7.527 -1.3502  0.1616  0.2885
   64SAPC  C213 5193   1.241   6.349   7.455  0.2464 -0.2156  0.6341
   64SAPC  H13R 5194   1.254   6.251   7.507  0.9507  0.2151  1.2729
   64SAPC  H13S 5195   1.204   6.311   7.357 -0.3242 -2.0604  1.5291
   64SAPC  C214 5196   1.133   6.429   7.525 -0.4546 -0.2887 -1.0494
   64SAPC  H14R 5197   1.072   6.499   7.466 -0.5882 -0.4541 -1.1083
   64SAPC  C215 5198   1.109   6.427   7.659 -0.1500 -0.1134  0.3925
   64SAPC  H15R 5199   1.037   6.499   7.702 -1.8557 -1.1472 -0.7057
   64SAPC  C216 5200   1.174   6.337   7.762 -0.0180 -0.3555  0.9513
   64SAPC  H16R 5201   1.227   6.248   7.721  0.4040  0.0898  0.5208
   64SAPC  H16S 5202   1.097   6.294   7.830 -1.1153  0.0388 -0.0409
   64SAPC  C217 5203   1.286   6.399   7.844  0.0869  0.3729  0.6198
   64SAPC  H17R 5204   1.248   6.475   7.916  1.4756 -0.5408  2.3574
   64SAPC  H17S 5205   1.346   6.450   7.765  1.8057 -3.1143 -0.4210
   64SAPC  C218 5206   1.381   6.315   7.924 -0.1643  0.6189  0.9920
   64SAPC  H18R 5207   1.440   6.251   7.855  3.0328  2.0927  2.2350
   64SAPC  H18S 5208   1.322   6.246   7.988 -1.6519 -1.3696 -2.4431
   64SAPC  C219 5209   1.471   6.397   8.017 -0.3909 -0.0665 -0.5241
   64SAPC  H19R 5210   1.402   6.474   8.059 -2.0785 -1.5132 -0.5962
   64SAPC  H19S 5211   1.544   6.460   7.962  1.2201 -0.0665  1.5466
   64SAPC  C220 5212   1.540   6.325   8.129  0.5330  0.1528  1.1431
   64SAPC  H20R 5213   1.629   6.268   8.094  1.3473  0.9704  1.8681
   64SAPC  H20S 5214   1.473   6.249   8.174  0.6190  0.3439  1.5946
   64SAPC  H20T 5215   1.574   6.401   8.202  1.3574  2.3379 -1.4017
   64SAPC   C33 5216   0.754   6.748   6.845  0.1323 -0.6912 -0.5199
   64SAPC   H3X 5217   0.790   6.802   6.755  0.3894  1.5811  0.9137
   64SAPC   H3Y 5218   0.840   6.678   6.850  0.9228  0.1558 -2.0757
   64SAPC   C34 5219   0.742   6.828   6.972 -0.2967  0.1165 -0.0530
   64SAPC   H4X 5220   0.724   6.761   7.059 -1.4112  0.9088  0.3391
   64SAPC   H4Y 5221   0.647   6.882   6.956  0.3307  1.8634  1.9119
   64SAPC   C35 5222   0.868   6.916   7.009 -0.0400 -0.6228 -0.9212
   64SAPC   H5X 5223   0.880   6.999   6.936 -1.1537  0.4942  0.1506
   64SAPC   H5Y 5224   0.958   6.854   6.990  1.4268  1.5227 -1.1197
   64SAPC   C36 5225   0.866   6.967   7.155 -0.0770 -0.0119  0.7204
   64SAPC   H6X 5226   0.967   7.012   7.162  0.2574 -0.8701  1.6599
   64SAPC   H6Y 5227   0.856   6.881   7.225  1.5410 -0.9043 -0.1087
   64SAPC   C37 5228   0.754   7.061   7.201  0.0333  0.1619 -0.1816
   64SAPC   H7X 5229   0.651   7.028   7.177 -1.1884  1.8953  2.5281
   64SAPC   H7Y 5230   0.762   7.155   7.141  0.9809 -0.6383 -1.3506
   64SAPC   C38 5231   0.766   7.081   7.347 -0.1357 -0.2188  0.6364
   64SAPC   H8X 5232   0.868   7.122   7.363 -0.7654  1.7459 -0.2888
   64SAPC   H8Y 5233   0.770   6.988   7.408 -1.2327 -1.6454 -1.4149
   64SAPC   C39 5234   0.677   7.193   7.408 -0.2596 -0.1934 -0.3998
   64SAPC   H9X 5235   0.577   7.178   7.362 -0.0378 -0.9220 -0.6485
   64SAPC   H9Y 5236   0.701   7.298   7.384  2.7734 -0.6124  0.6474
   64SAPC  C310 5237   0.667   7.192   7.560 -0.2116 -0.5795 -0.5144
   64SAPC  H10X 5238   0.602   7.112   7.599  0.2380 -0.3973  0.6373
   64SAPC  H10Y 5239   0.632   7.293   7.591 -0.6624 -0.7773 -0.3913
   64SAPC  C311 5240   0.805   7.163   7.622  0.9323 -0.6083  0.5733
   64SAPC  H11X 5241   0.877   7.229   7.570  2.1137 -3.8887 -2.0865
   64SAPC  H11Y 5242   0.851   7.064   7.600  0.9469 -0.3735 -0.4948
   64SAPC  C312 5243   0.805   7.193   7.766 -0.2466  0.1698 -0.4437
   64SAPC  H12X 5244   0.757   7.107   7.816 -0.7607  0.1170 -1.0176
   64SAPC  H12Y 5245   0.740   7.282   7.782 -0.9695 -0.5504  0.6101
   64SAPC  C313 5246   0.953   7.221   7.813 -0.2609 -0.1066  0.0180
   64SAPC  H13X 5247   1.003   7.285   7.737 -1.5088  1.0331  0.1425
   64SAPC  H13Y 5248   1.006   7.124   7.823 -1.3010 -0.7191 -0.3114
   64SAPC  C314 5249   0.961   7.296   7.946 -0.6539  0.0956 -0.3213
   64SAPC  H14X 5250   0.883   7.375   7.944 -2.8948 -2.0621  0.1826
   64SAPC  H14Y 5251   1.057   7.352   7.955  0.1479 -1.3714  0.5674
   64SAPC  C315 5252   0.948   7.207   8.074  0.0874 -0.8597  0.3890
   64SAPC  H15X 5253   1.041   7.148   8.068 -0.8616 -2.5222  1.6139
   64SAPC  H15Y 5254   0.857   7.144   8.064 -0.4876  0.2110 -1.4637
   64SAPC  C316 5255   0.951   7.283   8.204 -0.3286 -0.1559  0.1361
   64SAPC  H16X 5256   0.844   7.311   8.213 -0.5113  0.0668 -2.3207
   64SAPC  H16Y 5257   1.012   7.375   8.200 -1.1314  0.3766 -0.1153
   64SAPC  C317 5258   1.003   7.198   8.315 -0.4534 -0.7650  0.5133
   64SAPC  H17X 5259   1.113   7.205   8.311 -0.5913  0.3067 -2.3863
   64SAPC  H17Y 5260   0.958   7.097   8.306 -2.7312  0.2381  0.3338
   64SAPC  C318 5261   0.951   7.256   8.449  0.0873 -0.0347  0.2118
   64SAPC  H18X 5262   0.985   7.360   8.464 -0.5860  0.1076  0.7922
   64SAPC  H18Y 5263   0.994   7.198   8.534 -0.7812 -0.5350  0.3216
   64SAPC  H18Z 5264   0.841   7.249   8.457  0.0784 -0.3880 -0.1920
   65SAPC     N 5265   0.747   1.445   5.658 -0.2400 -0.6748  0.3403
   65SAPC   C12 5266   0.786   1.338   5.761 -0.3010 -0.2510  0.6246
   65SAPC  H12A 5267   0.881   1.372   5.799  0.2516  0.4945 -1.3367
   65SAPC  H12B 5268   0.803   1.246   5.708  0.3003  0.6805 -0.8518
   65SAPC   C13 5269   0.638   1.395   5.570  0.5515  0.4605 -0.6836
   65SAPC  H13A 5270   0.598   1.471   5.503  1.4601  3.1103  1.6679
   65SAPC  H13B 5271   0.676   1.313   5.511 -0.5923 -1.1292  0.7402
   65SAPC  H13C 5272   0.553   1.354   5.621  1.2583 -0.9576 -0.6228
   65SAPC   C14 5273   0.713   1.579   5.717 -0.1216  0.4480 -0.3627
   65SAPC  H14A 5274   0.613   1.580   5.756 -0.7218  0.4740 -1.8739
   65SAPC  H14B 5275   0.784   1.612   5.793 -2.1602 -0.5789  2.0495
   65SAPC  H14C 5276   0.713   1.655   5.641  0.9248 -0.4297 -1.2689
   65SAPC   C15 5277   0.867   1.472   5.568 -0.4320 -0.0436 -0.0697
   65SAPC  H15A 5278   0.936   1.546   5.607 -0.2419  0.8700 -2.0813
   65SAPC  H15B 5279   0.927   1.383   5.554  2.1012  1.5919  0.0942
   65SAPC  H15C 5280   0.850   1.509   5.468  3.3992  0.1403 -0.7253
   65SAPC   C11 5281   0.683   1.311   5.876 -0.2822  0.1684  0.7241
   65SAPC  H11A 5282   0.683   1.401   5.941 -2.2391  1.9920 -1.7134
   65SAPC  H11B 5283   0.724   1.238   5.949  1.0571  1.0174  0.8348
   65SAPC     P 5284   0.431   1.298   5.928 -0.3126  0.0906  0.3567
   65SAPC   O13 5285   0.363   1.418   5.872  0.7525 -0.1457 -0.6333
   65SAPC   O14 5286   0.348   1.180   5.945 -0.0311 -0.0075  0.7330
   65SAPC   O12 5287   0.554   1.278   5.835  0.6583  0.3305  0.5673
   65SAPC   O11 5288   0.492   1.340   6.070  0.1679  0.3037 -0.3835
   65SAPC    C1 5289   0.528   1.246   6.172 -0.0421  0.1647 -0.6352
   65SAPC    HA 5290   0.561   1.149   6.128 -1.1063  0.2479 -1.6524
   65SAPC    HB 5291   0.613   1.288   6.229  0.3261  0.8832 -1.7015
   65SAPC    C2 5292   0.410   1.204   6.266  0.2924 -1.0566 -0.1900
   65SAPC    HS 5293   0.324   1.168   6.206 -0.3897 -0.7470  0.5787
   65SAPC   O21 5294   0.385   1.314   6.355  0.4650  0.3628  0.2226
   65SAPC   C21 5295   0.273   1.372   6.321 -0.7936 -0.2912 -1.5035
   65SAPC   O22 5296   0.204   1.358   6.224 -0.2887  0.4298 -0.2490
   65SAPC   C22 5297   0.245   1.480   6.430  0.1545  0.9373  0.3351
   65SAPC   H2R 5298   0.283   1.443   6.528  0.0549 -0.5625 -0.1824
   65SAPC   H2S 5299   0.303   1.568   6.395  1.7403 -0.7212 -1.3005
   65SAPC    C3 5300   0.458   1.099   6.361  0.6480 -0.2205 -0.0954
   65SAPC    HX 5301   0.552   1.126   6.414  1.3069 -1.6210 -0.5088
   65SAPC    HY 5302   0.475   1.012   6.293  1.0822 -1.2832  1.3366
   65SAPC   O31 5303   0.365   1.070   6.471  0.3624 -0.0220  0.1003
   65SAPC   C31 5304   0.264   0.989   6.452 -0.1914  0.1115 -0.2172
   65SAPC   O32 5305   0.226   0.962   6.335  0.3061  0.5857 -0.2047
   65SAPC   C32 5306   0.206   0.933   6.578  0.1657 -0.2416  0.4178
   65SAPC   H2X 5307   0.276   0.852   6.609 -2.0033 -2.0012  0.8392
   65SAPC   H2Y 5308   0.110   0.884   6.551  0.6336 -1.1235  0.3057
   65SAPC   C23 5309   0.094   1.507   6.453  0.1706 -0.3394  0.0819
   65SAPC   H3R 5310   0.032   1.416   6.437 -2.6177  1.2258  1.5695
   65SAPC   H3S 5311   0.055   1.586   6.385 -1.3152  1.4755  2.9652
   65SAPC   C24 5312   0.082   1.559   6.589 -0.1502 -0.5728 -0.3244
   65SAPC   H4R 5313   0.146   1.649   6.588  2.1314 -2.1674 -1.5883
   65SAPC   H4S 5314   0.129   1.484   6.656 -0.8202 -0.3539  0.4022
   65SAPC   C25 5315  -0.052   1.591   6.648  0.5603  0.4168 -0.9583
   65SAPC   H5R 5316  -0.137   1.559   6.585  0.6347  1.0471 -1.3771
   65SAPC   C26 5317  -0.072   1.651   6.765 -0.1731  0.5272 -0.0854
   65SAPC   H6R 5318  -0.177   1.660   6.796 -0.0896  0.8481  0.0961
   65SAPC   C27 5319   0.042   1.695   6.858 -0.0596 -0.3054 -0.6566
   65SAPC   H7R 5320   0.103   1.771   6.805 -0.1297 -1.2406 -2.1088
   65SAPC   H7S 5321   0.111   1.611   6.883  2.3077  2.5189  2.6492
   65SAPC   C28 5322  -0.005   1.761   6.997  0.7710  0.2614  0.3199
   65SAPC   H8R 5323  -0.096   1.821   6.986  0.6798 -0.1069 -1.0323
   65SAPC   C29 5324   0.047   1.757   7.125  0.3960  0.8997 -0.3916
   65SAPC   H9R 5325  -0.004   1.810   7.206  0.3126  0.7149 -0.3222
   65SAPC  C210 5326   0.167   1.678   7.174  0.3782 -0.1329  1.2421
   65SAPC  H10R 5327   0.260   1.719   7.129 -1.2972  0.4164 -1.8216
   65SAPC  H10S 5328   0.167   1.571   7.144  0.8948 -0.0648  0.9931
   65SAPC  C211 5329   0.176   1.700   7.325  0.3158  0.5806  0.8342
   65SAPC  H11R 5330   0.103   1.655   7.394 -1.6845  3.1709  0.4518
   65SAPC  C212 5331   0.269   1.773   7.384 -0.0148 -0.0106  0.4258
   65SAPC  H12R 5332   0.256   1.779   7.493  1.9818 -0.5422  0.7176
   65SAPC  C213 5333   0.398   1.836   7.324 -0.6515  0.3577  0.4873
   65SAPC  H13R 5334   0.392   1.846   7.214 -0.0637  0.0277  0.4264
   65SAPC  H13S 5335   0.487   1.771   7.339 -1.7870 -1.3652 -0.0119
   65SAPC  C214 5336   0.435   1.964   7.391 -0.9206 -0.5984  0.0522
   65SAPC  H14R 5337   0.375   2.047   7.352  0.1689  1.7946  3.1758
   65SAPC  C215 5338   0.530   1.998   7.481 -0.3225 -0.6001  0.0631
   65SAPC  H15R 5339   0.545   2.106   7.495 -2.6028  0.0290 -2.0375
   65SAPC  C216 5340   0.631   1.912   7.549 -0.1021  0.5167  0.0612
   65SAPC  H16R 5341   0.725   1.969   7.557  0.1014  0.2417 -0.3718
   65SAPC  H16S 5342   0.649   1.820   7.489 -0.7789 -0.3511  1.1552
   65SAPC  C217 5343   0.596   1.865   7.687 -0.4161 -0.2678 -0.1194
   65SAPC  H17R 5344   0.681   1.807   7.728 -1.4857 -1.2069  0.8392
   65SAPC  H17S 5345   0.498   1.812   7.683 -1.2541  1.3876 -5.0486
   65SAPC  C218 5346   0.596   1.977   7.805  0.3282  0.3100 -0.3240
   65SAPC  H18R 5347   0.559   1.933   7.900 -3.0194  1.7044 -0.8995
   65SAPC  H18S 5348   0.512   2.039   7.767 -0.9294 -2.2463 -1.8705
   65SAPC  C219 5349   0.723   2.053   7.832  0.4184 -0.0223  0.4717
   65SAPC  H19R 5350   0.708   2.136   7.904  2.2152  1.6465 -0.9786
   65SAPC  H19S 5351   0.750   2.110   7.740  1.2683  0.9866  1.3423
   65SAPC  C220 5352   0.838   1.965   7.884 -0.2650 -0.6618 -0.6072
   65SAPC  H20R 5353   0.801   1.887   7.955  3.8898 -2.6936 -0.5256
   65SAPC  H20S 5354   0.918   2.031   7.922 -2.1515  0.8319  0.8550
   65SAPC  H20T 5355   0.878   1.922   7.789 -1.7391  1.5587 -2.2986
   65SAPC   C33 5356   0.176   1.040   6.685 -0.3978  0.3012  0.0411
   65SAPC   H3X 5357   0.258   1.114   6.672  0.2062 -0.1967  1.0069
   65SAPC   H3Y 5358   0.182   0.988   6.782 -2.0072 -0.4510 -0.2362
   65SAPC   C34 5359   0.040   1.111   6.667  0.4807 -0.4130 -0.3869
   65SAPC   H4X 5360  -0.043   1.037   6.666 -1.7182  1.9602  0.7176
   65SAPC   H4Y 5361   0.042   1.170   6.573 -2.1244  0.1638 -0.1068
   65SAPC   C35 5362   0.008   1.202   6.786  0.6864 -0.2817 -0.1692
   65SAPC   H5X 5363  -0.064   1.280   6.750  0.5190 -0.3122  0.0945
   65SAPC   H5Y 5364   0.099   1.252   6.824 -1.0481  1.5407  1.7853
   65SAPC   C36 5365  -0.067   1.133   6.900  0.0970 -0.0487 -0.8855
   65SAPC   H6X 5366  -0.011   1.041   6.928 -0.0038 -0.5586 -2.2739
   65SAPC   H6Y 5367  -0.163   1.099   6.855 -0.9918 -0.0334  1.3638
   65SAPC   C37 5368  -0.073   1.222   7.020  0.4733 -0.4069  0.3355
   65SAPC   H7X 5369  -0.088   1.328   6.989  0.7119 -1.0279 -1.9448
   65SAPC   H7Y 5370   0.024   1.219   7.074  0.8893  1.1493 -0.3121
   65SAPC   C38 5371  -0.187   1.185   7.115  0.3631  0.0055 -0.2390
   65SAPC   H8X 5372  -0.193   1.080   7.150  2.4709 -0.3873 -0.9663
   65SAPC   H8Y 5373  -0.288   1.208   7.075  0.2965  0.5649  0.2502
   65SAPC   C39 5374  -0.183   1.266   7.247  0.2204 -0.1442  0.0113
   65SAPC   H9X 5375  -0.077   1.282   7.275  0.1604 -0.4444  0.4177
   65SAPC   H9Y 5376  -0.230   1.222   7.337  2.0886 -1.0419  0.5606
   65SAPC  C310 5377  -0.241   1.410   7.235  0.5156  0.3363  0.2411
   65SAPC  H10X 5378  -0.318   1.422   7.156 -0.7655  0.5512  1.4866
   65SAPC  H10Y 5379  -0.158   1.473   7.198  0.6553  1.2608  2.0427
   65SAPC  C311 5380  -0.285   1.470   7.375 -0.0791 -0.2870 -0.1872
   65SAPC  H11X 5381  -0.320   1.395   7.449  0.9059  0.1352  0.7203
   65SAPC  H11Y 5382  -0.371   1.533   7.347 -0.0240 -0.4814 -0.8045
   65SAPC  C312 5383  -0.179   1.555   7.445  0.4441 -0.9930 -0.2274
   65SAPC  H12X 5384  -0.168   1.637   7.371 -1.3088  0.4745  1.0967
   65SAPC  H12Y 5385  -0.090   1.489   7.452 -0.6530 -2.4574  0.1035
   65SAPC  C313 5386  -0.220   1.602   7.579 -0.1808 -0.0501 -0.2940
   65SAPC  H13X 5387  -0.206   1.519   7.652 -1.9811 -0.9919 -0.9873
   65SAPC  H13Y 5388  -0.321   1.645   7.590  0.6504  1.5291  1.5102
   65SAPC  C314 5389  -0.124   1.714   7.633  0.5422 -0.5858 -0.3873
   65SAPC  H14X 5390  -0.184   1.780   7.699 -2.7607 -2.2360 -1.6127
   65SAPC  H14Y 5391  -0.087   1.773   7.546  1.2473 -2.0146 -1.0746
   65SAPC  C315 5392   0.004   1.652   7.705 -0.2774 -0.2040  0.4637
   65SAPC  H15X 5393   0.060   1.603   7.623  1.8838  0.3726  1.5398
   65SAPC  H15Y 5394  -0.030   1.573   7.775 -0.0110 -0.7823 -0.0613
   65SAPC  C316 5395   0.099   1.751   7.763  0.1242  0.0211  0.1573
   65SAPC  H16X 5396   0.032   1.817   7.822 -1.0646 -1.9470  1.0993
   65SAPC  H16Y 5397   0.131   1.826   7.688  3.1494 -0.6777  0.6944
   65SAPC  C317 5398   0.214   1.685   7.835  0.1635 -0.5685 -0.7619
   65SAPC  H17X 5399   0.270   1.631   7.757 -0.1226 -0.5732 -0.9648
   65SAPC  H17Y 5400   0.178   1.612   7.912 -2.6745  0.3910 -1.1092
   65SAPC  C318 5401   0.306   1.789   7.892 -0.3501 -0.7881  0.2263
   65SAPC  H18X 5402   0.259   1.849   7.974  1.4678  3.0671 -1.4539
   65SAPC  H18Y 5403   0.344   1.856   7.812 -1.9673 -0.4373 -0.2812
   65SAPC  H18Z 5404   0.401   1.745   7.930  0.1886  0.7781  0.7581
   66SAPC     N 5405   5.583   0.302   5.669  0.7271 -0.3709  0.5773
   66SAPC   C12 5406   5.657   0.303   5.795 -0.0999  0.2690  0.0870
   66SAPC  H12A 5407   5.746   0.358   5.770  0.2747 -0.0071  0.8155
   66SAPC  H12B 5408   5.685   0.200   5.813  1.3989  0.2236 -2.2641
   66SAPC   C13 5409   5.451   0.230   5.678  0.1177  0.1583  0.1011
   66SAPC  H13A 5410   5.464   0.127   5.709 -1.6945 -0.8337 -2.2486
   66SAPC  H13B 5411   5.383   0.289   5.737 -1.0352  0.5585 -1.5912
   66SAPC  H13C 5412   5.406   0.233   5.579  0.7996 -0.8491 -0.2528
   66SAPC   C14 5413   5.561   0.441   5.620  0.1873 -0.0753 -0.2858
   66SAPC  H14A 5414   5.527   0.508   5.698  0.7257  1.0042 -0.9763
   66SAPC  H14B 5415   5.651   0.487   5.584 -0.8133  0.4826 -2.1558
   66SAPC  H14C 5416   5.493   0.450   5.537  1.2895  0.3236 -1.1478
   66SAPC   C15 5417   5.662   0.224   5.569 -0.0410 -0.2389 -0.0521
   66SAPC  H15A 5418   5.657   0.121   5.601 -0.4946  0.3450  1.8307
   66SAPC  H15B 5419   5.622   0.232   5.469 -1.6525 -0.2033  0.5775
   66SAPC  H15C 5420   5.766   0.250   5.576  0.1090 -0.1818 -2.3090
   66SAPC   C11 5421   5.586   0.355   5.921 -0.2947  0.3639  0.7934
   66SAPC  H11A 5422   5.543   0.456   5.905 -0.6085 -0.0638 -1.2088
   66SAPC  H11B 5423   5.673   0.369   5.989  0.5137  0.4672 -0.2447
   66SAPC     P 5424   5.395   0.321   6.087  0.0934  0.6447 -0.0969
   66SAPC   O13 5425   5.292   0.405   6.029  0.3747  0.4361 -0.6077
   66SAPC   O14 5426   5.338   0.199   6.156 -0.0433 -0.2288 -0.4389
   66SAPC   O12 5427   5.484   0.266   5.968 -0.3339 -0.4758 -0.3926
   66SAPC   O11 5428   5.487   0.404   6.182  0.2500 -0.0622 -0.0691
   66SAPC    C1 5429   5.575   0.344   6.278 -0.8418 -0.2968 -0.0294
   66SAPC    HA 5430   5.595   0.236   6.257  0.5680  0.2382 -1.5780
   66SAPC    HB 5431   5.675   0.388   6.262 -1.2537  1.5387  2.1271
   66SAPC    C2 5432   5.525   0.368   6.423 -0.5656 -0.3703  0.3382
   66SAPC    HS 5433   5.416   0.350   6.412 -0.8648  2.2000 -1.5600
   66SAPC   O21 5434   5.554   0.509   6.453  0.1803  0.0259 -0.2837
   66SAPC   C21 5435   5.466   0.559   6.540  0.1959  0.4274  0.4155
   66SAPC   O22 5436   5.358   0.507   6.571  0.8153  0.2397 -0.4119
   66SAPC   C22 5437   5.509   0.695   6.607  0.1721  0.1253  0.5276
   66SAPC   H2R 5438   5.539   0.674   6.712  0.4697  1.3580  0.7005
   66SAPC   H2S 5439   5.600   0.731   6.555 -0.1646  0.3393  0.0831
   66SAPC    C3 5440   5.599   0.283   6.519 -0.3347  0.6221  0.3841
   66SAPC    HX 5441   5.708   0.299   6.508  0.0948 -2.2273  0.2438
   66SAPC    HY 5442   5.575   0.180   6.485 -0.2990  0.0873  1.9279
   66SAPC   O31 5443   5.567   0.301   6.660  0.0886 -0.2026 -0.3325
   66SAPC   C31 5444   5.455   0.246   6.706 -0.0835 -0.2225  0.0492
   66SAPC   O32 5445   5.383   0.178   6.646 -0.3462  0.4222  0.8700
   66SAPC   C32 5446   5.425   0.311   6.847 -0.0769 -0.0268 -0.5214
   66SAPC   H2X 5447   5.458   0.417   6.847  0.3667 -0.1586  0.1872
   66SAPC   H2Y 5448   5.484   0.261   6.927 -1.1173  0.3722  0.5120
   66SAPC   C23 5449   5.404   0.807   6.590 -0.0414 -0.3796 -0.2292
   66SAPC   H3R 5450   5.329   0.788   6.670  1.1672 -3.8751  0.1947
   66SAPC   H3S 5451   5.353   0.813   6.492 -3.1911  1.7958  1.4569
   66SAPC   C24 5452   5.463   0.947   6.602 -0.0925 -0.4179 -0.0486
   66SAPC   H4R 5453   5.391   1.019   6.559  0.4120  0.8028  1.0880
   66SAPC   H4S 5454   5.557   0.941   6.543  0.7028 -0.4712  1.1902
   66SAPC   C25 5455   5.480   0.977   6.752  0.3278  0.4873 -0.6331
   66SAPC   H5R 5456   5.584   0.968   6.786  0.6306 -1.3116 -1.9588
   66SAPC   C26 5457   5.379   1.022   6.833  0.7124  0.2381  0.7372
   66SAPC   H6R 5458   5.413   1.045   6.935 -0.2383  1.5741  0.7727
   66SAPC   C27 5459   5.231   1.045   6.812  1.1441 -0.5268 -0.7839
   66SAPC   H7R 5460   5.188   1.032   6.913 -0.0506  1.1466 -1.0612
   66SAPC   H7S 5461   5.186   0.960   6.756 -0.9673  1.0564 -1.5254
   66SAPC   C28 5462   5.206   1.185   6.759 -0.0460  0.2396  0.4329
   66SAPC   H8R 5463   5.246   1.194   6.657 -1.6367 -2.9808 -0.5385
   66SAPC   C29 5464   5.149   1.284   6.827  0.5541 -0.4727  0.2509
   66SAPC   H9R 5465   5.132   1.378   6.771  0.6904 -1.2582 -1.1473
   66SAPC  C210 5466   5.094   1.274   6.974 -0.7996 -0.9043  1.7181
   66SAPC  H10R 5467   5.120   1.179   7.026 -0.1099 -0.4587  2.2005
   66SAPC  H10S 5468   4.983   1.277   6.971 -0.7263  0.6961 -1.2869
   66SAPC  C211 5469   5.149   1.388   7.056  0.2456  0.4676  0.6675
   66SAPC  H11R 5470   5.221   1.448   7.000  0.3048  0.6687  0.9577
   66SAPC  C212 5471   5.128   1.416   7.185 -0.0961  0.8077 -0.1014
   66SAPC  H12R 5472   5.183   1.502   7.226 -1.7568  1.1082  1.5372
   66SAPC  C213 5473   5.044   1.351   7.288 -0.9839  0.4670 -0.8486
   66SAPC  H13R 5474   4.975   1.280   7.236  2.1116 -1.6700 -2.2586
   66SAPC  H13S 5475   4.984   1.428   7.339 -0.7047 -0.8455  1.5578
   66SAPC  C214 5476   5.124   1.260   7.384  0.1470 -0.8981  0.3944
   66SAPC  H14R 5477   5.182   1.181   7.335  0.4433  1.0779 -2.6280
   66SAPC  C215 5478   5.115   1.254   7.513  0.0269  1.0298 -0.1195
   66SAPC  H15R 5479   5.183   1.183   7.562 -0.7930  0.8911  0.8413
   66SAPC  C216 5480   5.033   1.344   7.603  1.1647  0.0755 -0.0677
   66SAPC  H16R 5481   4.960   1.278   7.654  0.7257  1.0382  0.5657
   66SAPC  H16S 5482   4.970   1.410   7.539 -0.1850 -2.2588 -1.2082
   66SAPC  C217 5483   5.104   1.422   7.709 -0.9657  0.1012  0.1317
   66SAPC  H17R 5484   5.026   1.474   7.769 -0.5254 -1.5830  2.1820
   66SAPC  H17S 5485   5.172   1.495   7.660 -0.0335 -1.7842 -1.4802
   66SAPC  C218 5486   5.189   1.331   7.804  0.8952 -0.2638 -0.2407
   66SAPC  H18R 5487   5.266   1.266   7.758 -0.4415 -2.0888  0.0169
   66SAPC  H18S 5488   5.124   1.270   7.871  0.3393  2.0189  1.3799
   66SAPC  C219 5489   5.276   1.406   7.903 -0.2299  0.2186 -0.1460
   66SAPC  H19R 5490   5.345   1.471   7.845 -1.2032  1.1117 -0.3315
   66SAPC  H19S 5491   5.342   1.342   7.965  0.8244  3.5772  2.3907
   66SAPC  C220 5492   5.197   1.492   7.999  0.0092 -0.4898 -0.2665
   66SAPC  H20R 5493   5.121   1.552   7.946 -2.2650 -1.5841  1.6476
   66SAPC  H20S 5494   5.265   1.566   8.047  0.9755 -0.4527 -1.6613
   66SAPC  H20T 5495   5.143   1.443   8.083 -1.2796 -0.1832 -0.9168
   66SAPC   C33 5496   5.283   0.296   6.901  0.0434  0.3774 -0.7447
   66SAPC   H3X 5497   5.271   0.191   6.935  1.9855  1.1607  2.6354
   66SAPC   H3Y 5498   5.206   0.315   6.823  0.0292 -2.3660 -1.4478
   66SAPC   C34 5499   5.241   0.393   7.017 -0.5435  0.0765 -0.4249
   66SAPC   H4X 5500   5.132   0.380   7.034 -0.7584 -0.7634 -2.2675
   66SAPC   H4Y 5501   5.259   0.495   6.976 -1.2444  0.7702  0.9660
   66SAPC   C35 5502   5.322   0.358   7.145 -0.2034 -0.7212  0.1187
   66SAPC   H5X 5503   5.431   0.362   7.125 -0.1120  0.6840  0.8167
   66SAPC   H5Y 5504   5.305   0.257   7.189 -0.4752 -0.8921 -0.3776
   66SAPC   C36 5505   5.293   0.452   7.270 -0.3064 -0.0212 -0.2472
   66SAPC   H6X 5506   5.308   0.562   7.262 -1.5126  0.1464 -0.2314
   66SAPC   H6Y 5507   5.371   0.433   7.347  0.3905 -1.4488 -1.2874
   66SAPC   C37 5508   5.144   0.434   7.314  0.2854 -0.0996 -0.7265
   66SAPC   H7X 5509   5.125   0.327   7.335 -1.5050  0.4536  0.6450
   66SAPC   H7Y 5510   5.066   0.464   7.241  1.8049 -0.6827 -2.6178
   66SAPC   C38 5511   5.097   0.518   7.439 -0.5824 -0.2278 -0.8144
   66SAPC   H8X 5512   4.991   0.490   7.460 -0.7484  0.0388 -1.3103
   66SAPC   H8Y 5513   5.111   0.626   7.419 -0.0147 -0.3490 -1.0889
   66SAPC   C39 5514   5.165   0.471   7.572  0.3622 -0.1709  0.4234
   66SAPC   H9X 5515   5.192   0.366   7.546  0.6958  0.5852 -2.4874
   66SAPC   H9Y 5516   5.080   0.463   7.644  0.5520 -0.7169  0.5922
   66SAPC  C310 5517   5.277   0.555   7.631  0.2072  0.4169 -0.3365
   66SAPC  H10X 5518   5.249   0.662   7.619 -1.7260  0.1197  1.3956
   66SAPC  H10Y 5519   5.368   0.548   7.568  2.0447  0.3229  2.2758
   66SAPC  C311 5520   5.317   0.520   7.775 -0.2488 -0.1073 -0.0724
   66SAPC  H11X 5521   5.228   0.499   7.839 -0.9013  1.4273 -0.4568
   66SAPC  H11Y 5522   5.370   0.611   7.811 -0.1971  0.4076 -1.4223
   66SAPC  C312 5523   5.420   0.407   7.780 -0.1280  0.0102 -0.2758
   66SAPC  H12X 5524   5.358   0.325   7.738 -1.9874  1.2655 -0.0364
   66SAPC  H12Y 5525   5.443   0.385   7.886 -3.8222  0.5389  0.7108
   66SAPC  C313 5526   5.551   0.421   7.698 -0.7435 -0.5475 -0.2643
   66SAPC  H13X 5527   5.541   0.406   7.589 -1.6921  0.1989 -0.2877
   66SAPC  H13Y 5528   5.638   0.358   7.726  0.1224  1.2087  1.1460
   66SAPC  C314 5529   5.629   0.559   7.726 -0.9320 -0.2560 -0.7756
   66SAPC  H14X 5530   5.666   0.543   7.830 -1.5490  0.5622 -0.4193
   66SAPC  H14Y 5531   5.543   0.629   7.718 -2.4262 -2.1598 -1.6819
   66SAPC  C315 5532   5.733   0.598   7.618  0.9195  0.3941  0.1288
   66SAPC  H15X 5533   5.821   0.531   7.608 -1.4203 -2.6898 -0.4395
   66SAPC  H15Y 5534   5.771   0.694   7.659  1.5114  1.4564 -2.7923
   66SAPC  C316 5535   5.679   0.611   7.479 -0.2858  0.5545 -0.2269
   66SAPC  H16X 5536   5.577   0.656   7.485 -0.8585 -0.7435  0.0904
   66SAPC  H16Y 5537   5.674   0.510   7.433  0.1964 -0.3259  1.5964
   66SAPC  C317 5538   5.760   0.693   7.368  0.2654 -0.3643 -0.4692
   66SAPC  H17X 5539   5.860   0.653   7.342 -0.9032 -2.4695 -1.8408
   66SAPC  H17Y 5540   5.793   0.786   7.418  0.6510 -0.6900 -0.1129
   66SAPC  C318 5541   5.697   0.724   7.233  0.2154 -0.0827  0.1801
   66SAPC  H18X 5542   5.623   0.806   7.244  0.2249  0.3583 -2.7438
   66SAPC  H18Y 5543   5.651   0.627   7.204 -1.0791  0.7933 -0.7356
   66SAPC  H18Z 5544   5.777   0.754   7.161 -1.4397 -0.3079 -1.7888
   67SAPC     N 5545   0.633   2.655   6.144  0.4922 -0.2242  0.1135
   67SAPC   C12 5546   0.585   2.517   6.194  0.3372  0.4325 -0.5228
   67SAPC  H12A 5547   0.668   2.454   6.220 -0.5387 -1.7392 -2.7776
   67SAPC  H12B 5548   0.525   2.468   6.119 -0.9372  0.2412  0.5972
   67SAPC   C13 5549   0.686   2.640   5.998 -0.1011 -0.1352 -0.2597
   67SAPC  H13A 5550   0.611   2.596   5.933 -1.5596  0.7008  0.8210
   67SAPC  H13B 5551   0.724   2.733   5.960  0.4529 -0.4630 -0.5175
   67SAPC  H13C 5552   0.773   2.576   5.997 -0.2800 -0.3793 -0.5115
   67SAPC   C14 5553   0.522   2.752   6.137  0.7053  0.0026 -1.2141
   67SAPC  H14A 5554   0.438   2.707   6.085  0.4852 -1.4458  0.3536
   67SAPC  H14B 5555   0.495   2.769   6.240 -1.2055  0.7856 -1.8045
   67SAPC  H14C 5556   0.557   2.846   6.097 -1.2651  1.1937 -0.2349
   67SAPC   C15 5557   0.733   2.705   6.239  0.2623  0.0418  0.0228
   67SAPC  H15A 5558   0.699   2.717   6.340  1.2099  3.6054 -0.0342
   67SAPC  H15B 5559   0.816   2.636   6.240 -1.3001 -1.9789 -1.8261
   67SAPC  H15C 5560   0.775   2.799   6.209  0.2932 -0.1747 -0.6262
   67SAPC   C11 5561   0.497   2.522   6.322 -0.2765  0.3293 -0.6816
   67SAPC  H11A 5562   0.459   2.419   6.338 -0.2158  0.6600  1.6373
   67SAPC  H11B 5563   0.412   2.592   6.305  0.1057  0.6202 -1.4707
   67SAPC     P 5564   0.683   2.473   6.503 -0.4836 -0.5660 -0.0242
   67SAPC   O13 5565   0.759   2.394   6.402  0.2686  0.1132  0.0044
   67SAPC   O14 5566   0.760   2.556   6.599 -0.2966  0.0168  0.1818
   67SAPC   O12 5567   0.582   2.569   6.426  0.3239 -0.2080 -0.2341
   67SAPC   O11 5568   0.585   2.376   6.585  0.0008 -0.2643  0.4896
   67SAPC    C1 5569   0.509   2.441   6.694 -0.2577  0.4302  0.7414
   67SAPC    HA 5570   0.506   2.551   6.678  0.1587  0.2684 -0.5433
   67SAPC    HB 5571   0.407   2.397   6.700 -0.2124  0.3199  0.7220
   67SAPC    C2 5572   0.576   2.419   6.833  0.1862 -0.3167  0.0088
   67SAPC    HS 5573   0.676   2.468   6.837 -0.6128  1.5193 -1.8463
   67SAPC   O21 5574   0.588   2.273   6.860  0.1583 -0.2020 -0.4927
   67SAPC   C21 5575   0.677   2.243   6.952 -0.7292  0.4475  0.3668
   67SAPC   O22 5576   0.771   2.314   6.985  0.1591 -0.0001 -0.5094
   67SAPC   C22 5577   0.651   2.098   6.997 -0.2311  0.0720  0.1632
   67SAPC   H2R 5578   0.561   2.076   7.058  0.2829 -1.3614  0.4225
   67SAPC   H2S 5579   0.636   2.034   6.908 -1.3003 -1.9504  1.7691
   67SAPC    C3 5580   0.495   2.496   6.939  0.2265  0.1690  0.3055
   67SAPC    HX 5581   0.384   2.488   6.931  0.3385 -1.0910 -0.1613
   67SAPC    HY 5582   0.513   2.604   6.919  1.1182 -0.0853 -0.2663
   67SAPC   O31 5583   0.527   2.456   7.074 -0.1693  0.5724 -0.3805
   67SAPC   C31 5584   0.488   2.547   7.161  0.3380  0.3801  0.3319
   67SAPC   O32 5585   0.417   2.642   7.138 -0.1927 -0.3940  0.0926
   67SAPC   C32 5586   0.540   2.506   7.299  0.1302 -0.4718  0.4462
   67SAPC   H2X 5587   0.648   2.535   7.301 -0.2909  1.0991  1.1164
   67SAPC   H2Y 5588   0.538   2.395   7.304  0.0493 -0.5271 -0.7235
   67SAPC   C23 5589   0.777   2.037   7.073  0.4857 -0.0914  0.8693
   67SAPC   H3R 5590   0.875   2.065   7.027  0.8803 -1.2432  0.9952
   67SAPC   H3S 5591   0.765   1.928   7.057 -1.2516  0.2917 -0.5320
   67SAPC   C24 5592   0.774   2.073   7.219  0.9570 -0.0036 -0.5352
   67SAPC   H4R 5593   0.696   2.013   7.271  0.3668  1.1352 -0.1061
   67SAPC   H4S 5594   0.746   2.180   7.229 -0.5591 -0.5397  1.1558
   67SAPC   C25 5595   0.901   2.047   7.290 -0.5103  0.0296 -0.5612
   67SAPC   H5R 5596   0.911   1.947   7.336 -1.6459 -1.0410 -2.5771
   67SAPC   C26 5597   1.009   2.126   7.315  0.0526 -0.7863  0.5972
   67SAPC   H6R 5598   1.099   2.092   7.368  2.0197  2.0590 -0.7654
   67SAPC   C27 5599   1.015   2.262   7.251 -0.8093  0.8093 -0.1352
   67SAPC   H7R 5600   0.972   2.262   7.149  0.1755  2.0018 -0.5644
   67SAPC   H7S 5601   1.122   2.288   7.236 -0.5796  0.5663  0.9958
   67SAPC   C28 5602   0.952   2.371   7.330  0.0648 -0.6129  0.6192
   67SAPC   H8R 5603   0.843   2.377   7.316 -0.0226 -0.6898  1.2578
   67SAPC   C29 5604   1.016   2.456   7.411  0.0026 -0.6702  0.0793
   67SAPC   H9R 5605   0.955   2.535   7.458  2.0164  1.5678 -0.9236
   67SAPC  C210 5606   1.166   2.467   7.430 -0.2983  0.0275  0.3079
   67SAPC  H10R 5607   1.199   2.363   7.451  1.0623  0.8766  2.5532
   67SAPC  H10S 5608   1.192   2.526   7.521  0.5411  1.7297 -1.0122
   67SAPC  C211 5609   1.248   2.534   7.318 -0.1706  0.3966 -0.2079
   67SAPC  H11R 5610   1.186   2.588   7.245  2.6188  0.4651 -2.6500
   67SAPC  C212 5611   1.385   2.535   7.323 -0.1421 -0.6264  0.1083
   67SAPC  H12R 5612   1.440   2.590   7.246 -5.0208  2.1411 -1.6243
   67SAPC  C213 5613   1.467   2.478   7.441  0.0035  0.2837  0.5109
   67SAPC  H13R 5614   1.416   2.397   7.497 -0.8193 -0.6964 -1.5907
   67SAPC  H13S 5615   1.508   2.554   7.511  1.7828 -1.4686  1.3992
   67SAPC  C214 5616   1.589   2.408   7.376  0.0945 -0.0056  0.0849
   67SAPC  H14R 5617   1.575   2.370   7.275 -1.1891  0.8157 -0.0644
   67SAPC  C215 5618   1.705   2.382   7.442  0.9322 -0.2406  0.6639
   67SAPC  H15R 5619   1.780   2.315   7.397 -0.6403 -0.3984 -1.8402
   67SAPC  C216 5620   1.725   2.420   7.587  0.7856 -0.1077  0.2367
   67SAPC  H16R 5621   1.662   2.502   7.628 -0.7775 -1.5651  0.8125
   67SAPC  H16S 5622   1.831   2.451   7.600  0.9921 -0.4242 -0.6146
   67SAPC  C217 5623   1.705   2.306   7.689 -0.1924  0.3129  0.1723
   67SAPC  H17R 5624   1.761   2.210   7.675  0.8464  0.6720  1.7443
   67SAPC  H17S 5625   1.599   2.274   7.683  0.1641 -0.9628  0.5884
   67SAPC  C218 5626   1.731   2.354   7.830 -0.3103 -0.4751 -0.0609
   67SAPC  H18R 5627   1.674   2.446   7.855  0.0530 -0.4736  0.7778
   67SAPC  H18S 5628   1.836   2.389   7.837 -1.0506  2.0160 -0.8943
   67SAPC  C219 5629   1.716   2.237   7.934 -0.2210 -0.1252 -0.2343
   67SAPC  H19R 5630   1.779   2.149   7.908  0.0953 -0.6251  2.1871
   67SAPC  H19S 5631   1.605   2.227   7.926 -0.2817 -0.7077  1.2096
   67SAPC  C220 5632   1.751   2.291   8.074 -0.5142  0.0349 -0.4260
   67SAPC  H20R 5633   1.695   2.386   8.086 -0.6014 -0.2151  1.1926
   67SAPC  H20S 5634   1.860   2.307   8.084  0.2362 -3.7805 -1.6943
   67SAPC  H20T 5635   1.710   2.240   8.164 -3.0138 -0.4777 -1.8103
   67SAPC   C33 5636   0.454   2.563   7.413  0.2647  0.3025 -0.8649
   67SAPC   H3X 5637   0.350   2.522   7.414  0.7521 -0.9541  0.2781
   67SAPC   H3Y 5638   0.453   2.673   7.402  1.2129  0.2449 -1.4954
   67SAPC   C34 5639   0.501   2.544   7.563 -0.0799  0.2051 -0.4187
   67SAPC   H4X 5640   0.501   2.433   7.574  0.3783  0.0651 -1.7818
   67SAPC   H4Y 5641   0.421   2.567   7.637  2.3020  0.7870  2.0412
   67SAPC   C35 5642   0.645   2.595   7.597 -0.5124 -0.3363  0.1083
   67SAPC   H5X 5643   0.648   2.706   7.597  1.6616 -0.3722  0.5780
   67SAPC   H5Y 5644   0.706   2.566   7.509  2.1310 -2.8636  2.6797
   67SAPC   C36 5645   0.702   2.531   7.727 -0.3039  0.0900  0.1249
   67SAPC   H6X 5646   0.717   2.425   7.699  0.1811  0.0604  0.5024
   67SAPC   H6Y 5647   0.627   2.541   7.808 -2.0407  0.0388 -1.4337
   67SAPC   C37 5648   0.823   2.590   7.783 -0.2275 -0.8657  0.1257
   67SAPC   H7X 5649   0.811   2.693   7.822  1.0885  0.3812 -2.5896
   67SAPC   H7Y 5650   0.898   2.597   7.701 -0.3435  1.2731  0.1994
   67SAPC   C38 5651   0.883   2.507   7.898 -0.0044 -0.6524  0.4583
   67SAPC   H8X 5652   0.973   2.565   7.929 -0.0174 -0.4008  0.0271
   67SAPC   H8Y 5653   0.911   2.404   7.866  1.7574 -0.0091 -0.1183
   67SAPC   C39 5654   0.793   2.466   8.016  0.0597  0.0818  0.4355
   67SAPC   H9X 5655   0.857   2.407   8.086  1.1701 -0.6976 -1.2154
   67SAPC   H9Y 5656   0.708   2.407   7.977 -0.0333  0.5212 -0.0288
   67SAPC  C310 5657   0.738   2.592   8.087 -0.0385  0.3105  0.3956
   67SAPC  H10X 5658   0.681   2.548   8.172  2.5736 -1.5005  1.2858
   67SAPC  H10Y 5659   0.671   2.648   8.019 -1.6273 -0.8055  1.0153
   67SAPC  C311 5660   0.853   2.671   8.159  0.7368 -0.6729 -0.0117
   67SAPC  H11X 5661   0.921   2.712   8.081  0.5950  0.5771  0.5090
   67SAPC  H11Y 5662   0.916   2.605   8.222  0.6730 -0.0055  0.7683
   67SAPC  C312 5663   0.800   2.777   8.251 -0.1319 -0.1106 -0.3946
   67SAPC  H12X 5664   0.847   2.765   8.351 -0.4497 -2.4024 -0.4769
   67SAPC  H12Y 5665   0.692   2.754   8.265 -0.1035 -1.1937 -1.8331
   67SAPC  C313 5666   0.802   2.925   8.204 -0.6063 -0.1877  0.5066
   67SAPC  H13X 5667   0.797   2.929   8.093  1.7113 -0.0008  0.3676
   67SAPC  H13Y 5668   0.909   2.955   8.207 -1.1973  1.9737  0.8100
   67SAPC  C314 5669   0.713   3.028   8.281 -0.3319 -0.8525  0.0142
   67SAPC  H14X 5670   0.733   3.028   8.391 -0.1845 -2.7667 -0.0070
   67SAPC  H14Y 5671   0.605   3.010   8.263 -0.6894  0.3388  0.8526
   67SAPC  C315 5672   0.743   3.173   8.224 -0.5438  0.1056  0.3421
   67SAPC  H15X 5673   0.704   3.169   8.120 -0.9031 -1.1811  0.5169
   67SAPC  H15Y 5674   0.853   3.188   8.222 -0.7686  1.7774 -0.5319
   67SAPC  C316 5675   0.681   3.289   8.292  0.0337 -0.0539  0.1618
   67SAPC  H16X 5676   0.738   3.372   8.244  0.8080 -0.6302  0.0745
   67SAPC  H16Y 5677   0.717   3.305   8.396 -0.6984 -0.1154  0.4216
   67SAPC  C317 5678   0.530   3.316   8.294  0.4320 -0.4299  0.6401
   67SAPC  H17X 5679   0.529   3.421   8.330 -1.3765  0.8240 -2.7888
   67SAPC  H17Y 5680   0.472   3.258   8.369  1.5137  0.0842  1.9084
   67SAPC  C318 5681   0.453   3.308   8.154  0.6585 -0.4386 -0.9079
   67SAPC  H18X 5682   0.508   3.347   8.066 -0.6594 -0.3405 -1.6958
   67SAPC  H18Y 5683   0.356   3.362   8.156 -0.7680 -2.9290 -0.8768
   67SAPC  H18Z 5684   0.441   3.200   8.128 -0.9511 -0.5638  0.2638
   68SAPC     N 5685   6.112   2.341   6.228 -0.9128 -0.3376 -0.2586
   68SAPC   C12 5686   6.003   2.286   6.322  0.1789 -0.6380  0.3629
   68SAPC  H12A 5687   5.932   2.239   6.255 -0.5342 -2.0066  2.0282
   68SAPC  H12B 5688   5.951   2.367   6.370  0.6810  0.2575 -0.5767
   68SAPC   C13 5689   6.238   2.386   6.296  0.7588 -0.3364 -0.3677
   68SAPC  H13A 5690   6.321   2.412   6.232  0.7511 -1.0737 -0.6816
   68SAPC  H13B 5691   6.217   2.474   6.356  1.9382 -0.2223 -0.1073
   68SAPC  H13C 5692   6.286   2.312   6.358  2.2611  1.6196  0.8646
   68SAPC   C14 5693   6.158   2.225   6.135  0.1202  0.2563  0.4554
   68SAPC  H14A 5694   6.070   2.188   6.085 -1.0058  0.9799  1.8587
   68SAPC  H14B 5695   6.226   2.255   6.057 -2.5280 -1.5392 -2.6453
   68SAPC  H14C 5696   6.197   2.138   6.188 -2.4042 -0.4876  1.1646
   68SAPC   C15 5697   6.057   2.443   6.142  0.4802 -0.2592  0.5925
   68SAPC  H15A 5698   6.144   2.496   6.105  0.6065 -1.0140 -0.1917
   68SAPC  H15B 5699   5.997   2.406   6.060  0.2843 -0.8009  0.9774
   68SAPC  H15C 5700   6.012   2.524   6.197  1.9453  0.6658  0.4601
   68SAPC   C11 5701   6.038   2.175   6.434 -0.2753  0.1126  0.3681
   68SAPC  H11A 5702   5.951   2.164   6.502  0.5401  2.1905  1.7942
   68SAPC  H11B 5703   6.122   2.219   6.491  1.4663 -0.6807 -1.5492
   68SAPC     P 5704   5.987   1.946   6.322 -0.7639  0.4508  0.1674
   68SAPC   O13 5705   5.860   2.010   6.285  0.4533 -0.2066 -0.5803
   68SAPC   O14 5706   6.047   1.858   6.215  0.0433  0.2451  0.1505
   68SAPC   O12 5707   6.089   2.060   6.364  0.3222  0.0840 -0.2133
   68SAPC   O11 5708   5.954   1.870   6.464 -0.0966 -0.3631 -0.0621
   68SAPC    C1 5709   6.068   1.800   6.522  0.0686 -0.5824  0.1292
   68SAPC    HA 5710   6.084   1.705   6.467 -1.3718  0.6167 -2.4457
   68SAPC    HB 5711   6.161   1.859   6.514  0.3392 -1.1047 -0.5919
   68SAPC    C2 5712   6.043   1.757   6.666  0.0861 -0.2699 -0.7206
   68SAPC    HS 5713   6.140   1.712   6.696 -1.2034 -1.4551  1.7851
   68SAPC   O21 5714   5.930   1.664   6.691 -0.8370 -0.6903  0.0355
   68SAPC   C21 5715   5.954   1.539   6.685  0.9459 -0.0618  0.5091
   68SAPC   O22 5716   6.047   1.480   6.630 -0.1954  0.2108 -0.0715
   68SAPC   C22 5717   5.856   1.473   6.779 -0.6881 -0.5810  0.5607
   68SAPC   H2R 5718   5.877   1.512   6.881  2.9536  0.7904 -0.6505
   68SAPC   H2S 5719   5.758   1.506   6.740 -0.1895 -0.5936 -0.7153
   68SAPC    C3 5720   6.023   1.878   6.752  0.2490 -0.8588 -0.3359
   68SAPC    HX 5721   5.923   1.922   6.730  0.6819  0.1701 -0.2664
   68SAPC    HY 5722   6.107   1.949   6.751  0.1150 -0.7031 -0.4167
   68SAPC   O31 5723   6.013   1.828   6.888  0.4844 -0.3875 -0.2250
   68SAPC   C31 5724   5.963   1.904   6.976 -0.2028 -0.9321 -0.1769
   68SAPC   O32 5725   5.935   2.022   6.967 -0.2878 -0.5244 -0.4524
   68SAPC   C32 5726   5.962   1.829   7.120 -0.2386  0.5268  0.4195
   68SAPC   H2X 5727   6.061   1.817   7.168  0.6803  0.0277 -1.5676
   68SAPC   H2Y 5728   5.929   1.726   7.094  1.8428 -0.5345  1.8897
   68SAPC   C23 5729   5.873   1.318   6.778 -0.4610 -0.0262  0.1811
   68SAPC   H3R 5730   5.981   1.292   6.777 -0.3308  0.3014  2.4088
   68SAPC   H3S 5731   5.821   1.288   6.685 -2.1425  0.7794  0.8440
   68SAPC   C24 5732   5.802   1.257   6.905  0.0798  0.7014  0.1544
   68SAPC   H4R 5733   5.847   1.304   6.995 -0.4808  1.2222  0.1646
   68SAPC   H4S 5734   5.811   1.146   6.902 -1.5390  0.5294  1.3168
   68SAPC   C25 5735   5.654   1.284   6.907 -0.0007 -0.1157  0.1698
   68SAPC   H5R 5736   5.608   1.285   6.807 -2.0044  0.0666  1.0636
   68SAPC   C26 5737   5.571   1.292   7.018  0.1500  0.2727  0.1387
   68SAPC   H6R 5738   5.466   1.320   7.001  0.0439  0.9149  1.7665
   68SAPC   C27 5739   5.621   1.277   7.158  0.1169  0.7541  0.3732
   68SAPC   H7R 5740   5.706   1.206   7.149 -1.7129 -1.3659 -0.6356
   68SAPC   H7S 5741   5.545   1.228   7.222 -0.8611  0.3706 -1.0741
   68SAPC   C28 5742   5.670   1.394   7.237  0.8746 -0.1770  0.8931
   68SAPC   H8R 5743   5.673   1.489   7.181 -0.0165 -2.2824 -2.8686
   68SAPC   C29 5744   5.669   1.403   7.372 -0.7290  0.8383 -0.2998
   68SAPC   H9R 5745   5.684   1.506   7.406  2.2442  0.7187 -1.1228
   68SAPC  C210 5746   5.649   1.281   7.465  0.6353 -0.3379  0.0094
   68SAPC  H10R 5747   5.683   1.192   7.407 -0.0795 -0.1316 -0.7246
   68SAPC  H10S 5748   5.543   1.256   7.487  0.1899  2.0136  0.6411
   68SAPC  C211 5749   5.724   1.303   7.591  0.0904  0.2071 -0.9758
   68SAPC  H11R 5750   5.810   1.370   7.584 -0.0055  0.4683  0.2936
   68SAPC  C212 5751   5.700   1.237   7.708  0.1278  0.0960 -0.4957
   68SAPC  H12R 5752   5.759   1.270   7.795  1.1774  2.3057 -1.9937
   68SAPC  C213 5753   5.588   1.140   7.740  0.1410  0.6423  0.2867
   68SAPC  H13R 5754   5.492   1.186   7.708 -0.6528 -1.1443  0.0615
   68SAPC  H13S 5755   5.583   1.125   7.850 -0.6766 -1.6949 -0.0259
   68SAPC  C214 5756   5.622   1.005   7.680 -0.2768  0.3654 -0.2625
   68SAPC  H14R 5757   5.729   0.981   7.677 -0.3393 -0.7654  3.6458
   68SAPC  C215 5758   5.535   0.917   7.631  0.4632 -0.5744 -0.1809
   68SAPC  H15R 5759   5.568   0.821   7.588  2.1588 -1.2842  2.5831
   68SAPC  C216 5760   5.385   0.945   7.618 -0.2376  0.1573  0.3110
   68SAPC  H16R 5761   5.361   1.035   7.678 -0.8660 -0.1599  0.5435
   68SAPC  H16S 5762   5.322   0.865   7.663  0.0568  0.8475  1.9827
   68SAPC  C217 5763   5.338   0.970   7.472 -0.3817 -0.0121  0.1421
   68SAPC  H17R 5764   5.403   1.046   7.424  0.7770 -1.2441 -0.2629
   68SAPC  H17S 5765   5.236   1.013   7.484  0.9106  2.5744  2.3064
   68SAPC  C218 5766   5.330   0.847   7.378 -0.1718 -0.1765  0.3627
   68SAPC  H18R 5767   5.255   0.774   7.416 -0.6287 -0.4713 -1.0878
   68SAPC  H18S 5768   5.426   0.794   7.395 -0.3208  0.5029  3.5783
   68SAPC  C219 5769   5.318   0.908   7.229  0.3865  0.7502 -0.3245
   68SAPC  H19R 5770   5.394   0.985   7.206  1.4075  1.0790  3.7937
   68SAPC  H19S 5771   5.217   0.955   7.221 -0.2102 -0.5790 -0.8117
   68SAPC  C220 5772   5.329   0.796   7.128 -0.0431  0.4659 -0.3492
   68SAPC  H20R 5773   5.238   0.733   7.129  0.3046 -0.0393 -0.9862
   68SAPC  H20S 5774   5.417   0.732   7.147 -0.5320  0.2120  1.1002
   68SAPC  H20T 5775   5.331   0.848   7.030  0.7683  2.0337  0.4695
   68SAPC   C33 5776   5.868   1.889   7.233  0.0170 -0.0963 -0.2924
   68SAPC   H3X 5777   5.778   1.919   7.174 -0.0906  2.6953  1.1971
   68SAPC   H3Y 5778   5.920   1.982   7.265  0.4900 -0.4894  0.0821
   68SAPC   C34 5779   5.840   1.805   7.347 -0.3205 -0.0032 -0.4119
   68SAPC   H4X 5780   5.926   1.735   7.358  0.1455  0.6004 -0.1683
   68SAPC   H4Y 5781   5.750   1.742   7.333  1.3568 -2.6274  0.1728
   68SAPC   C35 5782   5.843   1.890   7.483  0.5625 -0.2442  0.1716
   68SAPC   H5X 5783   5.946   1.925   7.508 -0.3440  0.7669  2.6625
   68SAPC   H5Y 5784   5.800   1.840   7.573  0.7531 -0.0343  0.3810
   68SAPC   C36 5785   5.755   2.015   7.467 -0.0801  0.0420  0.7189
   68SAPC   H6X 5786   5.667   1.970   7.416  0.5238  0.3725 -0.6351
   68SAPC   H6Y 5787   5.805   2.097   7.411  0.3840 -1.0531 -0.4675
   68SAPC   C37 5788   5.710   2.071   7.607 -0.0501 -0.1464  0.4412
   68SAPC   H7X 5789   5.662   1.990   7.666  1.3829 -2.7532 -1.8374
   68SAPC   H7Y 5790   5.631   2.147   7.593  2.7529  2.6366 -0.9247
   68SAPC   C38 5791   5.827   2.113   7.701 -0.1705  0.2092  0.1849
   68SAPC   H8X 5792   5.867   2.211   7.668 -1.1231  0.7613  0.6299
   68SAPC   H8Y 5793   5.907   2.038   7.683 -1.0781 -0.2429 -2.1199
   68SAPC   C39 5794   5.783   2.127   7.844 -0.0689  0.1449  0.1246
   68SAPC   H9X 5795   5.686   2.181   7.849 -0.3804 -0.1884 -1.9481
   68SAPC   H9Y 5796   5.866   2.177   7.898  0.5593  0.8130 -1.4156
   68SAPC  C310 5797   5.773   1.995   7.923 -1.0687 -0.1518 -0.4840
   68SAPC  H10X 5798   5.686   1.934   7.890 -2.6225  0.4654  2.3419
   68SAPC  H10Y 5799   5.760   2.023   8.029  2.8998 -1.0381  0.2993
   68SAPC  C311 5800   5.894   1.896   7.922  0.4754  0.1967 -1.0289
   68SAPC  H11X 5801   5.986   1.947   7.957 -1.1471  0.5941  2.8240
   68SAPC  H11Y 5802   5.904   1.867   7.815 -0.6236 -1.0653 -0.8142
   68SAPC  C312 5803   5.871   1.789   8.021 -0.3462 -0.0610  1.0105
   68SAPC  H12X 5804   5.815   1.836   8.104 -0.9258 -2.6384  2.1420
   68SAPC  H12Y 5805   5.969   1.745   8.050 -0.6406 -0.1747  1.8646
   68SAPC  C313 5806   5.776   1.678   7.978  0.6702 -0.6497 -0.2400
   68SAPC  H13X 5807   5.805   1.645   7.876 -0.7047 -0.7677 -0.6039
   68SAPC  H13Y 5808   5.670   1.713   7.970  1.2685  1.2355 -0.3271
   68SAPC  C314 5809   5.769   1.565   8.080 -0.3119  0.0808 -0.0713
   68SAPC  H14X 5810   5.688   1.493   8.054  1.6308 -2.7124  1.2543
   68SAPC  H14Y 5811   5.748   1.606   8.181 -0.6394  1.4374 -0.6887
   68SAPC  C315 5812   5.899   1.484   8.091 -0.3690 -0.2971  0.1273
   68SAPC  H15X 5813   5.982   1.547   8.129 -1.6001  1.4527 -0.0199
   68SAPC  H15Y 5814   5.927   1.459   7.986 -0.2050  0.8810 -0.1235
   68SAPC  C316 5815   5.892   1.351   8.176  0.8891  0.0413  0.3210
   68SAPC  H16X 5816   5.994   1.307   8.174  0.5446 -0.7536  0.2093
   68SAPC  H16Y 5817   5.820   1.281   8.128  1.6387 -2.4112  2.6675
   68SAPC  C317 5818   5.867   1.374   8.318 -1.0679 -0.5819  0.1189
   68SAPC  H17X 5819   5.889   1.479   8.345  0.5671 -1.7779  3.7737
   68SAPC  H17Y 5820   5.934   1.316   8.385  1.0053  1.6699  0.0454
   68SAPC  C318 5821   5.727   1.330   8.359  0.3936 -0.2401 -0.1122
   68SAPC  H18X 5822   5.652   1.385   8.300  0.7023 -0.7413 -0.9807
   68SAPC  H18Y 5823   5.709   1.351   8.467 -1.2652  0.0311 -0.4290
   68SAPC  H18Z 5824   5.715   1.220   8.344 -1.1415 -0.1827  0.6384
   69SLPC     N 5825   3.598   0.568  11.320  0.7129  0.3049 -0.0972
   69SLPC   C13 5826   3.746   0.574  11.348 -0.5026 -0.2169 -0.2917
   69SLPC  H13A 5827   3.792   0.663  11.308 -0.9767  0.8801  1.5224
   69SLPC  H13B 5828   3.770   0.559  11.452  1.0140 -0.0658 -0.6200
   69SLPC  H13C 5829   3.804   0.495  11.304 -1.7733 -1.3712  0.0781
   69SLPC   C14 5830   3.546   0.701  11.373 -0.2468 -0.3325 -0.2228
   69SLPC  H14A 5831   3.594   0.783  11.321  1.0854  0.2616  1.8946
   69SLPC  H14B 5832   3.440   0.720  11.371 -0.3530 -0.5897  2.2360
   69SLPC  H14C 5833   3.572   0.712  11.477  0.7771 -1.0631 -0.3961
   69SLPC   C15 5834   3.537   0.465  11.409  0.1429 -0.4998 -0.1180
   69SLPC  H15A 5835   3.541   0.487  11.514 -2.1103 -2.2169  0.3934
   69SLPC  H15B 5836   3.432   0.454  11.385 -0.6506  0.1761  2.9005
   69SLPC  H15C 5837   3.576   0.364  11.404  0.8825 -0.4646  3.8113
   69SLPC   C12 5838   3.555   0.559  11.175  0.0683 -0.5663 -0.2594
   69SLPC  H12A 5839   3.609   0.635  11.121  0.8545 -2.5692 -2.3211
   69SLPC  H12B 5840   3.451   0.588  11.165 -0.4354 -1.7878  1.1324
   69SLPC   C11 5841   3.588   0.437  11.089 -0.1072 -0.0280 -0.3531
   69SLPC  H11A 5842   3.563   0.453  10.982  1.5143 -0.2996 -0.7865
   69SLPC  H11B 5843   3.519   0.356  11.121 -3.0466  1.4157 -2.7704
   69SLPC     P 5844   3.845   0.403  11.010  0.2015  0.3167 -0.4345
   69SLPC   O13 5845   3.906   0.534  11.033 -0.1731  0.1345  0.0137
   69SLPC   O14 5846   3.936   0.293  11.037  0.8239 -0.2552  0.2469
   69SLPC   O12 5847   3.722   0.381  11.108 -0.0877  0.1194 -0.9272
   69SLPC   O11 5848   3.780   0.401  10.871  0.0769 -0.2953  0.0630
   69SLPC    C1 5849   3.727   0.274  10.823 -0.5155  0.0432  0.5465
   69SLPC    HA 5850   3.700   0.207  10.908  0.9604  0.9716  1.7729
   69SLPC    HB 5851   3.633   0.289  10.766  1.0669 -2.4622 -2.8335
   69SLPC    C2 5852   3.828   0.178  10.744 -0.3530 -0.3818  0.3823
   69SLPC    HS 5853   3.924   0.173  10.800  0.6090  1.7775 -1.0104
   69SLPC   O21 5854   3.841   0.235  10.611  0.6137 -0.2101  0.2685
   69SLPC   C21 5855   3.951   0.191  10.553  0.4387  0.1266  0.1545
   69SLPC   O22 5856   4.045   0.146  10.613 -0.2313  0.1552 -0.0399
   69SLPC   C22 5857   3.941   0.208  10.399  0.1909  0.5706 -0.2968
   69SLPC   H2R 5858   4.013   0.288  10.371  1.8387 -1.4808 -2.1152
   69SLPC   H2S 5859   3.992   0.118  10.359  0.5480  1.5004 -2.0019
   69SLPC    C3 5860   3.788   0.033  10.735  0.2760 -0.1440  0.7569
   69SLPC    HX 5861   3.788  -0.005  10.840 -0.1761 -0.7549  0.5370
   69SLPC    HY 5862   3.872  -0.025  10.692  0.6005  0.8686  0.0038
   69SLPC   O31 5863   3.657   0.016  10.680 -0.0261  0.2046  0.6373
   69SLPC   C31 5864   3.648  -0.046  10.563  0.1571  0.1225  0.3766
   69SLPC   O32 5865   3.741  -0.101  10.507  0.1442  0.4687  0.0615
   69SLPC   C32 5866   3.506  -0.045  10.509  0.1753  0.3241  0.4473
   69SLPC   H2X 5867   3.476   0.062  10.510 -0.2478  0.2198 -0.4094
   69SLPC   H2Y 5868   3.439  -0.104  10.574  0.9253  2.2632  3.0783
   69SLPC   C23 5869   3.802   0.247  10.350  0.3379  0.6501  0.5052
   69SLPC   H3R 5870   3.791   0.354  10.378  0.7427  0.3433  1.8287
   69SLPC   H3S 5871   3.717   0.189  10.390 -0.2767  1.7856  0.8695
   69SLPC   C24 5872   3.808   0.225  10.196  0.0517 -0.6814  0.4708
   69SLPC   H4R 5873   3.875   0.139  10.174  1.6311  0.4335  0.8860
   69SLPC   H4S 5874   3.842   0.323  10.157  2.4028 -2.1196 -1.1956
   69SLPC   C25 5875   3.665   0.198  10.144 -0.4704  0.2453 -0.6306
   69SLPC   H5R 5876   3.599   0.249  10.216  0.9808 -0.7234  1.4558
   69SLPC   H5S 5877   3.650   0.088  10.152  0.7512  0.0255 -1.1825
   69SLPC   C26 5878   3.635   0.267  10.007  0.5810  0.1492  0.5609
   69SLPC   H6R 5879   3.693   0.232   9.919 -2.4558 -2.4178 -0.5469
   69SLPC   H6S 5880   3.672   0.371  10.016  0.2130  0.3556 -0.2575
   69SLPC   C27 5881   3.487   0.285   9.975  0.3201 -0.0499  0.2088
   69SLPC   H7R 5882   3.432   0.338  10.056 -0.9973  1.6366 -1.7334
   69SLPC   H7S 5883   3.453   0.180   9.960 -0.6724  0.4221 -0.9634
   69SLPC   C28 5884   3.450   0.369   9.857 -0.2634  0.4961 -0.1285
   69SLPC   H8R 5885   3.527   0.348   9.780 -0.7337  2.6881 -1.2390
   69SLPC   H8S 5886   3.459   0.475   9.890  0.6647  0.4877 -0.3292
   69SLPC   C29 5887   3.317   0.341   9.804 -0.2034 -0.5230 -0.1891
   69SLPC   H9R 5888   3.240   0.332   9.881  0.6487  1.1477  0.9090
   69SLPC  C210 5889   3.276   0.345   9.676  0.3986  0.3263 -0.2392
   69SLPC  H10R 5890   3.171   0.312   9.664 -0.4137  2.6752  0.1881
   69SLPC  C211 5891   3.354   0.360   9.552  0.5711  0.5245  0.2137
   69SLPC  H11R 5892   3.465   0.356   9.562  0.5271  0.2076  0.5745
   69SLPC  H11S 5893   3.334   0.463   9.516 -0.4994 -0.0880 -1.0074
   69SLPC  C212 5894   3.294   0.255   9.459 -0.2173 -0.5603 -0.3963
   69SLPC  H12R 5895   3.335   0.154   9.472 -0.3632 -0.7142 -1.1141
   69SLPC  C213 5896   3.237   0.279   9.343 -0.3302 -0.4678 -0.3725
   69SLPC  H13R 5897   3.215   0.191   9.282  0.4610 -1.1889  0.3816
   69SLPC  C214 5898   3.209   0.412   9.276  0.7727 -0.6338 -0.3719
   69SLPC  H14R 5899   3.238   0.496   9.343 -0.6189  0.2589 -0.8794
   69SLPC  H14S 5900   3.098   0.419   9.279  0.9261  3.9976 -1.4191
   69SLPC  C215 5901   3.262   0.446   9.136 -0.6662  0.3089  0.2040
   69SLPC  H15R 5902   3.373   0.444   9.145 -0.7353  2.2662  2.1443
   69SLPC  H15S 5903   3.238   0.553   9.117 -1.8379  0.4326  2.1649
   69SLPC  C216 5904   3.201   0.365   9.025  0.2173  0.3111 -0.3170
   69SLPC  H16R 5905   3.094   0.390   9.013 -1.0307 -3.8916  1.0757
   69SLPC  H16S 5906   3.216   0.260   9.057  1.4743  0.2123 -1.2200
   69SLPC  C217 5907   3.267   0.380   8.888  0.3474  0.0935 -0.0914
   69SLPC  H17R 5908   3.375   0.402   8.894  0.4190  0.1834 -1.4527
   69SLPC  H17S 5909   3.231   0.466   8.827 -0.3052 -0.1664 -0.0775
   69SLPC  C218 5910   3.267   0.247   8.813  0.4619 -0.3952  0.5868
   69SLPC  H18R 5911   3.165   0.225   8.774  0.8505 -0.4719 -0.4092
   69SLPC  H18S 5912   3.298   0.162   8.877 -1.1098 -1.5002 -0.0915
   69SLPC  H18T 5913   3.340   0.246   8.729  1.6725  0.5543  1.5989
   69SLPC   C33 5914   3.498  -0.097  10.358  0.4495 -0.0089 -0.1625
   69SLPC   H3X 5915   3.475  -0.206  10.363 -0.6186  0.2076 -0.3194
   69SLPC   H3Y 5916   3.591  -0.069  10.302  0.3845 -0.4466 -0.4961
   69SLPC   C34 5917   3.384  -0.020  10.289 -0.5565 -0.1873  0.4261
   69SLPC   H4X 5918   3.423   0.084  10.284 -0.5128 -0.1720  1.1167
   69SLPC   H4Y 5919   3.301  -0.018  10.363 -1.3069  2.2316 -0.4083
   69SLPC   C35 5920   3.348  -0.055  10.147 -0.3796 -0.1395  0.4897
   69SLPC   H5X 5921   3.317  -0.162  10.151 -2.1692  0.4185  1.9626
   69SLPC   H5Y 5922   3.432  -0.060  10.074  1.0267 -3.0694  2.1955
   69SLPC   C36 5923   3.238   0.030  10.090  0.0089  0.1165 -0.6262
   69SLPC   H6X 5924   3.269   0.135  10.072 -0.7540  0.5267  0.4406
   69SLPC   H6Y 5925   3.149   0.032  10.156 -1.0149 -1.3176 -1.9234
   69SLPC   C37 5926   3.174  -0.023   9.958 -0.3072 -0.1405 -0.0758
   69SLPC   H7X 5927   3.094   0.050   9.935  1.5447  2.1998  0.7275
   69SLPC   H7Y 5928   3.118  -0.115   9.983 -3.4857  1.5757 -0.6108
   69SLPC   C38 5929   3.264  -0.042   9.829 -0.1820 -0.4773  0.7736
   69SLPC   H8X 5930   3.349  -0.112   9.844  0.0208 -0.2574  0.6566
   69SLPC   H8Y 5931   3.323   0.050   9.807  0.1746 -0.7830  0.4367
   69SLPC   C39 5932   3.166  -0.075   9.713 -0.5813 -0.0932  0.4322
   69SLPC   H9X 5933   3.105   0.016   9.690  0.9070  1.1279  1.2256
   69SLPC   H9Y 5934   3.105  -0.164   9.740  0.6472 -1.5246 -1.3870
   69SLPC  C310 5935   3.258  -0.112   9.594  0.0463 -0.4267 -0.5002
   69SLPC  H10X 5936   3.329  -0.191   9.626  0.2087  0.8947  2.5444
   69SLPC  H10Y 5937   3.315  -0.029   9.548 -2.5501  1.0434 -1.1439
   69SLPC  C311 5938   3.171  -0.170   9.481  0.3679 -0.6439 -1.2538
   69SLPC  H11X 5939   3.120  -0.084   9.430 -0.7924 -0.8988 -0.5280
   69SLPC  H11Y 5940   3.083  -0.228   9.516  1.7812 -1.7961  0.4276
   69SLPC  C312 5941   3.250  -0.233   9.352  0.2020  0.7901 -0.7260
   69SLPC  H12X 5942   3.181  -0.261   9.270  0.7500 -1.7046 -0.3701
   69SLPC  H12Y 5943   3.296  -0.323   9.397 -0.3330  1.2569  0.7910
   69SLPC  C313 5944   3.358  -0.137   9.290 -0.7192  0.3469 -0.1816
   69SLPC  H13X 5945   3.418  -0.083   9.366 -0.5561 -0.7268  0.4643
   69SLPC  H13Y 5946   3.291  -0.069   9.233  0.7349  0.9764 -1.1594
   69SLPC  C314 5947   3.452  -0.221   9.207 -0.1131 -0.1089  0.4802
   69SLPC  H14X 5948   3.386  -0.289   9.150  1.1100 -0.6360 -0.3291
   69SLPC  H14Y 5949   3.523  -0.270   9.278  0.3498 -0.5072 -0.2564
   69SLPC  C315 5950   3.524  -0.127   9.105  0.4248  0.5476  0.4354
   69SLPC  H15X 5951   3.544  -0.026   9.146  1.2837  0.8290 -0.6373
   69SLPC  H15Y 5952   3.454  -0.105   9.022  1.1617 -2.1999 -0.9745
   69SLPC  C316 5953   3.652  -0.186   9.044 -0.0645  0.2854  0.5080
   69SLPC  H16X 5954   3.744  -0.168   9.103 -0.5313 -1.3998  1.7988
   69SLPC  H16Y 5955   3.655  -0.140   8.943 -1.0268 -0.2342  0.2231
   69SLPC  C317 5956   3.637  -0.340   9.022  0.1387 -0.2264 -0.1189
   69SLPC  H17X 5957   3.543  -0.352   8.964  0.3805  0.8679 -0.7484
   69SLPC  H17Y 5958   3.629  -0.391   9.120  1.6588  2.5079  1.4958
   69SLPC  C318 5959   3.741  -0.397   8.932 -0.8727  0.4365 -0.1207
   69SLPC  H18X 5960   3.760  -0.332   8.844  3.4110  0.1792  0.4855
   69SLPC  H18Y 5961   3.711  -0.502   8.911  0.8324 -0.8990  3.6884
   69SLPC  H18Z 5962   3.836  -0.384   8.989  0.1607  1.1265 -1.9498
   70SLPC     N 5963   4.817   4.977  10.969 -0.0009  0.0945  0.3555
   70SLPC   C13 5964   4.716   5.060  11.038 -0.2042 -0.6919 -1.0589
   70SLPC  H13A 5965   4.699   5.156  10.991  0.5250  0.5491  1.1448
   70SLPC  H13B 5966   4.620   5.012  11.054  1.2059 -2.6981  1.8017
   70SLPC  H13C 5967   4.755   5.088  11.135  2.0174 -1.5402 -1.6922
   70SLPC   C14 5968   4.817   4.839  11.025 -0.0417 -0.8747  0.2717
   70SLPC  H14A 5969   4.849   4.847  11.127 -0.4525 -0.0499  0.3465
   70SLPC  H14B 5970   4.716   4.800  11.028  0.0504 -0.9903  2.1846
   70SLPC  H14C 5971   4.886   4.776  10.970  2.1891  1.3075  0.4901
   70SLPC   C15 5972   4.954   5.036  10.975 -0.6504  0.2691 -0.1747
   70SLPC  H15A 5973   4.942   5.136  10.936 -0.0603  0.4130  0.0125
   70SLPC  H15B 5974   4.977   5.052  11.080 -0.4537  1.5468 -0.4072
   70SLPC  H15C 5975   5.025   4.985  10.912 -1.0069 -1.4484  0.7941
   70SLPC   C12 5976   4.793   4.961  10.814  0.4678 -0.1135 -0.6505
   70SLPC  H12A 5977   4.863   4.883  10.788  0.8554  0.0310 -0.0387
   70SLPC  H12B 5978   4.819   5.045  10.752  1.0547 -2.6068 -3.9357
   70SLPC   C11 5979   4.651   4.921  10.767  0.3337 -0.1918  0.7814
   70SLPC  H11A 5980   4.653   4.921  10.656 -0.6551 -0.4711  0.7546
   70SLPC  H11B 5981   4.582   5.002  10.800 -0.6787 -0.9179  0.4744
   70SLPC     P 5982   4.630   4.663  10.743 -0.2348  0.2778  0.2966
   70SLPC   O13 5983   4.774   4.631  10.759  0.1029 -0.2643  0.5047
   70SLPC   O14 5984   4.531   4.567  10.805  0.3622  0.6653  0.2070
   70SLPC   O12 5985   4.603   4.804  10.819 -0.5224  0.5050  0.3157
   70SLPC   O11 5986   4.604   4.692  10.594 -0.5266 -0.5447 -0.6827
   70SLPC    C1 5987   4.482   4.731  10.539  0.3935 -0.6387 -0.5453
   70SLPC    HA 5988   4.403   4.742  10.617  0.8883  0.5403 -0.2125
   70SLPC    HB 5989   4.494   4.826  10.483 -3.5042  0.5826  0.4997
   70SLPC    C2 5990   4.437   4.627  10.434 -0.3288 -0.1559 -0.2326
   70SLPC    HS 5991   4.418   4.535  10.494 -0.6445 -0.0728 -0.2034
   70SLPC   O21 5992   4.537   4.622  10.339 -0.1931 -0.3796 -0.6599
   70SLPC   C21 5993   4.597   4.504  10.328  0.7149 -0.2326 -0.5332
   70SLPC   O22 5994   4.582   4.405  10.403  0.1983 -0.5380 -0.0820
   70SLPC   C22 5995   4.694   4.517  10.209  1.1039  0.5544  0.5406
   70SLPC   H2R 5996   4.779   4.575  10.251  2.9239 -1.4001 -0.3073
   70SLPC   H2S 5997   4.737   4.416  10.188 -0.6307  0.1484 -1.1591
   70SLPC    C3 5998   4.300   4.658  10.360  0.6289  0.4068  0.4665
   70SLPC    HX 5999   4.314   4.765  10.332 -1.6432  1.0239  1.5450
   70SLPC    HY 6000   4.217   4.646  10.432  1.0731  1.5230  1.1783
   70SLPC   O31 6001   4.277   4.577  10.238  0.2317 -0.1927  0.3126
   70SLPC   C31 6002   4.184   4.623  10.165 -0.1359 -0.2917  0.7985
   70SLPC   O32 6003   4.102   4.710  10.194 -0.1230 -0.3883  0.4444
   70SLPC   C32 6004   4.194   4.555  10.029  0.2637  0.4128  0.6866
   70SLPC   H2X 6005   4.148   4.454  10.029  0.0559  0.5062  0.4092
   70SLPC   H2Y 6006   4.302   4.534  10.011  0.0869 -1.2147  1.5047
   70SLPC   C23 6007   4.636   4.590  10.091  0.1410  0.2632 -0.5346
   70SLPC   H3R 6008   4.641   4.699  10.113 -3.7909  0.8626 -2.1747
   70SLPC   H3S 6009   4.529   4.561  10.077  0.0927 -0.7639  1.6575
   70SLPC   C24 6010   4.695   4.557   9.947  0.5203  0.6560 -0.5868
   70SLPC   H4R 6011   4.687   4.447   9.937  1.8470  0.4964 -0.0109
   70SLPC   H4S 6012   4.799   4.596   9.940  0.5452  0.6131 -0.4630
   70SLPC   C25 6013   4.620   4.630   9.842  0.3922 -0.4112 -0.1112
   70SLPC   H5R 6014   4.658   4.734   9.835 -2.1682  0.6721  1.5935
   70SLPC   H5S 6015   4.510   4.630   9.859  0.4330  1.9597  0.2937
   70SLPC   C26 6016   4.632   4.551   9.711  0.3514  0.0540 -0.3779
   70SLPC   H6R 6017   4.610   4.447   9.743  2.1857 -0.3874 -0.4769
   70SLPC   H6S 6018   4.742   4.553   9.695  0.2181  0.5982 -1.2676
   70SLPC   C27 6019   4.565   4.612   9.594  0.2092 -0.1628 -0.0196
   70SLPC   H7R 6020   4.626   4.697   9.559 -0.3294  0.3970  0.3850
   70SLPC   H7S 6021   4.461   4.647   9.614 -0.1128 -0.0271 -1.8834
   70SLPC   C28 6022   4.543   4.499   9.483 -0.7872  0.1444  0.4922
   70SLPC   H8R 6023   4.466   4.429   9.521  0.4671 -1.6032 -0.1238
   70SLPC   H8S 6024   4.641   4.449   9.466 -0.6102  1.1543 -1.6740
   70SLPC   C29 6025   4.487   4.553   9.351  0.8679  0.4337 -0.7758
   70SLPC   H9R 6026   4.415   4.630   9.383  0.9779 -0.8979  2.8888
   70SLPC  C210 6027   4.515   4.513   9.228 -0.2789 -0.0511 -0.3810
   70SLPC  H10R 6028   4.451   4.548   9.146 -0.2456  2.5064  0.6611
   70SLPC  C211 6029   4.605   4.402   9.180  0.4317  0.5425  0.2723
   70SLPC  H11R 6030   4.551   4.308   9.200 -1.7513  1.9922  1.4258
   70SLPC  H11S 6031   4.696   4.403   9.245  3.8340  0.6366 -4.2375
   70SLPC  C212 6032   4.667   4.416   9.047  0.0039  0.4186 -0.2440
   70SLPC  H12R 6033   4.653   4.511   8.993 -0.2418 -0.0781 -1.0691
   70SLPC  C213 6034   4.729   4.309   8.988 -0.5733 -0.2326  0.0778
   70SLPC  H13R 6035   4.775   4.325   8.890  0.3278 -3.1083 -0.0108
   70SLPC  C214 6036   4.749   4.174   9.038  0.1400  0.5716 -0.3795
   70SLPC  H14R 6037   4.736   4.171   9.148  1.7891  1.7588 -0.1299
   70SLPC  H14S 6038   4.856   4.149   9.022 -0.1863  0.6498 -2.9046
   70SLPC  C215 6039   4.671   4.063   8.960 -0.5105  0.2747 -0.2128
   70SLPC  H15R 6040   4.562   4.086   8.962 -0.6587 -0.4071  5.1440
   70SLPC  H15S 6041   4.686   3.960   9.000  0.1752  0.3454 -0.2822
   70SLPC  C216 6042   4.724   4.042   8.814  0.1379  0.0294  0.1172
   70SLPC  H16R 6043   4.803   3.965   8.827  0.3476  0.4466  1.2982
   70SLPC  H16S 6044   4.774   4.133   8.775 -1.7723  0.7080 -0.8308
   70SLPC  C217 6045   4.612   4.019   8.709 -0.2697 -0.1690  0.4761
   70SLPC  H17R 6046   4.533   3.955   8.755 -0.8540  0.2987  0.1337
   70SLPC  H17S 6047   4.654   3.964   8.622 -0.1578  0.6029  0.0392
   70SLPC  C218 6048   4.551   4.152   8.655  0.4542  1.0297 -0.2635
   70SLPC  H18R 6049   4.518   4.212   8.742 -0.8694 -1.2850  0.8886
   70SLPC  H18S 6050   4.462   4.135   8.592 -0.0504 -0.5899  0.8435
   70SLPC  H18T 6051   4.634   4.209   8.608 -0.5535  2.4711 -0.2907
   70SLPC   C33 6052   4.150   4.639   9.910 -0.5058  0.0099  0.8609
   70SLPC   H3X 6053   4.224   4.723   9.907 -1.1025  0.5073 -2.4583
   70SLPC   H3Y 6054   4.053   4.688   9.931  0.2864  2.8106 -1.5820
   70SLPC   C34 6055   4.144   4.554   9.783  0.4762 -0.2736 -0.1718
   70SLPC   H4X 6056   4.058   4.488   9.810 -0.0914 -0.1410 -1.6310
   70SLPC   H4Y 6057   4.239   4.499   9.773  1.3437  1.1367  0.1783
   70SLPC   C35 6058   4.118   4.637   9.653 -0.0897  0.4015  0.0720
   70SLPC   H5X 6059   4.207   4.702   9.648 -0.9226  1.5819  0.4791
   70SLPC   H5Y 6060   4.032   4.703   9.678 -0.5187 -0.6622  1.4695
   70SLPC   C36 6061   4.107   4.561   9.517  0.5475 -0.3851  0.5488
   70SLPC   H6X 6062   4.015   4.500   9.528 -0.5957  1.2392  0.2600
   70SLPC   H6Y 6063   4.200   4.500   9.519  0.5476 -0.3698  1.7674
   70SLPC   C37 6064   4.087   4.645   9.396  0.0352 -0.0470 -0.7149
   70SLPC   H7X 6065   4.182   4.699   9.376  0.5691 -0.7591 -0.1578
   70SLPC   H7Y 6066   4.018   4.731   9.391  0.0343 -0.0707 -1.2123
   70SLPC   C38 6067   4.047   4.550   9.282 -0.4699  0.8013 -0.4248
   70SLPC   H8X 6068   3.936   4.541   9.288 -0.6315  1.6572 -2.0138
   70SLPC   H8Y 6069   4.107   4.458   9.299 -0.9424  0.6805  0.6877
   70SLPC   C39 6070   4.078   4.597   9.138  0.7378  0.1526 -0.7118
   70SLPC   H9X 6071   4.175   4.560   9.100  1.5843  1.2757  0.3242
   70SLPC   H9Y 6072   4.095   4.707   9.134  0.7126  0.1328 -1.4258
   70SLPC  C310 6073   3.981   4.556   9.023 -1.2134 -0.0237  0.0985
   70SLPC  H10X 6074   3.872   4.570   9.044 -1.0347  1.6362 -0.0603
   70SLPC  H10Y 6075   3.995   4.450   8.993  1.3277  0.2868  0.0761
   70SLPC  C311 6076   3.995   4.634   8.892 -0.3894  0.8274  0.8418
   70SLPC  H11X 6077   4.095   4.624   8.844 -1.4501 -0.0107 -1.2831
   70SLPC  H11Y 6078   3.993   4.743   8.912  0.0304  0.7479  1.3383
   70SLPC  C312 6079   3.891   4.617   8.782  0.1585 -0.6459  0.3845
   70SLPC  H12X 6080   3.904   4.675   8.688  0.5443  0.0416  0.8590
   70SLPC  H12Y 6081   3.795   4.651   8.825  1.4705  0.6405  2.3990
   70SLPC  C313 6082   3.868   4.464   8.743 -0.5846  0.0455  0.7649
   70SLPC  H13X 6083   3.789   4.460   8.664 -0.6867 -0.8685  0.9045
   70SLPC  H13Y 6084   3.831   4.407   8.831  0.6893 -0.5129  0.9492
   70SLPC  C314 6085   3.992   4.388   8.686 -0.0688  0.0513 -0.0332
   70SLPC  H14X 6086   4.053   4.346   8.769  0.7532  0.8382 -0.2274
   70SLPC  H14Y 6087   4.054   4.451   8.618 -1.1020  0.7618 -0.3263
   70SLPC  C315 6088   3.929   4.273   8.597 -0.3832 -0.2465 -0.4034
   70SLPC  H15X 6089   3.875   4.322   8.513  0.0699  2.8741  1.0576
   70SLPC  H15Y 6090   3.864   4.211   8.662 -0.3083  0.1098  0.0222
   70SLPC  C316 6091   4.036   4.186   8.532  0.3931  0.3039 -0.5954
   70SLPC  H16X 6092   4.091   4.117   8.598  1.0281  1.3899  0.0290
   70SLPC  H16Y 6093   4.113   4.256   8.492 -1.6322  1.7002 -2.2510
   70SLPC  C317 6094   3.988   4.101   8.417 -0.2182 -0.0991  0.5174
   70SLPC  H17X 6095   3.921   4.156   8.348  0.9435  0.8349  0.1234
   70SLPC  H17Y 6096   3.930   4.015   8.457 -1.5249 -0.3412 -1.7824
   70SLPC  C318 6097   4.104   4.040   8.342 -0.5549 -0.9958 -0.0273
   70SLPC  H18X 6098   4.151   4.118   8.277 -0.8414  1.1050  2.2027
   70SLPC  H18Y 6099   4.066   3.957   8.279 -0.9339  1.1760 -2.7800
   70SLPC  H18Z 6100   4.180   3.986   8.402 -0.8328 -1.8082 -0.3991
   71SLPC     N 6101   4.341   3.064  10.859  0.1568  0.2958 -0.2579
   71SLPC   C13 6102   4.208   3.102  10.932  0.0756 -0.0720  0.8192
   71SLPC  H13A 6103   4.130   3.032  10.906  0.7395 -1.0434  1.4234
   71SLPC  H13B 6104   4.229   3.103  11.038  0.1309 -1.0469  0.8222
   71SLPC  H13C 6105   4.178   3.200  10.896  3.3080 -0.0790 -2.1226
   71SLPC   C14 6106   4.360   2.920  10.886 -0.3713  0.5883  0.2820
   71SLPC  H14A 6107   4.454   2.890  10.844  0.9255  3.1986  1.2191
   71SLPC  H14B 6108   4.362   2.904  10.993  0.7964  2.4021  0.5366
   71SLPC  H14C 6109   4.281   2.861  10.841 -0.2973  0.8419 -0.1823
   71SLPC   C15 6110   4.449   3.156  10.913  0.0131  0.6581  0.1574
   71SLPC  H15A 6111   4.441   3.256  10.871  0.3400  0.6298  0.0276
   71SLPC  H15B 6112   4.452   3.147  11.021  1.1620  1.0255  0.1657
   71SLPC  H15C 6113   4.542   3.120  10.872  0.1179  0.0019  0.9601
   71SLPC   C12 6114   4.335   3.072  10.706 -0.3684 -0.3572  0.3287
   71SLPC  H12A 6115   4.430   3.045  10.662  0.1856 -2.4989  2.7060
   71SLPC  H12B 6116   4.314   3.172  10.673  0.6937 -0.4798 -0.7547
   71SLPC   C11 6117   4.223   2.989  10.628  0.2372  0.5763  1.0167
   71SLPC  H11A 6118   4.224   2.881  10.652 -0.4111  0.3383  0.0141
   71SLPC  H11B 6119   4.242   3.020  10.523  1.8278  0.5884  1.2959
   71SLPC     P 6120   3.963   2.969  10.685  0.0882 -0.0151 -0.6973
   71SLPC   O13 6121   3.972   2.852  10.596 -0.1953 -0.5101  1.0789
   71SLPC   O14 6122   3.944   2.941  10.834  0.0867 -0.6833  0.1627
   71SLPC   O12 6123   4.098   3.046  10.670 -0.6145 -0.4294  0.8819
   71SLPC   O11 6124   3.849   3.079  10.652  0.1185  0.4753  0.0399
   71SLPC    C1 6125   3.898   3.200  10.592 -0.3812  0.3273 -0.1112
   71SLPC    HA 6126   3.850   3.292  10.632  1.3414  1.5415 -0.7603
   71SLPC    HB 6127   4.008   3.220  10.599 -0.3632  0.7818 -1.6552
   71SLPC    C2 6128   3.861   3.205  10.439  0.0705  0.1515  0.8694
   71SLPC    HS 6129   3.754   3.177  10.434  0.3078 -0.6445  0.1493
   71SLPC   O21 6130   3.945   3.111  10.364  0.1603 -0.5482  0.4290
   71SLPC   C21 6131   3.880   3.002  10.308  0.0210 -0.2634 -0.1869
   71SLPC   O22 6132   3.761   2.995  10.296 -0.8690  0.0697  0.0872
   71SLPC   C22 6133   3.978   2.894  10.271 -0.4813  0.4474 -0.2289
   71SLPC   H2R 6134   4.084   2.926  10.265 -0.6283  0.6514 -2.5712
   71SLPC   H2S 6135   3.975   2.819  10.352 -0.2299  1.4888  0.7451
   71SLPC    C3 6136   3.880   3.343  10.369 -0.4321 -0.9642  1.0069
   71SLPC    HX 6137   3.990   3.358  10.357 -0.8733 -0.1673 -2.5420
   71SLPC    HY 6138   3.843   3.419  10.440  1.6653 -0.1343  1.2685
   71SLPC   O31 6139   3.802   3.342  10.243  0.0485  0.2015 -0.6003
   71SLPC   C31 6140   3.828   3.447  10.167  0.6164  0.7631 -0.1559
   71SLPC   O32 6141   3.912   3.532  10.183  0.0048  0.2730  0.4960
   71SLPC   C32 6142   3.733   3.438  10.046  0.5112 -0.9881  0.4672
   71SLPC   H2X 6143   3.632   3.455  10.090  0.2371 -0.7858 -0.2266
   71SLPC   H2Y 6144   3.732   3.336  10.001  0.1231  0.3627 -2.7086
   71SLPC   C23 6145   3.920   2.824  10.152 -0.4156  0.4953 -0.2661
   71SLPC   H3R 6146   3.824   2.779  10.184 -0.7788  2.0827  0.9423
   71SLPC   H3S 6147   3.986   2.741  10.118 -0.7899  0.3327 -0.6037
   71SLPC   C24 6148   3.897   2.902  10.024 -0.2168 -0.3509  0.1715
   71SLPC   H4R 6149   3.993   2.924   9.972 -0.0369 -2.0419 -0.2297
   71SLPC   H4S 6150   3.853   2.998  10.058 -1.0546 -0.3556 -0.8746
   71SLPC   C25 6151   3.807   2.818   9.928 -0.2981 -0.0033 -0.0753
   71SLPC   H5R 6152   3.725   2.786   9.995  0.7611 -0.6901  0.9038
   71SLPC   H5S 6153   3.850   2.721   9.895  0.9387  0.7105 -0.6009
   71SLPC   C26 6154   3.747   2.892   9.813 -0.1004 -0.8334 -0.4170
   71SLPC   H6R 6155   3.743   2.995   9.853 -3.5567  0.0576 -2.8941
   71SLPC   H6S 6156   3.647   2.843   9.806  0.3943 -2.0456  0.6780
   71SLPC   C27 6157   3.840   2.886   9.698 -0.0054  0.5445 -0.7196
   71SLPC   H7R 6158   3.852   2.788   9.647  0.2221  1.5616 -2.6740
   71SLPC   H7S 6159   3.938   2.922   9.735  0.0068 -2.1881  2.1295
   71SLPC   C28 6160   3.790   2.988   9.587  0.4994  0.3284  0.4112
   71SLPC   H8R 6161   3.871   3.028   9.522  1.9971 -1.9901  0.7914
   71SLPC   H8S 6162   3.761   3.079   9.645  1.2460  0.5313  0.4718
   71SLPC   C29 6163   3.671   2.942   9.507 -0.3958  0.7144 -0.2493
   71SLPC   H9R 6164   3.570   2.968   9.542 -0.4558 -0.3686  0.4086
   71SLPC  C210 6165   3.684   2.853   9.410 -0.2535 -0.2358 -0.3759
   71SLPC  H10R 6166   3.593   2.815   9.362 -0.1065 -0.5716 -0.3934
   71SLPC  C211 6167   3.816   2.793   9.359  0.2412  0.7552  0.1933
   71SLPC  H11R 6168   3.787   2.689   9.335  0.6937  0.7640 -0.4033
   71SLPC  H11S 6169   3.894   2.786   9.438  1.9510  2.0029 -1.3213
   71SLPC  C212 6170   3.866   2.883   9.243  0.3782 -0.5629 -0.0685
   71SLPC  H12R 6171   3.879   2.989   9.269  2.1174 -0.1793 -2.3456
   71SLPC  C213 6172   3.887   2.841   9.118 -0.5553 -0.2723  0.8443
   71SLPC  H13R 6173   3.927   2.919   9.051 -0.4265 -0.4069  0.7649
   71SLPC  C214 6174   3.880   2.692   9.068 -0.2732  0.3344  0.8176
   71SLPC  H14R 6175   3.801   2.641   9.127 -2.2194  3.7471  1.2497
   71SLPC  H14S 6176   3.966   2.625   9.092 -1.0636 -1.5043 -1.3564
   71SLPC  C215 6177   3.860   2.673   8.920  0.6085  0.3086  0.1546
   71SLPC  H15R 6178   3.964   2.681   8.881  0.3524 -0.1086 -0.6099
   71SLPC  H15S 6179   3.801   2.758   8.879  0.0464 -0.8077 -1.3971
   71SLPC  C216 6180   3.789   2.546   8.869 -0.0700  0.3244 -0.2703
   71SLPC  H16R 6181   3.801   2.530   8.759 -1.7018 -2.2198 -0.1311
   71SLPC  H16S 6182   3.682   2.557   8.894  0.1666 -1.1792  1.5174
   71SLPC  C217 6183   3.850   2.430   8.944  0.2114  0.8083 -0.8116
   71SLPC  H17R 6184   3.830   2.440   9.053 -1.0339 -1.1228 -0.8238
   71SLPC  H17S 6185   3.961   2.423   8.945  0.1531 -0.2159  0.2406
   71SLPC  C218 6186   3.787   2.296   8.899  0.1404 -0.4308  0.9084
   71SLPC  H18R 6187   3.806   2.281   8.790 -0.9998  1.1099  0.4850
   71SLPC  H18S 6188   3.676   2.289   8.910 -0.3034  0.3497 -2.4707
   71SLPC  H18T 6189   3.832   2.210   8.953 -0.7708 -0.7377  1.1894
   71SLPC   C33 6190   3.774   3.533   9.936  0.1093  0.3319 -0.0866
   71SLPC   H3X 6191   3.877   3.513   9.900 -0.7100 -1.1066 -1.7446
   71SLPC   H3Y 6192   3.782   3.636   9.977  1.4080 -0.2120  1.0716
   71SLPC   C34 6193   3.679   3.549   9.811  0.1808  0.4212  0.1466
   71SLPC   H4X 6194   3.683   3.652   9.768  2.4332  0.4774  0.4170
   71SLPC   H4Y 6195   3.570   3.542   9.834  0.3298 -0.0574  0.7179
   71SLPC   C35 6196   3.712   3.443   9.702  0.4635 -0.0345 -0.4632
   71SLPC   H5X 6197   3.722   3.344   9.752  2.8806  1.2847  1.8176
   71SLPC   H5Y 6198   3.813   3.466   9.662 -0.3415 -0.3812 -2.7480
   71SLPC   C36 6199   3.623   3.423   9.582 -0.3594 -0.3889 -0.2427
   71SLPC   H6X 6200   3.520   3.407   9.620  0.2815  0.2416  1.8139
   71SLPC   H6Y 6201   3.654   3.334   9.523  1.8089  0.8336 -0.9885
   71SLPC   C37 6202   3.633   3.540   9.481 -0.1755  0.8699 -0.4024
   71SLPC   H7X 6203   3.741   3.561   9.465  0.3146 -1.2032  0.0577
   71SLPC   H7Y 6204   3.583   3.634   9.514  2.2021  1.8493  0.4988
   71SLPC   C38 6205   3.581   3.498   9.337  0.3021 -0.3466 -0.2937
   71SLPC   H8X 6206   3.546   3.586   9.280  0.1405  1.6134  2.7302
   71SLPC   H8Y 6207   3.490   3.438   9.359 -0.2380  0.3361 -0.6581
   71SLPC   C39 6208   3.686   3.432   9.248 -0.0464  0.0825  0.4766
   71SLPC   H9X 6209   3.730   3.339   9.290  0.8972 -1.2027 -3.1089
   71SLPC   H9Y 6210   3.769   3.505   9.238 -1.4072  1.5182 -0.5314
   71SLPC  C310 6211   3.634   3.383   9.108 -0.5523  0.1525  0.1613
   71SLPC  H10X 6212   3.724   3.349   9.053 -1.2154 -1.6515  0.1539
   71SLPC  H10Y 6213   3.590   3.472   9.057 -1.6428 -0.3334  0.2431
   71SLPC  C311 6214   3.533   3.271   9.120 -0.2047 -0.3916  0.1796
   71SLPC  H11X 6215   3.460   3.302   9.197  0.5908 -1.1616  1.2729
   71SLPC  H11Y 6216   3.594   3.187   9.161  0.7320 -0.5726 -1.5176
   71SLPC  C312 6217   3.476   3.212   8.987  0.5744 -0.0851 -0.5816
   71SLPC  H12X 6218   3.406   3.287   8.944  0.3597  0.1088  0.0845
   71SLPC  H12Y 6219   3.414   3.124   9.012 -0.6117  1.0063  0.3519
   71SLPC  C313 6220   3.571   3.182   8.880 -0.6021 -0.6549  0.0426
   71SLPC  H13X 6221   3.652   3.116   8.918  1.7364  1.0543 -1.7981
   71SLPC  H13Y 6222   3.637   3.265   8.847  1.9411 -2.1239  1.2725
   71SLPC  C314 6223   3.510   3.137   8.747 -0.7493  0.5439  0.4364
   71SLPC  H14X 6224   3.590   3.106   8.676 -0.9744 -0.4380  0.6058
   71SLPC  H14Y 6225   3.459   3.226   8.705 -1.8912 -0.9177 -1.2924
   71SLPC  C315 6226   3.408   3.023   8.764 -0.0309  0.2191  0.1623
   71SLPC  H15X 6227   3.332   3.045   8.841  0.4544 -0.5249  0.8644
   71SLPC  H15Y 6228   3.446   2.926   8.804 -2.1374 -0.9523 -0.5941
   71SLPC  C316 6229   3.343   2.980   8.626 -0.1261 -0.4264 -0.5715
   71SLPC  H16X 6230   3.294   2.881   8.629 -3.3541  1.1271  0.5143
   71SLPC  H16Y 6231   3.422   2.974   8.549  0.8439 -2.7504  0.5791
   71SLPC  C317 6232   3.237   3.072   8.580 -0.5797  0.4745 -0.1936
   71SLPC  H17X 6233   3.253   3.177   8.612  0.0379  0.5139 -0.6254
   71SLPC  H17Y 6234   3.144   3.055   8.639 -2.2962  2.4939 -2.2049
   71SLPC  C318 6235   3.189   3.070   8.428 -0.7105 -0.8102 -0.1001
   71SLPC  H18X 6236   3.100   3.137   8.425  1.1655  1.7338 -2.0185
   71SLPC  H18Y 6237   3.150   2.967   8.416  1.4236 -1.4159 -2.3276
   71SLPC  H18Z 6238   3.276   3.094   8.362 -0.6298 -3.1721 -0.8840
   72SLPC     N 6239   5.105   0.847  11.107  0.7195  0.5770 -0.4077
   72SLPC   C13 6240   5.078   0.701  11.104 -0.1151  0.3066  0.1366
   72SLPC  H13A 6241   5.167   0.648  11.073  0.0485  1.1975 -0.9568
   72SLPC  H13B 6242   5.063   0.658  11.202  0.8014  1.2918  0.7295
   72SLPC  H13C 6243   4.992   0.671  11.046  2.6810 -3.2645 -2.4004
   72SLPC   C14 6244   5.248   0.869  11.156 -0.2530  0.1719  0.3723
   72SLPC  H14A 6245   5.326   0.820  11.099 -0.1673 -0.5607  1.1031
   72SLPC  H14B 6246   5.264   0.973  11.178 -1.6673  1.1178 -2.8405
   72SLPC  H14C 6247   5.252   0.815  11.250  0.0013 -1.5510 -0.6026
   72SLPC   C15 6248   5.005   0.915  11.197  0.0484  0.2012 -0.5171
   72SLPC  H15A 6249   4.915   0.897  11.140 -1.2830  1.8879  1.0086
   72SLPC  H15B 6250   4.997   0.867  11.293 -1.4418  1.2360 -0.1103
   72SLPC  H15C 6251   5.025   1.021  11.207 -0.8020  0.3321 -0.2370
   72SLPC   C12 6252   5.099   0.901  10.968  0.5168  0.1658  0.5399
   72SLPC  H12A 6253   5.174   0.850  10.910 -0.6340 -3.0456  1.7888
   72SLPC  H12B 6254   5.131   1.004  10.969  0.0707  0.3099  1.6702
   72SLPC   C11 6255   4.970   0.899  10.884 -0.0011 -0.1133  0.2984
   72SLPC  H11A 6256   4.928   0.797  10.896  0.8497 -0.5011 -0.0041
   72SLPC  H11B 6257   4.995   0.897  10.776  0.8027  0.3034  0.4741
   72SLPC     P 6258   4.883   1.141  10.845  0.3280  0.3368 -0.0188
   72SLPC   O13 6259   4.780   1.233  10.896  0.0250 -0.4033 -0.1551
   72SLPC   O14 6260   5.021   1.198  10.858 -0.2240 -0.1316  0.4726
   72SLPC   O12 6261   4.883   1.007  10.916  0.3829 -0.1308 -0.6641
   72SLPC   O11 6262   4.853   1.104  10.693 -0.1624 -0.2099 -0.3463
   72SLPC    C1 6263   4.730   1.051  10.659 -0.1318  0.1915  1.0361
   72SLPC    HA 6264   4.726   0.945  10.693 -0.5614  0.0614  0.5780
   72SLPC    HB 6265   4.650   1.113  10.703 -0.1711  0.4197  0.6425
   72SLPC    C2 6266   4.721   1.061  10.507 -0.1566  0.8168  0.4364
   72SLPC    HS 6267   4.615   1.048  10.476  0.6258 -0.6348 -1.7287
   72SLPC   O21 6268   4.805   0.967  10.440  0.3174 -0.2859 -0.1042
   72SLPC   C21 6269   4.768   0.842  10.443 -0.3514 -0.6674 -0.0971
   72SLPC   O22 6270   4.670   0.794  10.499  0.6404 -0.3399  0.5303
   72SLPC   C22 6271   4.859   0.763  10.354 -1.0498  0.0190  0.3648
   72SLPC   H2R 6272   4.936   0.833  10.315 -0.1519 -0.9817  0.3260
   72SLPC   H2S 6273   4.919   0.691  10.414  0.7069  1.5222  0.4655
   72SLPC    C3 6274   4.759   1.212  10.451  0.4039 -0.9902  0.3311
   72SLPC    HX 6275   4.864   1.239  10.476  0.6866 -1.0517 -0.7605
   72SLPC    HY 6276   4.686   1.272  10.508 -0.7644  0.6199 -2.7622
   72SLPC   O31 6277   4.736   1.215  10.309 -0.5355 -0.5835 -0.1001
   72SLPC   C31 6278   4.720   1.327  10.259  0.3169  0.2383  0.0751
   72SLPC   O32 6279   4.718   1.436  10.313  0.1028  0.2550 -0.5434
   72SLPC   C32 6280   4.705   1.312  10.106  0.3230  0.0344  0.0530
   72SLPC   H2X 6281   4.682   1.206  10.082 -0.6010  0.3199 -0.3331
   72SLPC   H2Y 6282   4.799   1.353  10.062  0.8810 -0.2221  0.9976
   72SLPC   C23 6283   4.783   0.698  10.233 -0.6442 -0.2675 -0.5005
   72SLPC   H3R 6284   4.719   0.617  10.274  0.0311 -0.0414  1.0312
   72SLPC   H3S 6285   4.868   0.668  10.169 -0.2611 -0.7096  0.2168
   72SLPC   C24 6286   4.704   0.802  10.150 -0.5146 -0.2499 -0.3639
   72SLPC   H4R 6287   4.629   0.840  10.223 -0.5193 -1.1015  0.0875
   72SLPC   H4S 6288   4.653   0.748  10.068  3.2457 -0.9746 -2.3128
   72SLPC   C25 6289   4.781   0.930  10.101  0.3425 -0.6057  0.7125
   72SLPC   H5R 6290   4.845   0.969  10.183 -0.2299  2.7465 -0.3327
   72SLPC   H5S 6291   4.709   1.014  10.090  0.0008 -0.8844  0.8121
   72SLPC   C26 6292   4.867   0.912   9.971 -0.2904  0.1759 -0.3324
   72SLPC   H6R 6293   4.914   0.812   9.977 -0.9336 -0.0319  1.4099
   72SLPC   H6S 6294   4.944   0.992   9.969 -0.6148  0.5414  1.5843
   72SLPC   C27 6295   4.776   0.914   9.845  0.0406 -0.2353  0.4240
   72SLPC   H7R 6296   4.713   0.826   9.821 -0.9149  0.9789 -1.7027
   72SLPC   H7S 6297   4.842   0.907   9.756 -2.5209 -1.8953 -1.3949
   72SLPC   C28 6298   4.686   1.043   9.816 -0.5561 -0.0768  0.4298
   72SLPC   H8R 6299   4.622   1.059   9.906 -0.2139  2.0550  0.3190
   72SLPC   H8S 6300   4.624   1.014   9.728  1.2030 -4.0122  0.3853
   72SLPC   C29 6301   4.786   1.155   9.801 -0.9483  0.5909 -0.5076
   72SLPC   H9R 6302   4.842   1.180   9.892 -1.0143 -1.3731  0.0926
   72SLPC  C210 6303   4.818   1.213   9.682 -0.0664 -1.3562 -0.0540
   72SLPC  H10R 6304   4.889   1.297   9.673 -2.3131  0.6237  0.1875
   72SLPC  C211 6305   4.757   1.181   9.549  0.6661  0.1287  0.1506
   72SLPC  H11R 6306   4.651   1.150   9.556  0.4650  0.9641  0.8883
   72SLPC  H11S 6307   4.807   1.093   9.504 -2.2541 -1.2929 -0.4366
   72SLPC  C212 6308   4.769   1.295   9.450 -0.2165  1.1210 -0.7172
   72SLPC  H12R 6309   4.772   1.389   9.507  0.3613 -0.9457  2.7858
   72SLPC  C213 6310   4.769   1.274   9.314 -0.0624 -0.1110 -0.8054
   72SLPC  H13R 6311   4.757   1.363   9.251 -1.3329  1.6058  1.7569
   72SLPC  C214 6312   4.772   1.136   9.237 -0.1393  0.3626  0.8994
   72SLPC  H14R 6313   4.669   1.093   9.241 -0.1920  0.6300  2.9856
   72SLPC  H14S 6314   4.835   1.066   9.296 -2.0720 -0.1633  2.3945
   72SLPC  C215 6315   4.822   1.157   9.088  0.2300 -0.0493 -0.6371
   72SLPC  H15R 6316   4.743   1.210   9.031  0.6510 -0.7219 -1.8654
   72SLPC  H15S 6317   4.847   1.063   9.035  3.1857 -0.1547  0.8231
   72SLPC  C216 6318   4.955   1.238   9.069 -0.6191 -0.2979 -0.5266
   72SLPC  H16R 6319   5.039   1.201   9.132  0.3313  1.3806 -0.7688
   72SLPC  H16S 6320   4.942   1.344   9.100  2.0194 -0.1467  0.1767
   72SLPC  C217 6321   5.009   1.224   8.928  0.4641 -0.6314  0.3363
   72SLPC  H17R 6322   5.027   1.116   8.910 -1.4003 -0.9125  0.1106
   72SLPC  H17S 6323   5.110   1.272   8.928 -0.3095  1.0578  1.5010
   72SLPC  C218 6324   4.924   1.281   8.817 -0.3777 -0.1823  0.9552
   72SLPC  H18R 6325   4.922   1.391   8.831 -2.2843 -0.0422 -0.2555
   72SLPC  H18S 6326   4.822   1.236   8.820 -0.7536  0.5619 -0.1135
   72SLPC  H18T 6327   4.969   1.247   8.721 -1.4660  1.5707 -0.2150
   72SLPC   C33 6328   4.582   1.393  10.057  0.4389  0.2408 -0.6228
   72SLPC   H3X 6329   4.598   1.502  10.076  0.3329  0.3153 -0.9533
   72SLPC   H3Y 6330   4.505   1.366  10.132 -0.4555 -0.9624 -1.9443
   72SLPC   C34 6331   4.530   1.355   9.919 -0.5459 -0.0520  0.1267
   72SLPC   H4X 6332   4.511   1.246   9.908  1.1059 -0.2951 -0.5368
   72SLPC   H4Y 6333   4.605   1.395   9.847 -0.8892  0.9660  0.3287
   72SLPC   C35 6334   4.398   1.435   9.883 -0.2111 -0.1941 -0.3139
   72SLPC   H5X 6335   4.420   1.543   9.871  0.4466 -0.5418 -2.4988
   72SLPC   H5Y 6336   4.322   1.431   9.964 -2.9739 -1.4603 -2.8681
   72SLPC   C36 6337   4.339   1.386   9.755  0.1898 -0.7912 -0.5601
   72SLPC   H6X 6338   4.246   1.447   9.746  1.7576  2.0483  1.6815
   72SLPC   H6Y 6339   4.308   1.280   9.762 -1.5920 -0.2632 -0.1748
   72SLPC   C37 6340   4.429   1.410   9.636  0.2657  0.7572  0.8387
   72SLPC   H7X 6341   4.521   1.349   9.649  0.1380  0.6860  1.4105
   72SLPC   H7Y 6342   4.454   1.519   9.636  1.0782  0.5819 -0.7798
   72SLPC   C38 6343   4.366   1.375   9.497 -0.4772  0.5667 -0.4748
   72SLPC   H8X 6344   4.447   1.405   9.427  0.7382  0.7070  0.9866
   72SLPC   H8Y 6345   4.275   1.432   9.467 -0.0472  0.0635 -2.8583
   72SLPC   C39 6346   4.366   1.231   9.469  0.3961 -0.0678 -0.2521
   72SLPC   H9X 6347   4.278   1.200   9.529  0.8080 -1.1340 -0.1913
   72SLPC   H9Y 6348   4.450   1.177   9.518 -1.1610 -1.2399  1.1841
   72SLPC  C310 6349   4.352   1.198   9.319 -0.3770 -0.5192  0.1930
   72SLPC  H10X 6350   4.368   1.088   9.308 -1.1142 -0.8671  2.4166
   72SLPC  H10Y 6351   4.421   1.251   9.250 -1.0367 -0.9646 -0.8255
   72SLPC  C311 6352   4.211   1.234   9.279  0.0516  0.1391  0.8983
   72SLPC  H11X 6353   4.192   1.344   9.271  1.8527  0.2775 -2.2245
   72SLPC  H11Y 6354   4.152   1.191   9.363  0.3057  0.8790  1.4619
   72SLPC  C312 6355   4.172   1.190   9.134  1.0198  0.3999  0.3992
   72SLPC  H12X 6356   4.204   1.084   9.128 -0.9204 -0.1281 -1.2970
   72SLPC  H12Y 6357   4.224   1.242   9.051 -0.0633  3.7788  1.7388
   72SLPC  C313 6358   4.021   1.197   9.108  0.3013 -0.3896  0.4726
   72SLPC  H13X 6359   3.984   1.295   9.143  1.3705 -0.8823  3.1114
   72SLPC  H13Y 6360   3.974   1.126   9.179  0.3226  0.8419  1.7286
   72SLPC  C314 6361   3.985   1.178   8.959 -0.3364  0.1669 -0.0539
   72SLPC  H14X 6362   4.028   1.265   8.905 -2.4095  1.3498  0.1611
   72SLPC  H14Y 6363   3.875   1.186   8.951 -0.5555 -1.5329  1.1201
   72SLPC  C315 6364   4.040   1.048   8.901  0.6247  0.1527 -0.5594
   72SLPC  H15X 6365   4.026   0.971   8.980  0.1965  0.2806 -0.5067
   72SLPC  H15Y 6366   4.149   1.048   8.883  1.2094 -5.4058  1.8797
   72SLPC  C316 6367   3.968   1.016   8.770 -0.8687  0.0909  0.1044
   72SLPC  H16X 6368   3.978   1.099   8.697 -0.9775 -0.9364 -1.1059
   72SLPC  H16Y 6369   3.859   0.998   8.784 -0.3188 -1.1877  3.0605
   72SLPC  C317 6370   4.031   0.889   8.708  0.1656  0.3859 -0.1228
   72SLPC  H17X 6371   4.030   0.802   8.778 -0.0619  1.5152  1.2956
   72SLPC  H17Y 6372   4.139   0.913   8.694 -0.4930  3.0997 -0.8096
   72SLPC  C318 6373   3.973   0.852   8.567  0.4047 -0.2001  0.5573
   72SLPC  H18X 6374   3.867   0.820   8.569  0.4755 -0.4452  0.3368
   72SLPC  H18Y 6375   4.039   0.769   8.535  0.9205  1.0786 -1.8560
   72SLPC  H18Z 6376   3.990   0.938   8.498  2.0342 -0.0271  1.1525
   73SLPC     N 6377   5.623   0.056  10.800 -0.1522 -0.0397  0.1737
   73SLPC   C13 6378   5.672  -0.054  10.892 -0.6965  1.1459  0.5877
   73SLPC  H13A 6379   5.778  -0.060  10.874 -0.8927 -0.2190 -0.1184
   73SLPC  H13B 6380   5.657  -0.037  10.998 -3.2684 -1.6033  0.7202
   73SLPC  H13C 6381   5.629  -0.149  10.865 -3.2858  2.3523  0.2569
   73SLPC   C14 6382   5.688   0.042  10.666  0.5103 -0.7921  0.1839
   73SLPC  H14A 6383   5.666  -0.054  10.622  0.0411 -0.4056 -0.4355
   73SLPC  H14B 6384   5.655   0.113  10.591  1.0943  0.3972  1.0460
   73SLPC  H14C 6385   5.794   0.040  10.687  0.2319 -1.2067  1.5847
   73SLPC   C15 6386   5.651   0.187  10.860 -1.0949  0.5643 -0.2398
   73SLPC  H15A 6387   5.638   0.184  10.967  1.3534 -0.2571  0.0557
   73SLPC  H15B 6388   5.751   0.219  10.838 -1.2295  1.1891  0.0317
   73SLPC  H15C 6389   5.588   0.265  10.820 -1.3775  0.0495 -0.8164
   73SLPC   C12 6390   5.475   0.034  10.776 -0.1725  0.0216 -0.0018
   73SLPC  H12A 6391   5.431   0.127  10.742  0.7318  0.1927 -0.7119
   73SLPC  H12B 6392   5.425   0.039  10.871  0.2403 -0.7153  0.2624
   73SLPC   C11 6393   5.413  -0.096  10.711 -0.5881 -0.7474 -0.2631
   73SLPC  H11A 6394   5.464  -0.121  10.616 -2.9838 -0.0444 -1.7886
   73SLPC  H11B 6395   5.306  -0.071  10.692 -0.2121  1.3189  0.2891
   73SLPC     P 6396   5.302  -0.244  10.889  0.4678  0.2159 -0.4405
   73SLPC   O13 6397   5.345  -0.335  10.998 -0.3702  0.4277  0.4457
   73SLPC   O14 6398   5.240  -0.117  10.942 -0.1465 -0.2844 -0.1193
   73SLPC   O12 6399   5.432  -0.209  10.802 -0.2144 -0.2437  0.8753
   73SLPC   O11 6400   5.214  -0.317  10.779  0.0044  0.5148 -0.5407
   73SLPC    C1 6401   5.250  -0.444  10.715  0.3694 -0.2641 -0.0530
   73SLPC    HA 6402   5.305  -0.507  10.788  0.6360  0.6769  0.5749
   73SLPC    HB 6403   5.158  -0.504  10.704  0.5270 -0.6510  0.6785
   73SLPC    C2 6404   5.337  -0.426  10.586  0.3798  0.3538 -0.0580
   73SLPC    HS 6405   5.420  -0.353  10.595 -0.5545  1.2528  1.4536
   73SLPC   O21 6406   5.234  -0.377  10.489 -0.0823 -0.2909  0.1538
   73SLPC   C21 6407   5.274  -0.305  10.382 -0.0151  0.4940 -0.2938
   73SLPC   O22 6408   5.391  -0.270  10.359  0.2686 -0.7007  0.2655
   73SLPC   C22 6409   5.156  -0.246  10.303  0.3305  0.8076  0.2043
   73SLPC   H2R 6410   5.095  -0.182  10.371 -0.8445  1.8084 -1.7452
   73SLPC   H2S 6411   5.210  -0.173  10.239 -2.1910  1.2026 -1.5346
   73SLPC    C3 6412   5.394  -0.561  10.540  0.0316  0.5755 -0.0958
   73SLPC    HX 6413   5.300  -0.620  10.549  0.0916  0.5614  0.4359
   73SLPC    HY 6414   5.473  -0.600  10.609  1.0257 -0.1729 -1.6268
   73SLPC   O31 6415   5.442  -0.556  10.400  0.0855  0.3963  0.4220
   73SLPC   C31 6416   5.564  -0.512  10.381 -0.0667  0.7764  0.0149
   73SLPC   O32 6417   5.633  -0.462  10.469  0.2688 -0.0627  0.4369
   73SLPC   C32 6418   5.596  -0.520  10.238  0.5070 -1.3988 -0.9682
   73SLPC   H2X 6419   5.518  -0.472  10.175 -1.6733 -1.5341  1.5511
   73SLPC   H2Y 6420   5.588  -0.626  10.208 -1.2672 -1.9656  1.3428
   73SLPC   C23 6421   5.083  -0.349  10.217  0.6398  0.0336  0.4967
   73SLPC   H3R 6422   5.070  -0.448  10.265 -0.7414  0.4763  1.0700
   73SLPC   H3S 6423   5.151  -0.368  10.131 -0.1538  0.2750 -0.1886
   73SLPC   C24 6424   4.944  -0.294  10.163 -0.0677  0.4814 -0.1161
   73SLPC   H4R 6425   4.961  -0.190  10.125 -0.8929  0.6289 -0.0891
   73SLPC   H4S 6426   4.879  -0.300  10.252 -1.7274 -1.8741 -1.4359
   73SLPC   C25 6427   4.891  -0.379  10.047 -0.7564 -0.3347  0.8646
   73SLPC   H5R 6428   4.877  -0.485  10.076 -1.0410 -0.5986 -0.2120
   73SLPC   H5S 6429   4.962  -0.369   9.962  0.1627  0.6577  1.7405
   73SLPC   C26 6430   4.758  -0.328   9.983 -0.1060  0.5203  0.5752
   73SLPC   H6R 6431   4.746  -0.217   9.986  1.4042  0.7357 -0.5075
   73SLPC   H6S 6432   4.682  -0.348  10.061  2.8024 -1.1719  3.0607
   73SLPC   C27 6433   4.713  -0.395   9.854 -0.1119 -0.8352  0.0575
   73SLPC   H7R 6434   4.608  -0.369   9.828 -0.1973 -1.4904 -0.2595
   73SLPC   H7S 6435   4.700  -0.504   9.873 -1.3644 -0.6141  0.5686
   73SLPC   C28 6436   4.805  -0.379   9.738  0.7224 -0.0059  0.6019
   73SLPC   H8R 6437   4.881  -0.458   9.758  2.0119  1.1275  0.1975
   73SLPC   H8S 6438   4.852  -0.279   9.741  0.3525  0.2000 -0.4398
   73SLPC   C29 6439   4.728  -0.404   9.604 -0.4509 -0.3047 -0.9050
   73SLPC   H9R 6440   4.690  -0.504   9.582  1.9892 -1.7356  1.1069
   73SLPC  C210 6441   4.687  -0.302   9.524 -0.8751  0.5634 -0.2742
   73SLPC  H10R 6442   4.618  -0.319   9.440  0.0923 -0.8605 -0.8061
   73SLPC  C211 6443   4.718  -0.157   9.548 -1.0072 -0.5109 -0.1348
   73SLPC  H11R 6444   4.784  -0.140   9.636 -1.5851 -0.3926  0.2853
   73SLPC  H11S 6445   4.626  -0.113   9.594 -0.7186  3.8579 -3.4464
   73SLPC  C212 6446   4.760  -0.072   9.434 -0.1268  0.0834 -0.0452
   73SLPC  H12R 6447   4.858  -0.024   9.446  0.9442 -1.9633 -0.2940
   73SLPC  C213 6448   4.693  -0.050   9.322 -0.1867 -0.0041  0.1578
   73SLPC  H13R 6449   4.739   0.018   9.249  0.1585 -1.5480 -1.0897
   73SLPC  C214 6450   4.554  -0.104   9.292 -0.0842 -0.1877 -0.3461
   73SLPC  H14R 6451   4.491  -0.103   9.383 -0.2488  1.1931 -0.4661
   73SLPC  H14S 6452   4.557  -0.205   9.247  2.5823 -0.0658 -0.5419
   73SLPC  C215 6453   4.474  -0.016   9.192  0.0690  0.7463 -0.1492
   73SLPC  H15R 6454   4.461   0.080   9.245  0.8355  0.7819 -0.0175
   73SLPC  H15S 6455   4.382  -0.076   9.174  1.0615 -0.3532 -1.6592
   73SLPC  C216 6456   4.550  -0.002   9.059  0.4219  0.0853  0.1157
   73SLPC  H16R 6457   4.635   0.069   9.064 -0.0885  0.6835  0.3865
   73SLPC  H16S 6458   4.477   0.052   8.995  1.2343 -1.1132 -1.8837
   73SLPC  C217 6459   4.585  -0.133   8.987  0.3058  0.4045 -1.0302
   73SLPC  H17R 6460   4.504  -0.208   8.996 -0.6794  1.3253 -2.1726
   73SLPC  H17S 6461   4.672  -0.183   9.035  0.6673  1.0859 -0.9665
   73SLPC  C218 6462   4.610  -0.105   8.833  0.0093  0.1084 -0.0304
   73SLPC  H18R 6463   4.650  -0.190   8.774  0.2445 -0.0763  0.3851
   73SLPC  H18S 6464   4.692  -0.029   8.832  0.2469 -0.1591 -1.5992
   73SLPC  H18T 6465   4.525  -0.050   8.788 -1.1260  1.2142  3.3069
   73SLPC   C33 6466   5.740  -0.481  10.207  0.1080 -0.3212 -0.0464
   73SLPC   H3X 6467   5.810  -0.524  10.282 -0.4041 -1.2335 -0.0831
   73SLPC   H3Y 6468   5.739  -0.370  10.211  1.5026 -0.2683 -0.7404
   73SLPC   C34 6469   5.807  -0.521  10.073  0.0009  0.1580 -0.3934
   73SLPC   H4X 6470   5.797  -0.631  10.068  1.0613  0.0740 -0.7557
   73SLPC   H4Y 6471   5.915  -0.498  10.069 -0.0431  0.4575  0.1100
   73SLPC   C35 6472   5.757  -0.467   9.944  0.5544 -0.1848  0.4513
   73SLPC   H5X 6473   5.769  -0.358   9.962  0.8920 -0.3056  0.9534
   73SLPC   H5Y 6474   5.647  -0.471   9.925  0.5692 -0.2397  0.3753
   73SLPC   C36 6475   5.841  -0.497   9.823  0.2820  0.4962 -0.1249
   73SLPC   H6X 6476   5.845  -0.607   9.807 -1.9746  0.6122 -1.8478
   73SLPC   H6Y 6477   5.942  -0.457   9.844  0.3123  1.1240 -1.3864
   73SLPC   C37 6478   5.807  -0.430   9.684  0.0129 -0.0856 -0.3762
   73SLPC   H7X 6479   5.704  -0.461   9.654  0.0687 -1.8421  1.0923
   73SLPC   H7Y 6480   5.879  -0.468   9.608  1.3566  0.1009  0.7900
   73SLPC   C38 6481   5.797  -0.279   9.686 -0.2166  0.3628 -0.8833
   73SLPC   H8X 6482   5.898  -0.236   9.703 -0.5516  1.6719 -2.1103
   73SLPC   H8Y 6483   5.741  -0.245   9.776 -0.2894 -2.0655  0.0235
   73SLPC   C39 6484   5.748  -0.216   9.562 -0.6091 -0.2725 -0.4312
   73SLPC   H9X 6485   5.783  -0.272   9.472  1.4200  0.3097 -0.0412
   73SLPC   H9Y 6486   5.787  -0.112   9.564 -0.5984 -0.2864  0.0193
   73SLPC  C310 6487   5.590  -0.214   9.568 -1.1032  0.1231 -0.1193
   73SLPC  H10X 6488   5.562  -0.159   9.660  0.4695 -1.1362  1.1365
   73SLPC  H10Y 6489   5.562  -0.320   9.587 -0.6689 -0.2486 -1.4625
   73SLPC  C311 6490   5.502  -0.163   9.456 -0.5192 -0.3714 -0.0686
   73SLPC  H11X 6491   5.490  -0.053   9.463  0.6015 -0.2137 -0.4950
   73SLPC  H11Y 6492   5.402  -0.211   9.460  0.4511 -2.5593 -1.0377
   73SLPC  C312 6493   5.565  -0.196   9.314 -0.0128 -0.2937  0.5092
   73SLPC  H12X 6494   5.589  -0.304   9.317  1.4106  0.0325  1.1596
   73SLPC  H12Y 6495   5.660  -0.140   9.311  0.8051 -1.5951  1.4708
   73SLPC  C313 6496   5.472  -0.160   9.201  0.0288 -0.8169  0.0764
   73SLPC  H13X 6497   5.495  -0.060   9.159 -1.8698 -1.3487 -2.3371
   73SLPC  H13Y 6498   5.369  -0.156   9.241 -0.7084  1.0406 -1.9147
   73SLPC  C314 6499   5.481  -0.248   9.067  0.2155  0.1479 -0.9325
   73SLPC  H14X 6500   5.432  -0.343   9.098  0.9437 -0.1047 -0.5295
   73SLPC  H14Y 6501   5.588  -0.269   9.045  0.2912 -0.3923 -0.1160
   73SLPC  C315 6502   5.407  -0.179   8.958 -0.1918  0.1423 -0.0402
   73SLPC  H15X 6503   5.455  -0.081   8.936  3.2691 -1.2063  1.1288
   73SLPC  H15Y 6504   5.306  -0.157   8.997  1.1417  2.2098  2.3852
   73SLPC  C316 6505   5.388  -0.254   8.830  0.3438  0.1154  0.0259
   73SLPC  H16X 6506   5.334  -0.349   8.852  2.4659 -1.1361  0.0166
   73SLPC  H16Y 6507   5.485  -0.284   8.784 -0.4740 -1.1374 -0.9280
   73SLPC  C317 6508   5.307  -0.192   8.719 -0.0236  0.1303 -0.7861
   73SLPC  H17X 6509   5.206  -0.169   8.757  0.0273  0.0172 -0.5795
   73SLPC  H17Y 6510   5.294  -0.263   8.634  0.0080  0.3719 -0.9916
   73SLPC  C318 6511   5.361  -0.061   8.671  0.4611 -0.0481  0.0367
   73SLPC  H18X 6512   5.472  -0.058   8.668  0.4862 -0.1995  0.7663
   73SLPC  H18Y 6513   5.323   0.012   8.745 -0.3440  0.2800 -0.6899
   73SLPC  H18Z 6514   5.319  -0.041   8.570 -0.6098 -1.3901  0.1926
   74SLPC     N 6515   5.078   1.881  10.584 -0.6850 -0.1477  0.0251
   74SLPC   C13 6516   5.105   1.733  10.595 -0.4676 -0.1777  0.7480
   74SLPC  H13A 6517   5.017   1.676  10.621  0.2209 -1.0088  1.3283
   74SLPC  H13B 6518   5.132   1.705  10.494 -0.6110  3.7426 -0.4572
   74SLPC  H13C 6519   5.196   1.697  10.642  0.1011  0.0809 -0.1496
   74SLPC   C14 6520   5.051   1.949  10.717  0.6943  0.5260  0.5521
   74SLPC  H14A 6521   5.142   1.946  10.776  1.3454 -1.1533 -0.5009
   74SLPC  H14B 6522   5.024   2.053  10.707  2.3790  1.0089  0.8733
   74SLPC  H14C 6523   4.965   1.901  10.761  1.3895  1.3313  2.8311
   74SLPC   C15 6524   4.951   1.887  10.498 -0.4390 -0.0642  0.0809
   74SLPC  H15A 6525   4.968   1.820  10.415  0.3246 -0.6703  0.7110
   74SLPC  H15B 6526   4.866   1.849  10.552  0.6345 -1.8649  0.5621
   74SLPC  H15C 6527   4.925   1.985  10.462  0.5191  0.3795  0.5816
   74SLPC   C12 6528   5.204   1.936  10.516 -0.4454  0.3148  0.4365
   74SLPC  H12A 6529   5.282   1.937  10.592  0.4238  1.4626 -0.4512
   74SLPC  H12B 6530   5.178   2.035  10.481 -1.2814  0.1862  0.6982
   74SLPC   C11 6531   5.258   1.866  10.382 -0.1559 -0.3401 -0.0828
   74SLPC  H11A 6532   5.347   1.926  10.352 -0.0532 -0.3360  0.2346
   74SLPC  H11B 6533   5.168   1.881  10.319 -0.8891  2.3640  1.5411
   74SLPC     P 6534   5.428   1.676  10.455 -0.1431 -0.0318  0.0784
   74SLPC   O13 6535   5.479   1.791  10.534  0.2425 -0.2551  0.0084
   74SLPC   O14 6536   5.413   1.550  10.528 -0.1943  0.5198  0.0809
   74SLPC   O12 6537   5.290   1.725  10.398 -0.4532  0.7567 -0.2577
   74SLPC   O11 6538   5.520   1.660  10.324 -0.1227 -0.9470 -0.1446
   74SLPC    C1 6539   5.478   1.601  10.196 -0.3836  0.2841  0.5037
   74SLPC    HA 6540   5.370   1.577  10.189  0.0243 -1.9198  1.3417
   74SLPC    HB 6541   5.510   1.663  10.110 -1.7857 -0.9056 -0.8925
   74SLPC    C2 6542   5.555   1.470  10.163 -0.4307 -0.4365 -0.2054
   74SLPC    HS 6543   5.658   1.477  10.202 -0.5802 -1.6534  0.4523
   74SLPC   O21 6544   5.545   1.453  10.024 -0.3069  0.2013 -0.2078
   74SLPC   C21 6545   5.643   1.374   9.975  0.1284 -0.3493 -0.1322
   74SLPC   O22 6546   5.726   1.315  10.041 -0.5882  0.6905 -0.3028
   74SLPC   C22 6547   5.623   1.365   9.826 -0.7267  0.0040 -0.1621
   74SLPC   H2R 6548   5.558   1.277   9.805  1.8326 -1.6181 -1.5704
   74SLPC   H2S 6549   5.575   1.458   9.789 -0.3935  0.2611  0.0440
   74SLPC    C3 6550   5.487   1.342  10.236 -0.0419  0.1628  0.2830
   74SLPC    HX 6551   5.509   1.364  10.343  2.1325  1.7238 -0.4480
   74SLPC    HY 6552   5.540   1.250  10.203 -0.0364 -0.0319  0.8290
   74SLPC   O31 6553   5.348   1.342  10.216 -0.0247  0.2072 -0.1391
   74SLPC   C31 6554   5.293   1.261  10.136  1.1656  0.2085 -0.5915
   74SLPC   O32 6555   5.349   1.169  10.083  0.7273 -0.4601 -0.2921
   74SLPC   C32 6556   5.147   1.296  10.130  0.0643 -0.2720 -0.8185
   74SLPC   H2X 6557   5.130   1.390  10.187  0.7691 -0.9538  0.5434
   74SLPC   H2Y 6558   5.088   1.213  10.175 -1.3314  1.3361  0.4119
   74SLPC   C23 6559   5.760   1.360   9.755  0.4284 -0.1817  0.1212
   74SLPC   H3R 6560   5.810   1.264   9.781 -2.1445 -1.4959  0.3889
   74SLPC   H3S 6561   5.830   1.438   9.790 -0.0969  0.5980 -0.5422
   74SLPC   C24 6562   5.740   1.373   9.605 -0.1007  0.6128 -0.1675
   74SLPC   H4R 6563   5.685   1.457   9.560  0.4123  1.1699  0.2356
   74SLPC   H4S 6564   5.713   1.277   9.556 -1.5079  1.4070 -0.9852
   74SLPC   C25 6565   5.881   1.390   9.550  0.2237 -0.4859 -0.5848
   74SLPC   H5R 6566   5.944   1.315   9.602 -1.2462 -2.3192 -1.3645
   74SLPC   H5S 6567   5.917   1.490   9.582 -0.4642 -0.6452  0.7183
   74SLPC   C26 6568   5.883   1.383   9.395  0.8209  0.1943  0.0493
   74SLPC   H6R 6569   5.802   1.445   9.351  1.4069  1.1685  0.3516
   74SLPC   H6S 6570   5.855   1.278   9.370  1.0924  0.7451 -2.6467
   74SLPC   C27 6571   6.019   1.409   9.331 -0.6252  0.1789 -0.2117
   74SLPC   H7R 6572   6.107   1.376   9.390  0.5991  0.3852 -1.8646
   74SLPC   H7S 6573   6.027   1.519   9.314 -1.6186  0.2327 -0.3526
   74SLPC   C28 6574   6.034   1.344   9.191 -0.1350  0.2303  0.2448
   74SLPC   H8R 6575   6.038   1.233   9.197  2.1902  0.1502 -1.7881
   74SLPC   H8S 6576   6.136   1.371   9.157  0.4205 -2.6779 -0.5204
   74SLPC   C29 6577   5.929   1.372   9.086  0.4151  0.1543 -0.8548
   74SLPC   H9R 6578   5.835   1.323   9.116  0.4328 -0.2907 -1.5153
   74SLPC  C210 6579   5.929   1.443   8.972  0.1093 -0.2869  0.6287
   74SLPC  H10R 6580   5.831   1.454   8.922  0.5526  1.7813  0.1371
   74SLPC  C211 6581   6.036   1.523   8.912  0.1503  0.4786  0.1767
   74SLPC  H11R 6582   6.098   1.575   8.989 -0.3687  0.2684  0.7464
   74SLPC  H11S 6583   5.995   1.612   8.859  1.7411  1.7728  1.0734
   74SLPC  C212 6584   6.125   1.442   8.823 -0.6140  0.1349  0.3656
   74SLPC  H12R 6585   6.213   1.411   8.881  1.2405  1.0880 -1.8108
   74SLPC  C213 6586   6.129   1.445   8.690 -0.1822 -0.0615  0.3994
   74SLPC  H13R 6587   6.205   1.387   8.635 -0.3588  0.0972 -0.0183
   74SLPC  C214 6588   6.032   1.522   8.601  0.1631 -0.2276  0.6216
   74SLPC  H14R 6589   5.967   1.595   8.654 -2.1732 -1.2200 -0.8078
   74SLPC  H14S 6590   5.972   1.457   8.535 -2.2268  1.8485  0.7130
   74SLPC  C215 6591   6.118   1.608   8.505  0.5333 -0.1696  0.8017
   74SLPC  H15R 6592   6.191   1.546   8.448  1.2779  1.1975  0.2549
   74SLPC  H15S 6593   6.169   1.664   8.586  1.3311 -0.5902  0.5965
   74SLPC  C216 6594   6.048   1.706   8.417 -0.2598  0.6229 -0.3299
   74SLPC  H16R 6595   5.953   1.745   8.458 -0.8843  0.0437 -1.2020
   74SLPC  H16S 6596   6.020   1.650   8.325  3.5791  0.8657 -1.7238
   74SLPC  C217 6597   6.134   1.826   8.383 -0.4666 -0.9321  0.3733
   74SLPC  H17R 6598   6.146   1.892   8.472  3.1659 -2.6700  1.2715
   74SLPC  H17S 6599   6.084   1.887   8.305 -0.9251  0.3230  1.6324
   74SLPC  C218 6600   6.272   1.798   8.323 -0.2344 -0.3210  0.3159
   74SLPC  H18R 6601   6.321   1.896   8.305 -0.6243 -0.5564 -2.2066
   74SLPC  H18S 6602   6.272   1.753   8.221  2.6814 -0.7923  0.4758
   74SLPC  H18T 6603   6.340   1.732   8.382 -0.0182 -0.7966 -0.4522
   74SLPC   C33 6604   5.092   1.289   9.983  0.6991 -0.4387  0.0086
   74SLPC   H3X 6605   4.982   1.300   9.978  1.0482  3.0098 -2.1268
   74SLPC   H3Y 6606   5.119   1.186   9.950 -2.7204 -1.0251 -1.1293
   74SLPC   C34 6607   5.162   1.404   9.904  0.0677 -0.7053  0.2277
   74SLPC   H4X 6608   5.210   1.467   9.982 -0.7967 -0.4135  0.5322
   74SLPC   H4Y 6609   5.077   1.463   9.862  1.0647 -0.0444 -0.9031
   74SLPC   C35 6610   5.265   1.361   9.798 -0.4336 -0.1575 -0.0296
   74SLPC   H5X 6611   5.331   1.278   9.830  0.0284  0.3352  0.2807
   74SLPC   H5Y 6612   5.327   1.449   9.771  1.4291 -1.3069  0.4154
   74SLPC   C36 6613   5.193   1.336   9.664 -0.0687 -0.0127  0.0409
   74SLPC   H6X 6614   5.142   1.428   9.628  3.4481  2.2641  0.6131
   74SLPC   H6Y 6615   5.125   1.249   9.669  0.9955 -1.0122 -2.2211
   74SLPC   C37 6616   5.293   1.292   9.558  1.0887  0.0729  0.6557
   74SLPC   H7X 6617   5.362   1.221   9.610  0.5894 -0.7597  0.1832
   74SLPC   H7Y 6618   5.351   1.386   9.542  1.7627 -0.4425  0.0877
   74SLPC   C38 6619   5.231   1.241   9.424  0.2915  0.2693 -0.8906
   74SLPC   H8X 6620   5.162   1.320   9.389 -0.7638 -0.6000 -0.7847
   74SLPC   H8Y 6621   5.172   1.149   9.445 -0.6933  1.8115  3.7067
   74SLPC   C39 6622   5.336   1.222   9.321  0.5675 -0.0775  0.7328
   74SLPC   H9X 6623   5.281   1.165   9.242  0.4477  0.3062  0.5380
   74SLPC   H9Y 6624   5.422   1.158   9.350 -0.7588 -0.8431  3.0391
   74SLPC  C310 6625   5.385   1.355   9.264 -0.6266  0.0597  0.3715
   74SLPC  H10X 6626   5.435   1.419   9.340  0.6162  0.9342 -1.1509
   74SLPC  H10Y 6627   5.301   1.413   9.221 -2.0745 -0.5151  2.3365
   74SLPC  C311 6628   5.498   1.324   9.162  0.7931  0.1147  0.0323
   74SLPC  H11X 6629   5.456   1.252   9.089  0.4605 -0.4924  0.8210
   74SLPC  H11Y 6630   5.591   1.283   9.207 -0.0159 -2.2249 -0.3804
   74SLPC  C312 6631   5.523   1.445   9.076 -0.5019  0.1502  0.3826
   74SLPC  H12X 6632   5.625   1.483   9.103 -0.8274 -0.0475  1.9675
   74SLPC  H12Y 6633   5.449   1.528   9.089  2.7043  3.1235  0.5705
   74SLPC  C313 6634   5.519   1.414   8.922 -0.1729  0.1374  0.0159
   74SLPC  H13X 6635   5.416   1.387   8.892  0.3555 -0.3841 -1.3536
   74SLPC  H13Y 6636   5.575   1.320   8.902  0.9593  1.2713 -2.1936
   74SLPC  C314 6637   5.562   1.527   8.831 -0.2973 -0.5326  0.0628
   74SLPC  H14X 6638   5.671   1.546   8.834 -0.5396  0.9235  0.0588
   74SLPC  H14Y 6639   5.499   1.613   8.862 -1.1382 -0.9415 -0.4894
   74SLPC  C315 6640   5.534   1.483   8.685 -0.1291 -0.1335  0.2334
   74SLPC  H15X 6641   5.426   1.460   8.680 -0.4603  1.3271  0.3196
   74SLPC  H15Y 6642   5.596   1.394   8.662  0.7764  0.8580 -1.2944
   74SLPC  C316 6643   5.578   1.580   8.577 -0.7754 -0.2231  0.0385
   74SLPC  H16X 6644   5.552   1.540   8.477 -2.2146 -0.6121  0.5527
   74SLPC  H16Y 6645   5.687   1.599   8.585 -1.1818  1.7578  1.1649
   74SLPC  C317 6646   5.530   1.722   8.588 -0.2351  0.3365 -0.5785
   74SLPC  H17X 6647   5.555   1.767   8.687  0.6544 -1.1086 -0.1330
   74SLPC  H17Y 6648   5.419   1.716   8.593 -0.1903 -0.4084 -0.3911
   74SLPC  C318 6649   5.566   1.815   8.476  0.3523  0.0646 -0.3402
   74SLPC  H18X 6650   5.507   1.909   8.469 -0.0604 -0.2506 -1.0991
   74SLPC  H18Y 6651   5.559   1.765   8.377  0.9335  0.6810 -0.7057
   74SLPC  H18Z 6652   5.673   1.842   8.490 -0.2664  1.5852  1.7058
   75SLPC     N 6653   3.421   4.333   6.280 -0.1839 -0.1855  0.0477
   75SLPC   C13 6654   3.397   4.214   6.364  0.2661 -0.3311 -0.7789
   75SLPC  H13A 6655   3.467   4.211   6.446 -1.0472 -0.1515  0.3734
   75SLPC  H13B 6656   3.296   4.212   6.403  1.2484 -0.3060  1.8894
   75SLPC  H13C 6657   3.406   4.118   6.316  4.0915  0.1837 -1.2163
   75SLPC   C14 6658   3.455   4.450   6.372 -0.3497  0.4264  0.5213
   75SLPC  H14A 6659   3.469   4.546   6.327 -1.7325 -0.2162 -1.3239
   75SLPC  H14B 6660   3.369   4.460   6.437 -0.4096 -2.3192  0.9456
   75SLPC  H14C 6661   3.541   4.423   6.432 -1.4178  0.1265  1.9606
   75SLPC   C15 6662   3.306   4.368   6.193 -0.2976  0.2794  0.4535
   75SLPC  H15A 6663   3.217   4.385   6.250  0.3207  0.1088  1.4834
   75SLPC  H15B 6664   3.323   4.456   6.132 -2.1574  0.3256 -0.0209
   75SLPC  H15C 6665   3.280   4.285   6.128  2.1033 -1.5139  1.6709
   75SLPC   C12 6666   3.543   4.312   6.208 -0.4333  0.8574  0.7753
   75SLPC  H12A 6667   3.573   4.410   6.172 -0.0147 -0.2228 -1.9651
   75SLPC  H12B 6668   3.529   4.252   6.120 -0.4338  0.3150  1.1422
   75SLPC   C11 6669   3.669   4.250   6.280  0.5597 -0.4616  0.7950
   75SLPC  H11A 6670   3.731   4.209   6.198 -0.8649 -0.9639 -0.0482
   75SLPC  H11B 6671   3.641   4.156   6.332 -1.1333  0.2622  1.2277
   75SLPC     P 6672   3.885   4.399   6.341  0.0776  0.6253  0.3933
   75SLPC   O13 6673   3.916   4.433   6.202  0.2011  0.5311 -0.4932
   75SLPC   O14 6674   3.919   4.503   6.439  0.9387 -0.0049 -0.0284
   75SLPC   O12 6675   3.738   4.347   6.359 -0.4268  0.1351 -0.6386
   75SLPC   O11 6676   3.970   4.275   6.387 -0.0603  0.1041  0.6722
   75SLPC    C1 6677   3.928   4.177   6.476  0.0843 -0.4485  0.0199
   75SLPC    HA 6678   3.869   4.102   6.419 -1.6327 -0.2192  1.4553
   75SLPC    HB 6679   4.016   4.113   6.498  0.3114  0.2740  1.2353
   75SLPC    C2 6680   3.863   4.232   6.614  0.3033 -0.5704  0.2642
   75SLPC    HS 6681   3.786   4.308   6.590  1.7683  0.7294 -0.4062
   75SLPC   O21 6682   3.972   4.293   6.698 -0.1221 -0.1590 -0.1179
   75SLPC   C21 6683   3.937   4.382   6.783 -0.0064 -0.3160  0.4439
   75SLPC   O22 6684   3.825   4.432   6.792 -0.7860 -0.0527 -0.3777
   75SLPC   C22 6685   4.060   4.433   6.867  0.5433 -0.5970 -0.7290
   75SLPC   H2R 6686   4.111   4.344   6.910 -0.0774 -0.1667  0.9122
   75SLPC   H2S 6687   4.124   4.487   6.794 -1.1898  1.4913 -0.7440
   75SLPC    C3 6688   3.793   4.111   6.684 -0.2322 -0.5204 -0.2108
   75SLPC    HX 6689   3.856   4.022   6.705 -1.1211 -1.1438 -0.1711
   75SLPC    HY 6690   3.717   4.076   6.611 -0.5386  0.2174 -0.2514
   75SLPC   O31 6691   3.730   4.166   6.805 -0.2453 -0.2385  0.7129
   75SLPC   C31 6692   3.609   4.221   6.788  0.5812  0.2246  0.1000
   75SLPC   O32 6693   3.543   4.204   6.685  0.1299  0.5793  0.2389
   75SLPC   C32 6694   3.556   4.280   6.919  0.5096  0.3558  0.3429
   75SLPC   H2X 6695   3.449   4.305   6.900  0.6519  0.6713 -0.0784
   75SLPC   H2Y 6696   3.608   4.372   6.953 -0.7287  0.7684  1.1920
   75SLPC   C23 6697   4.031   4.528   6.988  1.0361  0.2651  0.0704
   75SLPC   H3R 6698   3.956   4.607   6.966 -0.0621 -1.0674 -1.1219
   75SLPC   H3S 6699   4.120   4.585   7.020  0.9217  1.1327 -1.1370
   75SLPC   C24 6700   3.977   4.463   7.116 -0.3914 -0.3225  0.2122
   75SLPC   H4R 6701   4.045   4.378   7.136 -0.6460 -0.8657 -1.1592
   75SLPC   H4S 6702   3.885   4.405   7.091 -1.0225  0.5079  0.5625
   75SLPC   C25 6703   3.957   4.556   7.239  0.0178 -0.0162 -0.4169
   75SLPC   H5R 6704   3.869   4.622   7.246  1.3697  1.6744  1.1145
   75SLPC   H5S 6705   4.039   4.630   7.246  0.5825 -0.7020  0.3553
   75SLPC   C26 6706   3.967   4.480   7.376  0.2646  0.1209  0.5978
   75SLPC   H6R 6707   4.072   4.443   7.379 -0.0434 -0.7842  0.3200
   75SLPC   H6S 6708   3.920   4.380   7.369  0.7875 -0.0883  0.0153
   75SLPC   C27 6709   3.926   4.557   7.505  0.2801 -0.0170 -0.3126
   75SLPC   H7R 6710   3.822   4.596   7.501  0.2830  0.1512  1.0181
   75SLPC   H7S 6711   3.995   4.643   7.498  2.4357 -1.6729  0.1645
   75SLPC   C28 6712   3.958   4.478   7.638 -0.4352 -0.6286  0.6903
   75SLPC   H8R 6713   4.057   4.429   7.627 -1.5522 -2.7705 -0.1028
   75SLPC   H8S 6714   3.881   4.398   7.636 -2.6889  1.4660  2.6911
   75SLPC   C29 6715   3.960   4.568   7.757  0.0564  0.5316 -0.0500
   75SLPC   H9R 6716   4.012   4.664   7.747 -0.0579  0.6661  0.6346
   75SLPC  C210 6717   3.906   4.552   7.877  0.1866  0.6704  0.3809
   75SLPC  H10R 6718   3.920   4.636   7.947  0.1592  0.1387  1.0318
   75SLPC  C211 6719   3.823   4.424   7.918  0.5309  0.4453 -0.2008
   75SLPC  H11R 6720   3.802   4.358   7.832  0.6315 -0.6438  0.5960
   75SLPC  H11S 6721   3.722   4.448   7.957 -0.8829 -2.1759 -2.1004
   75SLPC  C212 6722   3.918   4.349   8.016 -0.1380 -0.0605 -0.2647
   75SLPC  H12R 6723   3.926   4.389   8.118  0.5817  0.0396 -0.3567
   75SLPC  C213 6724   3.996   4.241   7.987 -0.0493 -0.1264  0.2544
   75SLPC  H13R 6725   4.050   4.186   8.065  0.3911 -0.5368 -0.3307
   75SLPC  C214 6726   4.010   4.177   7.848 -0.4426 -0.2440 -0.0085
   75SLPC  H14R 6727   4.118   4.163   7.824 -0.3924 -0.5025  0.3661
   75SLPC  H14S 6728   3.954   4.230   7.768 -0.6271 -1.0817 -0.4452
   75SLPC  C215 6729   3.947   4.038   7.855 -0.0151 -0.0816  0.0775
   75SLPC  H15R 6730   3.839   4.034   7.877 -0.3928 -1.0804 -1.7957
   75SLPC  H15S 6731   3.997   3.975   7.932  0.9852  1.3125  0.6010
   75SLPC  C216 6732   3.965   3.968   7.725 -0.1814 -0.7703  0.5369
   75SLPC  H16R 6733   4.073   3.971   7.701 -0.2686  1.1988  0.3020
   75SLPC  H16S 6734   3.928   4.029   7.640 -0.2990 -0.2747  0.9444
   75SLPC  C217 6735   3.911   3.827   7.698  0.3203  0.1273 -0.7078
   75SLPC  H17R 6736   3.801   3.814   7.702  0.3319  0.2852  0.0817
   75SLPC  H17S 6737   3.966   3.762   7.769  0.9217  1.2842 -0.1132
   75SLPC  C218 6738   3.963   3.780   7.560 -0.6786  0.7286  0.2803
   75SLPC  H18R 6739   4.072   3.791   7.541 -0.8844 -2.0603 -3.0323
   75SLPC  H18S 6740   3.911   3.836   7.480  2.0826  1.1330 -1.3054
   75SLPC  H18T 6741   3.933   3.674   7.542  0.7379  0.3292  0.1681
   75SLPC   C33 6742   3.573   4.179   7.041  0.9106  0.1600  0.1296
   75SLPC   H3X 6743   3.559   4.083   6.988  2.4467  0.3517 -0.6376
   75SLPC   H3Y 6744   3.672   4.191   7.090  0.9672 -2.3550  0.7133
   75SLPC   C34 6745   3.455   4.179   7.131 -0.2223  0.1634 -0.3467
   75SLPC   H4X 6746   3.382   4.100   7.102 -1.7808  0.6083  2.1803
   75SLPC   H4Y 6747   3.406   4.278   7.127  1.4154  0.9681 -0.8900
   75SLPC   C35 6748   3.500   4.155   7.280  0.5362 -0.0487  0.0799
   75SLPC   H5X 6749   3.564   4.064   7.283  1.6496  0.7051 -0.5605
   75SLPC   H5Y 6750   3.409   4.137   7.340  0.3836 -1.4010 -0.5451
   75SLPC   C36 6751   3.597   4.263   7.341  0.4310  0.6180  0.2707
   75SLPC   H6X 6752   3.548   4.361   7.359  1.5292  1.4065 -0.9325
   75SLPC   H6Y 6753   3.685   4.280   7.275 -0.1723  2.0371 -0.1817
   75SLPC   C37 6754   3.638   4.238   7.486 -0.1464  0.1876 -0.0717
   75SLPC   H7X 6755   3.668   4.333   7.535 -0.7334  0.4409 -0.2065
   75SLPC   H7Y 6756   3.723   4.167   7.490 -0.3936 -0.0738  0.6955
   75SLPC   C38 6757   3.531   4.181   7.574  0.2360  0.3956  0.8511
   75SLPC   H8X 6758   3.487   4.087   7.535 -0.4632  0.7814  0.6897
   75SLPC   H8Y 6759   3.451   4.256   7.592 -0.0819 -0.1908  1.9068
   75SLPC   C39 6760   3.587   4.145   7.715 -0.0559  0.2372 -0.4050
   75SLPC   H9X 6761   3.630   4.233   7.766  0.4812  0.1004 -0.6119
   75SLPC   H9Y 6762   3.664   4.066   7.701 -0.2052 -0.0107  0.1631
   75SLPC  C310 6763   3.486   4.060   7.793  1.0762  1.0987  0.3111
   75SLPC  H10X 6764   3.472   3.964   7.739  0.5926  1.5090 -0.2962
   75SLPC  H10Y 6765   3.387   4.109   7.804  1.6742  2.1392  1.0783
   75SLPC  C311 6766   3.536   4.033   7.934  0.0038 -0.2985  0.3656
   75SLPC  H11X 6767   3.626   3.969   7.941  0.0529 -0.2749 -0.0436
   75SLPC  H11Y 6768   3.457   3.978   7.991 -1.0852  3.6028  2.7630
   75SLPC  C312 6769   3.557   4.153   8.018 -0.2506 -0.8595 -0.2420
   75SLPC  H12X 6770   3.647   4.210   7.986 -0.9922  0.6323  0.2739
   75SLPC  H12Y 6771   3.575   4.114   8.121 -2.4080 -0.0618  0.4644
   75SLPC  C313 6772   3.435   4.259   8.021 -0.0891  0.1495  0.3758
   75SLPC  H13X 6773   3.342   4.202   8.046 -1.4277  2.2579  0.3743
   75SLPC  H13Y 6774   3.418   4.286   7.914 -1.0834 -0.6610  0.3152
   75SLPC  C314 6775   3.467   4.380   8.112 -0.3653 -0.0060  0.3675
   75SLPC  H14X 6776   3.382   4.451   8.107  1.1887  1.7149 -2.7954
   75SLPC  H14Y 6777   3.555   4.435   8.074 -0.3927  1.2150  2.0208
   75SLPC  C315 6778   3.479   4.336   8.254 -0.6344  0.6305  0.2522
   75SLPC  H15X 6779   3.574   4.280   8.258  0.1614  1.8052 -1.6489
   75SLPC  H15Y 6780   3.399   4.262   8.274  1.1021 -1.8180 -1.6222
   75SLPC  C316 6781   3.477   4.459   8.342  0.3958 -0.6183 -0.0289
   75SLPC  H16X 6782   3.379   4.509   8.357  0.3883 -0.8077  0.5476
   75SLPC  H16Y 6783   3.546   4.535   8.298  1.7320 -2.0144 -0.4147
   75SLPC  C317 6784   3.540   4.447   8.482  0.0578 -0.2583  0.0927
   75SLPC  H17X 6785   3.648   4.445   8.459 -0.2337  0.9128 -1.4848
   75SLPC  H17Y 6786   3.511   4.348   8.523 -0.4642 -0.9518 -1.9062
   75SLPC  C318 6787   3.517   4.570   8.572  0.5659 -0.4365 -0.1728
   75SLPC  H18X 6788   3.564   4.552   8.671  0.6749  1.1199  0.0590
   75SLPC  H18Y 6789   3.408   4.588   8.587  0.7984 -0.9609  2.4800
   75SLPC  H18Z 6790   3.561   4.665   8.537  0.1169 -1.0438 -2.4594
   76SLPC     N 6791   6.480   3.419   6.655  0.1460 -0.1922 -0.1028
   76SLPC   C13 6792   6.458   3.482   6.787  0.8857 -0.2949  0.6141
   76SLPC  H13A 6793   6.363   3.532   6.778  0.6360 -0.7099  0.9147
   76SLPC  H13B 6794   6.436   3.402   6.856 -2.7035 -0.2155 -0.3813
   76SLPC  H13C 6795   6.535   3.553   6.815  0.3017 -0.0862  1.7404
   76SLPC   C14 6796   6.610   3.351   6.659  0.7400  0.3278  0.2314
   76SLPC  H14A 6797   6.691   3.391   6.719  0.7105  1.1872 -0.2980
   76SLPC  H14B 6798   6.591   3.249   6.689 -0.3143 -0.3315 -2.4887
   76SLPC  H14C 6799   6.642   3.340   6.556 -2.0611  1.3430 -0.7817
   76SLPC   C15 6800   6.482   3.530   6.555  0.1958 -0.4081  0.3311
   76SLPC  H15A 6801   6.530   3.496   6.464 -0.5815 -0.9402  0.1102
   76SLPC  H15B 6802   6.390   3.585   6.538  2.2937  3.3739  0.7527
   76SLPC  H15C 6803   6.551   3.610   6.578  0.6493 -0.0195 -2.1791
   76SLPC   C12 6804   6.363   3.330   6.610  0.6564  0.0366 -0.6224
   76SLPC  H12A 6805   6.270   3.386   6.605  0.5977 -0.1032 -1.0754
   76SLPC  H12B 6806   6.342   3.260   6.689  1.3744 -0.7345 -1.1128
   76SLPC   C11 6807   6.373   3.260   6.474  0.9427 -0.7030 -0.2752
   76SLPC  H11A 6808   6.429   3.318   6.398 -1.5944  1.4890 -0.5666
   76SLPC  H11B 6809   6.267   3.255   6.442  0.7918  1.5228 -0.2462
   76SLPC     P 6810   6.376   3.011   6.411 -0.3135 -0.1676  0.0121
   76SLPC   O13 6811   6.390   3.047   6.268 -0.1006 -0.3784 -0.1527
   76SLPC   O14 6812   6.441   2.883   6.457 -0.3946  0.2805  0.0956
   76SLPC   O12 6813   6.434   3.132   6.492  0.1601  0.0183  0.1894
   76SLPC   O11 6814   6.228   3.004   6.453 -0.0406 -0.3384 -0.4501
   76SLPC    C1 6815   6.173   3.022   6.588  0.6582  0.2058  0.0595
   76SLPC    HA 6816   6.241   3.079   6.656  2.9041  0.5472 -2.3596
   76SLPC    HB 6817   6.091   3.095   6.572  0.7855  1.0770  3.1120
   76SLPC    C2 6818   6.118   2.892   6.656 -0.6838 -0.1328 -0.0521
   76SLPC    HS 6819   6.055   2.922   6.743 -0.4353  0.9610 -0.2479
   76SLPC   O21 6820   6.227   2.804   6.709  0.1587  0.0379  0.2628
   76SLPC   C21 6821   6.272   2.861   6.820  0.1357 -0.0742 -0.5011
   76SLPC   O22 6822   6.243   2.968   6.864  0.2311 -0.9513  0.2557
   76SLPC   C22 6823   6.372   2.763   6.878  0.5506 -0.6407  0.6621
   76SLPC   H2R 6824   6.327   2.663   6.898 -0.7636  0.3313  2.6927
   76SLPC   H2S 6825   6.451   2.744   6.801 -0.8919 -0.4134 -0.8863
   76SLPC    C3 6826   6.031   2.811   6.563 -0.9104 -0.4332 -0.0386
   76SLPC    HX 6827   6.086   2.777   6.473  0.0003  1.5932 -0.2571
   76SLPC    HY 6828   5.963   2.892   6.528 -0.3653 -0.0926 -0.3116
   76SLPC   O31 6829   5.970   2.707   6.642 -0.0846 -0.4314  0.0954
   76SLPC   C31 6830   5.996   2.582   6.597 -0.2404  0.1614 -0.4302
   76SLPC   O32 6831   6.083   2.556   6.514 -0.0620  0.0821 -0.2634
   76SLPC   C32 6832   5.910   2.476   6.668  0.3624  0.2709 -0.1082
   76SLPC   H2X 6833   5.907   2.391   6.596 -1.6691  1.6353 -1.6944
   76SLPC   H2Y 6834   5.806   2.507   6.692 -0.0124 -0.8688 -0.2104
   76SLPC   C23 6835   6.426   2.831   7.014  0.4136  0.7993 -1.0573
   76SLPC   H3R 6836   6.475   2.929   6.993  0.2155  1.1389  0.0264
   76SLPC   H3S 6837   6.515   2.769   7.039 -0.3695  0.2536  0.3874
   76SLPC   C24 6838   6.340   2.826   7.139  0.4653  0.2289 -0.7713
   76SLPC   H4R 6839   6.277   2.735   7.152  0.1881  0.6591  1.0490
   76SLPC   H4S 6840   6.260   2.902   7.142  2.6328  2.5417  0.1603
   76SLPC   C25 6841   6.418   2.854   7.266  0.2606  0.6373  0.3837
   76SLPC   H5R 6842   6.514   2.898   7.233 -0.5392  1.1668 -1.2519
   76SLPC   H5S 6843   6.440   2.756   7.315  0.0359  0.2612 -0.2666
   76SLPC   C26 6844   6.360   2.962   7.357  0.0966  0.7552  0.1727
   76SLPC   H6R 6845   6.249   2.955   7.367 -0.1277  0.1050 -2.4734
   76SLPC   H6S 6846   6.365   3.060   7.305  0.8065 -0.3395 -1.8490
   76SLPC   C27 6847   6.434   2.992   7.488  0.3185  0.4131 -1.0530
   76SLPC   H7R 6848   6.423   3.100   7.512  4.2117  1.1872 -2.3597
   76SLPC   H7S 6849   6.542   2.982   7.466  0.1897 -2.0638 -0.6551
   76SLPC   C28 6850   6.388   2.893   7.600  0.2861 -0.1949 -0.2624
   76SLPC   H8R 6851   6.278   2.903   7.612  0.2440 -1.0790  0.1087
   76SLPC   H8S 6852   6.420   2.793   7.564 -1.4684 -0.2822 -1.6680
   76SLPC   C29 6853   6.453   2.943   7.723  0.7221 -0.8262  0.5874
   76SLPC   H9R 6854   6.556   2.983   7.723  0.8897 -1.2637  1.4424
   76SLPC  C210 6855   6.384   2.941   7.838  0.2508 -0.5386 -0.4791
   76SLPC  H10R 6856   6.437   2.989   7.921  0.6573 -1.4898 -0.1896
   76SLPC  C211 6857   6.244   2.886   7.863  0.5636 -0.5519 -0.2797
   76SLPC  H11R 6858   6.236   2.826   7.956 -0.7362 -0.1353 -0.1259
   76SLPC  H11S 6859   6.222   2.807   7.787 -1.6972  0.2735 -0.5164
   76SLPC  C212 6860   6.140   2.995   7.873  0.4254  0.0223  0.5323
   76SLPC  H12R 6861   6.109   3.035   7.775 -0.3628 -2.0172 -0.0810
   76SLPC  C213 6862   6.085   3.048   7.983  0.0864 -0.4223 -0.1063
   76SLPC  H13R 6863   6.007   3.125   7.972  0.8894  0.3916 -0.1399
   76SLPC  C214 6864   6.135   3.012   8.122 -0.1171  0.4423 -0.0636
   76SLPC  H14R 6865   6.151   3.105   8.181  1.9615  0.2513 -0.3096
   76SLPC  H14S 6866   6.231   2.958   8.122 -1.1361 -1.4357  1.4071
   76SLPC  C215 6867   6.038   2.904   8.180  0.4502 -1.0848  0.4356
   76SLPC  H15R 6868   6.027   2.823   8.105  0.7411 -0.7255  0.0038
   76SLPC  H15S 6869   5.941   2.958   8.186  2.0302  1.7858  1.2792
   76SLPC  C216 6870   6.094   2.851   8.313  0.0995 -0.1486  0.3455
   76SLPC  H16R 6871   6.116   2.928   8.389  0.6778 -0.0870  0.1158
   76SLPC  H16S 6872   6.191   2.806   8.282 -1.0421 -2.9395  0.6844
   76SLPC  C217 6873   6.008   2.746   8.377  0.0631 -0.5342  0.0420
   76SLPC  H17R 6874   6.077   2.690   8.444  1.7138  1.1809 -0.1833
   76SLPC  H17S 6875   5.983   2.673   8.297 -0.1962 -0.7987  0.3614
   76SLPC  C218 6876   5.874   2.787   8.439  0.5341 -0.4648 -0.6169
   76SLPC  H18R 6877   5.824   2.693   8.472 -1.9408  0.3555 -1.9043
   76SLPC  H18S 6878   5.808   2.829   8.361  0.1820  0.0364 -0.0515
   76SLPC  H18T 6879   5.881   2.853   8.528  0.3576  0.6666 -1.4393
   76SLPC   C33 6880   5.988   2.421   6.792  0.4089 -0.1477 -0.1060
   76SLPC   H3X 6881   6.098   2.415   6.772  0.4879 -0.8339  0.4894
   76SLPC   H3Y 6882   5.936   2.325   6.812  1.9352 -1.2475 -1.3252
   76SLPC   C34 6883   5.951   2.497   6.922 -0.5722  0.1884  0.0650
   76SLPC   H4X 6884   5.844   2.513   6.946 -0.3199  1.7731  0.1763
   76SLPC   H4Y 6885   5.991   2.601   6.917 -1.5462  0.7054  2.2592
   76SLPC   C35 6886   6.009   2.420   7.036 -0.1722  0.3611  0.1738
   76SLPC   H5X 6887   6.115   2.403   7.009 -0.2490 -0.2784  0.2702
   76SLPC   H5Y 6888   5.956   2.322   7.044  0.2532  0.1287  0.1555
   76SLPC   C36 6889   5.982   2.494   7.167  0.0326 -0.2950 -0.6765
   76SLPC   H6X 6890   5.874   2.519   7.175  0.0827 -0.0165 -0.8960
   76SLPC   H6Y 6891   6.046   2.584   7.173  1.6087 -1.5693  2.6589
   76SLPC   C37 6892   6.019   2.404   7.285 -0.0675 -0.3249 -0.3287
   76SLPC   H7X 6893   6.114   2.347   7.274  0.2355  0.2721 -0.8165
   76SLPC   H7Y 6894   5.933   2.335   7.294 -0.8186  0.5929 -0.3342
   76SLPC   C38 6895   6.033   2.470   7.421 -0.7139  0.6789  0.2885
   76SLPC   H8X 6896   5.937   2.509   7.461 -0.0691  2.6366  0.0005
   76SLPC   H8Y 6897   6.094   2.561   7.401  1.9316 -1.1909 -0.3210
   76SLPC   C39 6898   6.101   2.387   7.527 -0.7638 -0.6049  0.3073
   76SLPC   H9X 6899   6.171   2.312   7.483  1.8464  1.6007  0.5920
   76SLPC   H9Y 6900   6.025   2.322   7.576  0.2882 -2.6867 -0.7247
   76SLPC  C310 6901   6.169   2.467   7.641  0.4072 -0.0147  0.5276
   76SLPC  H10X 6902   6.103   2.552   7.665 -0.7895 -0.9074  0.4503
   76SLPC  H10Y 6903   6.269   2.500   7.607  0.0066  0.9153  0.2488
   76SLPC  C311 6904   6.184   2.395   7.774  0.3752  0.3063 -0.6103
   76SLPC  H11X 6905   6.244   2.302   7.778 -1.9425 -1.1794  0.9454
   76SLPC  H11Y 6906   6.086   2.377   7.823  1.1328  0.1528  0.8742
   76SLPC  C312 6907   6.253   2.488   7.884  0.3006  0.0944  0.2603
   76SLPC  H12X 6908   6.203   2.587   7.888 -0.3847 -0.2861  1.4662
   76SLPC  H12Y 6909   6.353   2.516   7.843 -0.3180  0.2553 -1.1649
   76SLPC  C313 6910   6.262   2.428   8.018  0.4250  0.1018  0.2906
   76SLPC  H13X 6911   6.317   2.332   8.014 -4.0702 -2.6044 -0.9147
   76SLPC  H13Y 6912   6.161   2.399   8.054  0.1216  1.0209  0.1955
   76SLPC  C314 6913   6.329   2.522   8.119 -0.3003 -0.1717 -1.0729
   76SLPC  H14X 6914   6.288   2.496   8.219 -0.8989  1.3381 -0.9023
   76SLPC  H14Y 6915   6.276   2.619   8.110 -2.9170 -1.3008  1.3162
   76SLPC  C315 6916   6.478   2.531   8.129 -1.1354 -0.1946 -0.5190
   76SLPC  H15X 6917   6.519   2.572   8.034 -1.7683 -1.0217 -1.1607
   76SLPC  H15Y 6918   6.518   2.430   8.152  0.0309  0.3222 -0.2687
   76SLPC  C316 6919   6.535   2.643   8.223 -0.6698 -0.3616  0.0320
   76SLPC  H16X 6920   6.644   2.633   8.237 -0.2699 -0.4710 -2.7500
   76SLPC  H16Y 6921   6.494   2.627   8.325 -1.4771  0.1352 -0.2143
   76SLPC  C317 6922   6.504   2.782   8.173 -0.0710  0.1886 -0.4541
   76SLPC  H17X 6923   6.397   2.793   8.144  0.1687 -0.2176 -1.5325
   76SLPC  H17Y 6924   6.555   2.780   8.074  0.0562 -0.0410 -0.3863
   76SLPC  C318 6925   6.563   2.902   8.258  0.0210 -0.5192  0.4639
   76SLPC  H18X 6926   6.523   3.003   8.235 -0.0028 -0.7184 -0.3742
   76SLPC  H18Y 6927   6.674   2.897   8.255  0.0192  0.0785 -1.5110
   76SLPC  H18Z 6928   6.537   2.879   8.363 -0.0982 -1.3854  0.2489
   77SLPC     N 6929   1.139   2.269   6.482 -0.1102  0.4703  0.4123
   77SLPC   C13 6930   1.079   2.139   6.530 -0.4330 -0.4015  0.0033
   77SLPC  H13A 6931   1.061   2.141   6.637  2.9720 -1.0452  0.6453
   77SLPC  H13B 6932   0.982   2.117   6.488 -1.8655  3.6103  0.9447
   77SLPC  H13C 6933   1.146   2.055   6.520 -0.4435 -0.4097  0.0002
   77SLPC   C14 6934   1.262   2.287   6.560 -0.2500 -0.7154 -0.2908
   77SLPC  H14A 6935   1.240   2.299   6.665 -1.0456 -1.9990 -0.3024
   77SLPC  H14B 6936   1.326   2.200   6.556 -1.3444 -1.5036 -0.8653
   77SLPC  H14C 6937   1.316   2.373   6.523 -2.2735 -0.5162 -2.9269
   77SLPC   C15 6938   1.049   2.380   6.522 -0.3794  0.5152  0.4609
   77SLPC  H15A 6939   0.949   2.358   6.488 -0.3246 -0.2458  0.7638
   77SLPC  H15B 6940   1.035   2.398   6.628  0.0034 -0.6993  0.7304
   77SLPC  H15C 6941   1.082   2.475   6.483 -0.4600  1.6060  2.9703
   77SLPC   C12 6942   1.163   2.265   6.334  0.7257 -0.0439 -0.0562
   77SLPC  H12A 6943   1.218   2.349   6.294 -0.8318  1.6094  1.1808
   77SLPC  H12B 6944   1.068   2.258   6.283 -0.0965  2.6635  0.9952
   77SLPC   C11 6945   1.246   2.143   6.275  0.7444  0.4703 -0.1870
   77SLPC  H11A 6946   1.233   2.154   6.165 -1.6136 -1.9842 -0.2178
   77SLPC  H11B 6947   1.199   2.046   6.300 -0.7114  1.5784  1.4851
   77SLPC     P 6948   1.456   2.042   6.389 -0.3454  0.4154 -0.3586
   77SLPC   O13 6949   1.352   1.956   6.452 -0.5179 -0.1104  0.3729
   77SLPC   O14 6950   1.556   1.969   6.310  0.4100  0.1125 -0.1169
   77SLPC   O12 6951   1.381   2.154   6.308 -0.2159  0.4592  0.2334
   77SLPC   O11 6952   1.525   2.134   6.496  0.4314  0.0506 -0.0829
   77SLPC    C1 6953   1.648   2.198   6.492  0.1990  0.1324 -0.1551
   77SLPC    HA 6954   1.702   2.176   6.397 -0.7079 -2.1679 -0.1542
   77SLPC    HB 6955   1.638   2.308   6.502 -0.9093  0.0353 -0.2125
   77SLPC    C2 6956   1.740   2.142   6.600 -0.0266 -0.5851  0.1228
   77SLPC    HS 6957   1.770   2.038   6.577 -2.4884 -1.3818  0.4516
   77SLPC   O21 6958   1.669   2.153   6.730  0.2055 -1.0523  0.0047
   77SLPC   C21 6959   1.657   2.031   6.792  0.0380 -0.4098 -0.7279
   77SLPC   O22 6960   1.705   1.926   6.754 -0.5289  0.4385 -0.2391
   77SLPC   C22 6961   1.558   2.033   6.907 -0.6336 -0.0385 -0.5199
   77SLPC   H2R 6962   1.538   2.138   6.937  2.0166  0.6521 -1.1412
   77SLPC   H2S 6963   1.467   1.989   6.860 -0.6959  0.3036 -0.7235
   77SLPC    C3 6964   1.883   2.213   6.612 -0.9006  0.0483 -0.5798
   77SLPC    HX 6965   1.867   2.323   6.617  1.0256  0.2827  1.4912
   77SLPC    HY 6966   1.960   2.195   6.534  0.0042  1.2784  0.0018
   77SLPC   O31 6967   1.945   2.184   6.743 -0.3640 -0.0604  0.0798
   77SLPC   C31 6968   1.991   2.061   6.766  0.5538 -0.1311 -0.7603
   77SLPC   O32 6969   1.988   1.970   6.685 -0.1263  0.0389  0.0883
   77SLPC   C32 6970   2.032   2.053   6.907 -0.2853  0.3193  0.0796
   77SLPC   H2X 6971   1.970   2.118   6.972 -2.2067 -2.2718  0.9201
   77SLPC   H2Y 6972   2.135   2.095   6.906  1.0983 -2.9426 -0.4561
   77SLPC   C23 6973   1.607   1.960   7.038 -0.3973 -0.7083 -0.7318
   77SLPC   H3R 6974   1.699   2.004   7.081  0.5545 -2.8083 -0.5576
   77SLPC   H3S 6975   1.644   1.860   7.008  1.0577 -0.5742  0.5996
   77SLPC   C24 6976   1.494   1.957   7.140 -0.1874 -0.0730 -0.2369
   77SLPC   H4R 6977   1.437   1.864   7.122  1.7173 -1.4571  0.7359
   77SLPC   H4S 6978   1.422   2.034   7.105  0.7390 -0.2888 -2.6520
   77SLPC   C25 6979   1.524   1.967   7.296 -0.6238 -1.2381  0.2660
   77SLPC   H5R 6980   1.601   2.045   7.311  0.7807 -2.9442  2.3578
   77SLPC   H5S 6981   1.578   1.875   7.329  0.5623 -0.2931  0.9875
   77SLPC   C26 6982   1.408   2.000   7.384 -0.2377 -0.0756 -0.2118
   77SLPC   H6R 6983   1.318   1.936   7.368 -0.0305 -0.5061  0.3225
   77SLPC   H6S 6984   1.383   2.105   7.361 -0.5493  0.2028  1.3222
   77SLPC   C27 6985   1.454   2.006   7.527  0.1261 -0.6621 -0.3642
   77SLPC   H7R 6986   1.545   2.070   7.528  0.4321 -1.0956 -0.2104
   77SLPC   H7S 6987   1.486   1.907   7.567 -0.8152 -0.9447 -0.3112
   77SLPC   C28 6988   1.345   2.050   7.626 -0.3015  0.0112 -0.6271
   77SLPC   H8R 6989   1.266   1.972   7.631  0.7519 -1.0395  0.0190
   77SLPC   H8S 6990   1.292   2.136   7.580  3.0492  2.8196  0.4644
   77SLPC   C29 6991   1.385   2.083   7.766 -0.0497 -0.2880 -0.5240
   77SLPC   H9R 6992   1.437   2.001   7.818  0.4461 -1.0405 -2.1696
   77SLPC  C210 6993   1.333   2.190   7.827  0.6399 -0.3591 -0.5951
   77SLPC  H10R 6994   1.364   2.204   7.932  4.3829  1.4825 -1.8492
   77SLPC  C211 6995   1.232   2.291   7.771  0.3006  0.1538  0.1537
   77SLPC  H11R 6996   1.129   2.253   7.783  1.0846 -1.4839  2.0115
   77SLPC  H11S 6997   1.249   2.315   7.664 -0.9456 -2.1372 -0.5756
   77SLPC  C212 6998   1.242   2.423   7.832  0.0078 -0.0704  0.2828
   77SLPC  H12R 6999   1.241   2.503   7.756  0.8633  0.6708  1.0485
   77SLPC  C213 7000   1.222   2.463   7.960  0.8519  0.4685  0.2018
   77SLPC  H13R 7001   1.207   2.568   7.990  0.9059  0.9513 -1.4150
   77SLPC  C214 7002   1.192   2.370   8.076 -0.0060  0.1588 -0.3424
   77SLPC  H14R 7003   1.163   2.271   8.035 -0.1949 -0.2038  0.6367
   77SLPC  H14S 7004   1.119   2.424   8.141  0.5870 -0.6737  1.0429
   77SLPC  C215 7005   1.314   2.352   8.173 -0.9750 -0.4242 -1.1412
   77SLPC  H15R 7006   1.334   2.456   8.206  3.0467 -1.6114  0.4471
   77SLPC  H15S 7007   1.406   2.304   8.131  0.2621  0.8263  0.1070
   77SLPC  C216 7008   1.292   2.266   8.295  0.5957  0.5421  0.4920
   77SLPC  H16R 7009   1.263   2.166   8.259 -0.7703  0.6173  1.3546
   77SLPC  H16S 7010   1.205   2.308   8.351 -0.9343 -1.6481 -0.1899
   77SLPC  C217 7011   1.416   2.266   8.379  0.4518 -0.6473  0.7972
   77SLPC  H17R 7012   1.442   2.373   8.393 -0.0623 -0.4325  0.1560
   77SLPC  H17S 7013   1.498   2.214   8.326 -0.1943 -1.0518  0.1769
   77SLPC  C218 7014   1.408   2.210   8.515  0.4116  0.1303 -0.1048
   77SLPC  H18R 7015   1.497   2.222   8.581 -2.2810 -0.3407  3.8052
   77SLPC  H18S 7016   1.385   2.101   8.509  1.1461  0.0698 -1.8835
   77SLPC  H18T 7017   1.326   2.273   8.555 -0.4567 -0.4695 -0.9120
   77SLPC   C33 7018   2.032   1.908   6.965 -0.4970 -0.2782 -0.1733
   77SLPC   H3X 7019   2.107   1.855   6.904  1.7662  1.5029  1.0034
   77SLPC   H3Y 7020   1.932   1.861   6.949 -1.2184 -0.9192  5.0435
   77SLPC   C34 7021   2.057   1.899   7.120 -0.0550  0.1213  0.2515
   77SLPC   H4X 7022   1.976   1.958   7.168  1.1299  0.3107  2.1102
   77SLPC   H4Y 7023   2.150   1.956   7.143 -0.4156  0.6620  0.3874
   77SLPC   C35 7024   2.068   1.757   7.178  0.8627 -0.5291 -0.4958
   77SLPC   H5X 7025   2.150   1.700   7.129  1.7075 -1.3851  1.8404
   77SLPC   H5Y 7026   1.979   1.691   7.170  1.3881 -1.2057 -0.8243
   77SLPC   C36 7027   2.090   1.771   7.333 -0.4396  0.0794  0.0459
   77SLPC   H6X 7028   2.001   1.817   7.381  0.8367 -0.4765  3.0041
   77SLPC   H6Y 7029   2.180   1.835   7.338 -0.6978  0.4296  0.3096
   77SLPC   C37 7030   2.119   1.634   7.394 -0.1199 -0.2431  0.3281
   77SLPC   H7X 7031   2.218   1.596   7.362 -0.0366 -0.3448  0.6994
   77SLPC   H7Y 7032   2.033   1.580   7.349 -2.3330  1.0348  2.7985
   77SLPC   C38 7033   2.105   1.620   7.546 -0.2823  0.7985 -0.4800
   77SLPC   H8X 7034   2.000   1.652   7.562 -0.6626 -1.2948  1.3633
   77SLPC   H8Y 7035   2.174   1.690   7.597  0.6909  0.2133 -0.9757
   77SLPC   C39 7036   2.124   1.478   7.602 -0.2776  0.3094  0.3381
   77SLPC   H9X 7037   2.228   1.441   7.610  0.2331  2.1727  2.7467
   77SLPC   H9Y 7038   2.068   1.397   7.549  2.4073 -2.1722  1.1601
   77SLPC  C310 7039   2.079   1.484   7.747 -0.2459 -0.5231 -0.3417
   77SLPC  H10X 7040   1.976   1.525   7.752  0.1275  0.4093 -0.0297
   77SLPC  H10Y 7041   2.150   1.554   7.796 -0.9921  0.2766 -0.3901
   77SLPC  C311 7042   2.066   1.354   7.821 -0.1995 -0.0467 -0.0793
   77SLPC  H11X 7043   2.165   1.313   7.851 -0.2729  0.1664  0.4486
   77SLPC  H11Y 7044   2.028   1.281   7.746 -1.2853 -0.2231  0.6395
   77SLPC  C312 7045   1.984   1.366   7.957  0.7003 -0.2191  0.1164
   77SLPC  H12X 7046   1.962   1.261   7.985  3.0923 -0.8805 -0.3738
   77SLPC  H12Y 7047   1.896   1.429   7.933 -0.8453 -3.0647 -2.0339
   77SLPC  C313 7048   2.050   1.432   8.078 -0.5691  0.0633 -0.5255
   77SLPC  H13X 7049   2.101   1.524   8.045  1.1266  0.1246  2.1426
   77SLPC  H13Y 7050   2.118   1.356   8.120  1.5001  1.4948 -1.2303
   77SLPC  C314 7051   1.946   1.476   8.181 -0.4964  0.0695 -0.0869
   77SLPC  H14X 7052   1.882   1.386   8.197  0.8060 -1.3807 -2.8724
   77SLPC  H14Y 7053   1.874   1.555   8.151  1.0904  0.8834 -1.8002
   77SLPC  C315 7054   2.005   1.497   8.315  0.5228  0.2404  0.1564
   77SLPC  H15X 7055   2.010   1.401   8.371 -0.1942  0.2055  0.1678
   77SLPC  H15Y 7056   1.932   1.547   8.382  1.3301 -0.0680  1.2751
   77SLPC  C316 7057   2.142   1.562   8.328 -0.7852 -0.1916  0.4429
   77SLPC  H16X 7058   2.145   1.658   8.271 -2.2387 -0.2664  0.2327
   77SLPC  H16Y 7059   2.220   1.496   8.284 -0.5243  0.5707 -0.2483
   77SLPC  C317 7060   2.185   1.584   8.468 -0.1006 -0.6249  0.5138
   77SLPC  H17X 7061   2.294   1.607   8.462 -0.5107  1.6487  1.3727
   77SLPC  H17Y 7062   2.159   1.494   8.527  0.1984 -1.2347 -0.2785
   77SLPC  C318 7063   2.122   1.707   8.525  0.2710  0.1774  0.4207
   77SLPC  H18X 7064   2.164   1.735   8.624  0.5585  1.0872  0.0475
   77SLPC  H18Y 7065   2.016   1.688   8.551  0.0192  0.6328 -0.2563
   77SLPC  H18Z 7066   2.117   1.793   8.455 -1.3809 -0.4466 -0.2493
   78SLPC     N 7067   3.929   2.727   5.922 -0.1477  0.8430  0.0405
   78SLPC   C13 7068   3.931   2.841   5.825  0.6119  0.4275 -0.7597
   78SLPC  H13A 7069   3.976   2.816   5.730 -0.2183  0.3691 -1.1386
   78SLPC  H13B 7070   3.828   2.874   5.825  0.3221 -0.3912  0.8213
   78SLPC  H13C 7071   3.989   2.927   5.858  0.7558  1.1833 -2.9452
   78SLPC   C14 7072   4.066   2.662   5.938 -0.2237 -0.5476 -0.9968
   78SLPC  H14A 7073   4.136   2.745   5.934 -2.2879  1.2408 -0.5321
   78SLPC  H14B 7074   4.063   2.594   6.021  2.4630 -0.2790 -0.6335
   78SLPC  H14C 7075   4.072   2.603   5.847  3.7055 -0.4462 -0.9043
   78SLPC   C15 7076   3.824   2.630   5.892  0.4628  0.7049  0.4102
   78SLPC  H15A 7077   3.831   2.602   5.788 -0.1125  2.1950 -0.0508
   78SLPC  H15B 7078   3.818   2.545   5.958  2.2624  0.3839  0.1875
   78SLPC  H15C 7079   3.725   2.674   5.894 -0.9361 -2.1354 -2.1256
   78SLPC   C12 7080   3.894   2.795   6.060  0.0077 -0.3089 -0.0651
   78SLPC  H12A 7081   3.977   2.857   6.090 -0.3136  0.6860 -1.1713
   78SLPC  H12B 7082   3.902   2.714   6.131  2.5896 -2.0063 -2.1882
   78SLPC   C11 7083   3.764   2.878   6.084  0.3415  0.4501  0.7890
   78SLPC  H11A 7084   3.760   2.969   6.020  1.2480  0.4941  0.7823
   78SLPC  H11B 7085   3.780   2.918   6.186 -2.6335  0.4061  1.3079
   78SLPC     P 7086   3.577   2.709   6.172  0.0940 -0.6094  0.4154
   78SLPC   O13 7087   3.493   2.806   6.246  0.1848 -0.4211 -0.1189
   78SLPC   O14 7088   3.503   2.585   6.133 -0.3126 -0.2543 -0.6424
   78SLPC   O12 7089   3.649   2.792   6.060 -0.4753 -0.4237 -0.3070
   78SLPC   O11 7090   3.693   2.671   6.263 -0.2693 -0.0065 -0.0239
   78SLPC    C1 7091   3.680   2.573   6.371  0.8103  0.7158 -0.4727
   78SLPC    HA 7092   3.574   2.544   6.385  0.6628  2.3704  2.1317
   78SLPC    HB 7093   3.752   2.491   6.351 -0.8280 -0.9449  0.2783
   78SLPC    C2 7094   3.722   2.627   6.514 -0.5136  0.2004 -0.2154
   78SLPC    HS 7095   3.733   2.536   6.576 -0.7522 -0.1234 -0.6454
   78SLPC   O21 7096   3.638   2.725   6.570  0.8660  0.6071 -0.1574
   78SLPC   C21 7097   3.504   2.707   6.607  0.0986  0.9983 -0.7697
   78SLPC   O22 7098   3.451   2.600   6.603 -0.6670  0.3428  0.2227
   78SLPC   C22 7099   3.440   2.828   6.675 -0.2128  0.6263  0.5018
   78SLPC   H2R 7100   3.394   2.894   6.598 -0.0961  1.3037  1.0101
   78SLPC   H2S 7101   3.357   2.786   6.736 -0.1347 -0.3275 -0.0337
   78SLPC    C3 7102   3.867   2.685   6.511 -0.0124 -0.2330  0.2820
   78SLPC    HX 7103   3.884   2.764   6.434  0.1565 -0.4127  0.1342
   78SLPC    HY 7104   3.927   2.609   6.456  0.9133  0.7493 -0.1002
   78SLPC   O31 7105   3.929   2.708   6.638  0.2599 -0.2579 -0.2297
   78SLPC   C31 7106   3.917   2.829   6.677  0.3952  0.1843 -0.0713
   78SLPC   O32 7107   3.838   2.912   6.628  0.0787 -0.1693 -0.0841
   78SLPC   C32 7108   4.008   2.865   6.795  0.1389  0.5372  0.0015
   78SLPC   H2X 7109   4.055   2.962   6.768  0.4884  0.7133  1.2058
   78SLPC   H2Y 7110   4.082   2.782   6.793 -0.5731 -0.0882 -0.4320
   78SLPC   C23 7111   3.531   2.900   6.771  0.4377  0.2228 -0.1487
   78SLPC   H3R 7112   3.577   2.984   6.714 -0.9432  0.5268 -0.8403
   78SLPC   H3S 7113   3.616   2.843   6.813  2.8858  3.3240 -0.7275
   78SLPC   C24 7114   3.447   2.956   6.890 -0.0911  0.0734  0.2334
   78SLPC   H4R 7115   3.390   2.869   6.929  0.9823  0.1626  2.0702
   78SLPC   H4S 7116   3.379   3.028   6.839  1.1333  0.0252 -1.5317
   78SLPC   C25 7117   3.538   3.024   6.999  0.2924 -0.0925  0.4317
   78SLPC   H5R 7118   3.506   3.127   7.024  0.5407  0.0726  0.0768
   78SLPC   H5S 7119   3.644   3.043   6.970 -0.1532  1.8791  0.0459
   78SLPC   C26 7120   3.544   2.951   7.131 -1.0645  0.8791  0.3053
   78SLPC   H6R 7121   3.571   2.845   7.117 -0.0737  1.3536 -1.5291
   78SLPC   H6S 7122   3.443   2.939   7.177 -0.5157 -0.2902  1.2403
   78SLPC   C27 7123   3.632   3.020   7.224 -0.5142 -0.1219  0.5014
   78SLPC   H7R 7124   3.584   3.112   7.264 -0.9160 -1.2366  2.6906
   78SLPC   H7S 7125   3.728   3.048   7.177  0.0211 -1.2916  0.8925
   78SLPC   C28 7126   3.669   2.919   7.335 -1.3313  0.4382  0.2814
   78SLPC   H8R 7127   3.719   2.833   7.284 -0.8932 -0.3295  1.9806
   78SLPC   H8S 7128   3.577   2.890   7.388 -2.4489  2.5802 -0.4220
   78SLPC   C29 7129   3.783   2.967   7.428 -0.4676 -0.0821 -0.0214
   78SLPC   H9R 7130   3.861   3.026   7.378 -0.6758 -1.9855 -2.6545
   78SLPC  C210 7131   3.797   2.934   7.557  0.2966  0.4303  0.2269
   78SLPC  H10R 7132   3.889   2.970   7.605  0.5326 -0.0510  0.1406
   78SLPC  C211 7133   3.709   2.850   7.648 -0.0983 -0.3188  0.0388
   78SLPC  H11R 7134   3.602   2.837   7.621 -0.6067 -2.1313  2.7555
   78SLPC  H11S 7135   3.701   2.889   7.752  0.9560 -1.1665  0.4450
   78SLPC  C212 7136   3.775   2.718   7.666 -0.1854  0.1434  0.2056
   78SLPC  H12R 7137   3.849   2.716   7.747 -1.0672  0.9343  1.0317
   78SLPC  C213 7138   3.764   2.604   7.597 -0.6132  0.4696  0.2527
   78SLPC  H13R 7139   3.834   2.524   7.628  0.2084  0.8245 -0.6633
   78SLPC  C214 7140   3.658   2.572   7.482 -0.3912 -0.1925 -0.0028
   78SLPC  H14R 7141   3.573   2.642   7.495 -2.2990 -2.4875  0.3672
   78SLPC  H14S 7142   3.612   2.472   7.500 -3.4979  1.0166 -0.9887
   78SLPC  C215 7143   3.715   2.561   7.341  0.4071 -0.3949 -0.1323
   78SLPC  H15R 7144   3.784   2.474   7.335 -0.7539 -1.2567 -1.5856
   78SLPC  H15S 7145   3.766   2.655   7.313 -2.9682  1.4217 -0.5446
   78SLPC  C216 7146   3.604   2.517   7.240  0.1305 -0.2873 -0.6358
   78SLPC  H16R 7147   3.523   2.592   7.247  0.4568 -0.0475  0.7475
   78SLPC  H16S 7148   3.562   2.420   7.272  0.4499  0.0059  0.6850
   78SLPC  C217 7149   3.644   2.518   7.091 -0.5321 -0.5961  0.6885
   78SLPC  H17R 7150   3.713   2.433   7.071 -0.0154 -0.2049  0.8168
   78SLPC  H17S 7151   3.706   2.605   7.062 -2.2540 -0.0054 -1.3355
   78SLPC  C218 7152   3.528   2.524   6.995 -0.5747  0.3907  0.7320
   78SLPC  H18R 7153   3.453   2.442   6.990  0.4472 -0.4569 -1.4495
   78SLPC  H18S 7154   3.572   2.540   6.894  1.1425  2.1220  1.7195
   78SLPC  H18T 7155   3.471   2.613   7.028  1.0222  2.6085 -2.2021
   78SLPC   C33 7156   3.921   2.880   6.924 -1.0710  0.0855  0.0204
   78SLPC   H3X 7157   3.840   2.804   6.925 -0.8908 -0.1065  0.0623
   78SLPC   H3Y 7158   3.876   2.981   6.924 -3.8134 -1.0848 -0.3673
   78SLPC   C34 7159   4.001   2.854   7.053  0.6937  1.2174  0.0888
   78SLPC   H4X 7160   3.934   2.884   7.138  1.1489 -4.6147  2.7246
   78SLPC   H4Y 7161   4.086   2.925   7.044 -0.2022  2.3058  0.0801
   78SLPC   C35 7162   4.040   2.710   7.079  0.3227 -0.0911  0.1572
   78SLPC   H5X 7163   4.083   2.677   6.982  0.5144  0.0157  0.2061
   78SLPC   H5Y 7164   3.944   2.659   7.105  0.2658 -0.6283 -1.0875
   78SLPC   C36 7165   4.125   2.681   7.206 -0.0886  0.8031 -0.2580
   78SLPC   H6X 7166   4.147   2.573   7.199  1.8865  1.2256 -0.9031
   78SLPC   H6Y 7167   4.075   2.694   7.305 -0.6421  3.0093 -0.7861
   78SLPC   C37 7168   4.262   2.755   7.212  0.4031  0.7219 -0.1615
   78SLPC   H7X 7169   4.275   2.808   7.115  2.2494 -2.1526 -1.5816
   78SLPC   H7Y 7170   4.336   2.672   7.214 -0.7275 -0.2629  2.9949
   78SLPC   C38 7171   4.271   2.848   7.336 -0.0119  0.0792 -0.2734
   78SLPC   H8X 7172   4.166   2.868   7.368  0.3346  1.3404  0.1109
   78SLPC   H8Y 7173   4.306   2.947   7.299  1.1339 -0.3592 -0.3672
   78SLPC   C39 7174   4.354   2.806   7.455 -0.0888  0.0293  0.4618
   78SLPC   H9X 7175   4.464   2.806   7.435 -0.1278 -2.8302  0.1486
   78SLPC   H9Y 7176   4.336   2.698   7.467 -1.0563  0.0661 -0.6304
   78SLPC  C310 7177   4.341   2.896   7.581  0.5738  0.5139  0.3485
   78SLPC  H10X 7178   4.235   2.927   7.590  0.3303 -0.1982 -0.0154
   78SLPC  H10Y 7179   4.412   2.981   7.581  0.5615  0.5788  2.6992
   78SLPC  C311 7180   4.400   2.830   7.710  0.3087  0.5792 -0.3870
   78SLPC  H11X 7181   4.504   2.803   7.685 -0.2809 -1.7730 -0.3977
   78SLPC  H11Y 7182   4.356   2.731   7.735 -0.4539  1.0519  0.1640
   78SLPC  C312 7183   4.386   2.920   7.831 -0.3057 -0.4853 -0.3291
   78SLPC  H12X 7184   4.277   2.919   7.853 -0.2382 -2.3820  0.0275
   78SLPC  H12Y 7185   4.416   3.025   7.813 -3.2751  0.3889 -0.5459
   78SLPC  C313 7186   4.457   2.870   7.955 -0.2982 -0.5499  0.0957
   78SLPC  H13X 7187   4.567   2.866   7.936 -0.1520  0.8614  0.6043
   78SLPC  H13Y 7188   4.418   2.769   7.979 -1.6313  0.2325  1.2592
   78SLPC  C314 7189   4.411   2.961   8.077  0.9039  1.1592 -0.1227
   78SLPC  H14X 7190   4.303   2.987   8.078  0.7785  0.7406 -1.4720
   78SLPC  H14Y 7191   4.461   3.060   8.074  0.6835  1.2422 -1.2717
   78SLPC  C315 7192   4.454   2.905   8.219 -0.1692  0.1929 -0.3917
   78SLPC  H15X 7193   4.385   2.820   8.239  0.5919 -0.5024 -0.6963
   78SLPC  H15Y 7194   4.429   2.984   8.293  0.0039 -0.3906  0.3039
   78SLPC  C316 7195   4.600   2.859   8.230  0.7295 -0.0466 -0.0112
   78SLPC  H16X 7196   4.663   2.939   8.185 -0.9187  0.1867 -2.0070
   78SLPC  H16Y 7197   4.616   2.767   8.170 -1.6082 -0.9676  0.7161
   78SLPC  C317 7198   4.640   2.827   8.374  0.5192  0.2028 -0.5585
   78SLPC  H17X 7199   4.641   2.923   8.430 -1.8309 -0.5563  0.8636
   78SLPC  H17Y 7200   4.747   2.798   8.373  0.9476  1.5844  1.7274
   78SLPC  C318 7201   4.548   2.721   8.448  0.3062 -0.1660 -0.3179
   78SLPC  H18X 7202   4.602   2.676   8.534  0.8437 -0.0862 -0.6089
   78SLPC  H18Y 7203   4.516   2.639   8.380  1.1265 -0.7390 -0.0164
   78SLPC  H18Z 7204   4.451   2.765   8.479  0.5240  1.8895 -2.3605
   79SLPC     N 7205   2.097   5.576   6.285  0.1098 -0.0028 -0.0648
   79SLPC   C13 7206   2.080   5.715   6.328 -0.2639 -0.6640 -0.5584
   79SLPC  H13A 7207   2.156   5.779   6.287  0.8905 -1.9349 -0.4529
   79SLPC  H13B 7208   1.984   5.760   6.309  0.6030  1.2191 -0.5847
   79SLPC  H13C 7209   2.088   5.724   6.435 -1.4515  1.2815 -0.6128
   79SLPC   C14 7210   2.243   5.568   6.278  0.2457  1.0817  0.6332
   79SLPC  H14A 7211   2.285   5.642   6.211 -1.4551  0.2107 -1.4634
   79SLPC  H14B 7212   2.299   5.572   6.370  1.6653 -2.0909 -0.0403
   79SLPC  H14C 7213   2.275   5.473   6.237 -0.7800  1.5358 -1.2638
   79SLPC   C15 7214   2.037   5.551   6.146  0.4968 -0.7118 -0.2528
   79SLPC  H15A 7215   1.929   5.552   6.154  0.2285 -1.5548 -3.2074
   79SLPC  H15B 7216   2.080   5.620   6.075 -2.3409  1.5620  0.1551
   79SLPC  H15C 7217   2.069   5.454   6.111  0.5992 -0.6337 -0.3713
   79SLPC   C12 7218   2.051   5.480   6.391  0.5477 -0.2184 -0.0722
   79SLPC  H12A 7219   2.119   5.493   6.474  0.8241 -0.5708 -0.2409
   79SLPC  H12B 7220   2.054   5.377   6.360  0.0921  0.0342 -0.9745
   79SLPC   C11 7221   1.905   5.498   6.447 -0.3423  0.5274  0.6993
   79SLPC  H11A 7222   1.886   5.583   6.516 -0.8435  0.1618  1.0184
   79SLPC  H11B 7223   1.895   5.415   6.520  0.2936 -1.9340 -1.9500
   79SLPC     P 7224   1.738   5.366   6.295 -0.0256 -0.1623  0.1885
   79SLPC   O13 7225   1.621   5.399   6.206  0.3584 -0.1845  0.4810
   79SLPC   O14 7226   1.845   5.283   6.233 -0.1318  0.1224 -0.7196
   79SLPC   O12 7227   1.807   5.500   6.344  0.1936 -0.6361 -0.4125
   79SLPC   O11 7228   1.690   5.295   6.430 -0.1356  0.1491  0.4842
   79SLPC    C1 7229   1.556   5.315   6.478 -0.1856 -0.5421  0.3414
   79SLPC    HA 7230   1.479   5.311   6.398 -0.6216 -1.0648  0.7848
   79SLPC    HB 7231   1.535   5.232   6.549  1.2717 -0.3676  0.9987
   79SLPC    C2 7232   1.543   5.443   6.556 -0.6955  0.2324 -1.1852
   79SLPC    HS 7233   1.558   5.530   6.488  0.0419  2.2449  1.4566
   79SLPC   O21 7234   1.639   5.446   6.664  0.5907 -0.4203  0.3972
   79SLPC   C21 7235   1.683   5.568   6.715  0.0300 -0.2813  0.4773
   79SLPC   O22 7236   1.650   5.678   6.672 -0.0384  0.5542 -0.1336
   79SLPC   C22 7237   1.764   5.532   6.842 -0.0645  0.4892 -0.0889
   79SLPC   H2R 7238   1.696   5.478   6.911  3.3951 -3.5352  0.4003
   79SLPC   H2S 7239   1.847   5.462   6.816 -0.4324 -0.7174  1.8452
   79SLPC    C3 7240   1.398   5.464   6.617 -0.5560 -0.3705  0.0539
   79SLPC    HX 7241   1.336   5.464   6.524  2.0365 -0.0693 -1.7269
   79SLPC    HY 7242   1.379   5.569   6.646  0.3682 -0.7641  2.1584
   79SLPC   O31 7243   1.362   5.362   6.712  0.1494  0.5114  0.2219
   79SLPC   C31 7244   1.364   5.401   6.836  0.3503  0.4139  0.4979
   79SLPC   O32 7245   1.358   5.518   6.867  0.1789  0.4624  0.4785
   79SLPC   C32 7246   1.364   5.283   6.940  0.3436 -0.3650  0.2254
   79SLPC   H2X 7247   1.424   5.203   6.891 -1.8336 -1.7511 -0.2050
   79SLPC   H2Y 7248   1.259   5.249   6.942 -0.1027  0.9798  0.0236
   79SLPC   C23 7249   1.831   5.659   6.911 -0.1931 -0.1155  0.3189
   79SLPC   H3R 7250   1.756   5.739   6.929  1.8654  1.7462  0.8615
   79SLPC   H3S 7251   1.906   5.705   6.843 -1.4976 -1.3602 -2.0419
   79SLPC   C24 7252   1.891   5.629   7.049 -0.0574  0.6689  0.5578
   79SLPC   H4R 7253   1.945   5.721   7.079 -0.3635  0.6244  1.2583
   79SLPC   H4S 7254   1.962   5.546   7.027 -2.6597 -1.4126 -0.2693
   79SLPC   C25 7255   1.795   5.583   7.159  0.7275  0.2267 -0.6150
   79SLPC   H5R 7256   1.755   5.479   7.163 -2.1593  1.2112 -2.1338
   79SLPC   H5S 7257   1.710   5.653   7.147  1.2634  0.9402 -0.2557
   79SLPC   C26 7258   1.840   5.606   7.304 -0.5928 -0.3166 -0.2489
   79SLPC   H6R 7259   1.859   5.715   7.302  0.6289 -0.4946  0.7676
   79SLPC   H6S 7260   1.935   5.553   7.327 -1.3507 -1.4195  0.3844
   79SLPC   C27 7261   1.725   5.586   7.404  0.1629 -0.5364 -0.3609
   79SLPC   H7R 7262   1.711   5.476   7.405  2.2761 -0.8216 -0.2247
   79SLPC   H7S 7263   1.630   5.635   7.373  0.9467  1.3731  0.1321
   79SLPC   C28 7264   1.762   5.634   7.551 -0.5134 -0.3068 -0.5697
   79SLPC   H8R 7265   1.661   5.651   7.593 -0.6606 -0.0374 -1.0377
   79SLPC   H8S 7266   1.812   5.734   7.553 -1.2671  0.0557  0.9422
   79SLPC   C29 7267   1.844   5.542   7.638  0.1906  0.4479 -0.1974
   79SLPC   H9R 7268   1.910   5.470   7.588 -1.7089 -0.4133 -1.5186
   79SLPC  C210 7269   1.839   5.542   7.776  0.0221  0.3420 -0.4777
   79SLPC  H10R 7270   1.895   5.480   7.849 -0.0654 -0.4198 -1.0572
   79SLPC  C211 7271   1.755   5.628   7.858  0.1206  0.7627  0.0998
   79SLPC  H11R 7272   1.718   5.578   7.950 -2.3541  1.0062 -0.7154
   79SLPC  H11S 7273   1.661   5.649   7.802 -1.1479 -0.1418  1.8581
   79SLPC  C212 7274   1.828   5.760   7.872  0.4036  0.8948  0.8946
   79SLPC  H12R 7275   1.867   5.800   7.778  1.3552  0.8933  1.2873
   79SLPC  C213 7276   1.834   5.826   7.989  0.3785 -0.1111  0.4506
   79SLPC  H13R 7277   1.886   5.923   7.995 -0.9439  0.5371  2.1527
   79SLPC  C214 7278   1.768   5.789   8.119 -0.2182 -0.2347 -0.1155
   79SLPC  H14R 7279   1.743   5.681   8.125 -1.9366  0.0275 -1.8114
   79SLPC  H14S 7280   1.680   5.854   8.140 -0.1483 -1.0397  2.8651
   79SLPC  C215 7281   1.860   5.829   8.238  0.1481 -0.4673 -0.6060
   79SLPC  H15R 7282   1.928   5.916   8.228  0.9127 -0.8146  1.4088
   79SLPC  H15S 7283   1.932   5.745   8.250  0.1426 -0.3317  0.4456
   79SLPC  C216 7284   1.789   5.843   8.377  0.1683 -0.2127 -0.1294
   79SLPC  H16R 7285   1.860   5.795   8.448  1.8422  1.2020 -0.8025
   79SLPC  H16S 7286   1.693   5.787   8.382  0.3313 -0.5793 -1.0341
   79SLPC  C217 7287   1.774   5.985   8.438  0.2024 -0.8876 -0.0141
   79SLPC  H17R 7288   1.697   6.038   8.378  1.3210  0.4783 -0.2754
   79SLPC  H17S 7289   1.864   6.050   8.441 -1.0075  0.8162 -0.0202
   79SLPC  C218 7290   1.723   5.982   8.587 -0.3348  0.4691  0.2923
   79SLPC  H18R 7291   1.811   5.957   8.650 -1.1590  1.4939  1.8745
   79SLPC  H18S 7292   1.638   5.910   8.590  0.2924 -0.3059 -0.0839
   79SLPC  H18T 7293   1.678   6.076   8.624  0.3265  1.3979 -1.2364
   79SLPC   C33 7294   1.437   5.317   7.075 -0.4889  0.2893 -0.4722
   79SLPC   H3X 7295   1.375   5.388   7.134 -0.5165  0.2680 -0.4775
   79SLPC   H3Y 7296   1.535   5.364   7.053  2.0114 -2.9388  3.2939
   79SLPC   C34 7297   1.476   5.184   7.149 -0.0208  0.2444 -0.1226
   79SLPC   H4X 7298   1.555   5.128   7.095 -0.1109 -0.3466  0.3482
   79SLPC   H4Y 7299   1.383   5.124   7.149  0.6437 -0.8042 -1.2086
   79SLPC   C35 7300   1.538   5.210   7.286  0.4392 -0.3941 -0.0952
   79SLPC   H5X 7301   1.628   5.274   7.270 -0.1656  0.6457  0.6402
   79SLPC   H5Y 7302   1.565   5.114   7.336  0.8449 -1.1272 -1.6769
   79SLPC   C36 7303   1.444   5.273   7.389  0.2009 -0.8832  0.2736
   79SLPC   H6X 7304   1.341   5.234   7.376 -0.1857  0.8072 -2.0079
   79SLPC   H6Y 7305   1.443   5.384   7.377 -2.0623 -1.0329 -1.0808
   79SLPC   C37 7306   1.480   5.228   7.537  0.8298  0.3135  0.7009
   79SLPC   H7X 7307   1.590   5.245   7.544  1.0743 -1.5589  1.8773
   79SLPC   H7Y 7308   1.464   5.118   7.541 -0.6295  0.4701 -0.5383
   79SLPC   C38 7309   1.431   5.307   7.661 -0.3060 -0.6959  1.1705
   79SLPC   H8X 7310   1.328   5.269   7.681 -0.3813  0.5905  3.3604
   79SLPC   H8Y 7311   1.438   5.413   7.627  1.6660 -1.0328  0.5046
   79SLPC   C39 7312   1.519   5.267   7.779 -0.7800  0.3991 -0.3039
   79SLPC   H9X 7313   1.624   5.284   7.746  0.4735 -2.0231  2.2794
   79SLPC   H9Y 7314   1.521   5.159   7.803  0.0655  1.1165  3.0602
   79SLPC  C310 7315   1.498   5.333   7.914  0.6890 -0.6064 -0.7037
   79SLPC  H10X 7316   1.407   5.303   7.971  0.6233 -0.2482 -0.6185
   79SLPC  H10Y 7317   1.497   5.443   7.901 -0.5404 -0.5738 -0.4181
   79SLPC  C311 7318   1.615   5.317   8.015 -0.0723 -0.4798 -0.5549
   79SLPC  H11X 7319   1.707   5.354   7.963  0.8512 -0.5560  0.9966
   79SLPC  H11Y 7320   1.629   5.213   8.051 -1.2938 -0.4682 -0.0117
   79SLPC  C312 7321   1.599   5.392   8.148  0.3121 -0.6130  0.1106
   79SLPC  H12X 7322   1.614   5.501   8.137  0.1504 -0.8931 -3.4230
   79SLPC  H12Y 7323   1.674   5.360   8.223 -1.9328  0.0540  2.7302
   79SLPC  C313 7324   1.469   5.364   8.224 -0.2570 -0.0330 -0.1151
   79SLPC  H13X 7325   1.455   5.254   8.237 -3.2279  0.1419 -1.4191
   79SLPC  H13Y 7326   1.385   5.415   8.172  0.5000 -1.1304 -2.5078
   79SLPC  C314 7327   1.462   5.433   8.368  0.0043  0.4674  0.0996
   79SLPC  H14X 7328   1.454   5.542   8.348 -0.7756  0.4476  0.3173
   79SLPC  H14Y 7329   1.543   5.421   8.444  0.3643  2.1459 -0.0053
   79SLPC  C315 7330   1.337   5.405   8.453 -0.1327 -0.0408 -0.1568
   79SLPC  H15X 7331   1.344   5.299   8.485 -0.7528 -0.1860 -0.5030
   79SLPC  H15Y 7332   1.251   5.415   8.383  0.4772  2.4462 -0.6019
   79SLPC  C316 7333   1.310   5.498   8.574 -0.2636 -0.4189  0.0221
   79SLPC  H16X 7334   1.248   5.578   8.528 -1.7196 -1.4942  0.0553
   79SLPC  H16Y 7335   1.404   5.528   8.626  1.2209 -1.0427 -2.2431
   79SLPC  C317 7336   1.211   5.439   8.677 -0.0587  0.1200  0.8735
   79SLPC  H17X 7337   1.191   5.519   8.751  0.3458  2.2723 -1.2681
   79SLPC  H17Y 7338   1.263   5.358   8.732 -0.2007  0.7983  2.0108
   79SLPC  C318 7339   1.078   5.386   8.612 -0.5470 -0.4546 -0.3626
   79SLPC  H18X 7340   1.010   5.465   8.574  1.0770  2.4044  2.4476
   79SLPC  H18Y 7341   1.031   5.327   8.694 -0.5259  0.6141  0.4310
   79SLPC  H18Z 7342   1.097   5.317   8.527 -0.5189 -1.9867  0.8708
   80SLPC     N 7343   3.448   3.174   6.102 -0.4957 -0.0944 -0.3422
   80SLPC   C13 7344   3.584   3.231   6.137 -0.4863 -0.3662  0.5878
   80SLPC  H13A 7345   3.587   3.305   6.215 -1.6563 -1.3908  1.6079
   80SLPC  H13B 7346   3.649   3.156   6.180  0.4988 -0.0065 -0.2496
   80SLPC  H13C 7347   3.637   3.260   6.047 -0.7226 -0.1482  0.5180
   80SLPC   C14 7348   3.476   3.044   6.024  0.1105  0.9592 -0.3679
   80SLPC  H14A 7349   3.522   2.970   6.088 -0.0661 -1.1378 -2.5617
   80SLPC  H14B 7350   3.381   3.003   5.994  1.0676 -1.8102  0.2273
   80SLPC  H14C 7351   3.542   3.066   5.941  0.4813 -1.9925 -0.9143
   80SLPC   C15 7352   3.379   3.259   6.004 -0.0922  0.4622  0.5671
   80SLPC  H15A 7353   3.299   3.203   5.959  1.7401 -0.8888 -1.0780
   80SLPC  H15B 7354   3.341   3.345   6.059 -1.6489  1.2791 -1.7117
   80SLPC  H15C 7355   3.449   3.284   5.925 -2.5539 -1.4666 -2.2928
   80SLPC   C12 7356   3.362   3.134   6.221 -0.3877  0.1745  0.6807
   80SLPC  H12A 7357   3.420   3.065   6.280 -1.4697 -3.0802 -1.9089
   80SLPC  H12B 7358   3.284   3.065   6.193 -0.8484  0.4530  1.2777
   80SLPC   C11 7359   3.294   3.246   6.304  0.3185 -0.0537  0.0931
   80SLPC  H11A 7360   3.371   3.315   6.345 -1.3342  2.6561 -1.2368
   80SLPC  H11B 7361   3.248   3.205   6.396 -0.9393  3.1608  0.9372
   80SLPC     P 7362   3.056   3.303   6.207 -0.4701 -0.2663 -0.2375
   80SLPC   O13 7363   3.017   3.384   6.088 -0.4886  0.5503 -0.1051
   80SLPC   O14 7364   3.028   3.158   6.194 -0.2164 -0.0045  0.5370
   80SLPC   O12 7365   3.210   3.334   6.232 -0.0837  0.1123 -0.2154
   80SLPC   O11 7366   2.975   3.362   6.323 -0.1827 -0.2562 -0.1156
   80SLPC    C1 7367   3.012   3.494   6.377 -0.3924  0.2570 -0.3170
   80SLPC    HA 7368   3.123   3.503   6.383 -0.4991  0.8083  0.9948
   80SLPC    HB 7369   2.964   3.578   6.323  0.7683  0.0733 -1.6712
   80SLPC    C2 7370   2.978   3.510   6.526 -0.1856 -0.3442 -0.3271
   80SLPC    HS 7371   3.012   3.609   6.562 -0.1624  0.0704 -1.4712
   80SLPC   O21 7372   3.026   3.401   6.609  0.4110 -0.2503 -0.2906
   80SLPC   C21 7373   3.153   3.406   6.635  0.2944 -0.5473  0.4143
   80SLPC   O22 7374   3.237   3.487   6.602  0.7957 -0.6231  0.1997
   80SLPC   C22 7375   3.184   3.282   6.719  0.4315  0.0087  0.2041
   80SLPC   H2R 7376   3.097   3.215   6.736  2.0334 -2.6208 -1.7488
   80SLPC   H2S 7377   3.263   3.239   6.654  0.3100  0.7751 -0.4572
   80SLPC    C3 7378   2.829   3.501   6.546 -0.3945 -0.4299 -0.0250
   80SLPC    HX 7379   2.777   3.413   6.503 -0.5262  0.0921 -0.9522
   80SLPC    HY 7380   2.796   3.579   6.474  4.6202  1.2711 -0.7207
   80SLPC   O31 7381   2.786   3.537   6.679  0.2546  0.3593  0.2462
   80SLPC   C31 7382   2.760   3.426   6.753  0.1224  0.2049  0.0776
   80SLPC   O32 7383   2.763   3.316   6.714  0.4297  0.4423  0.2357
   80SLPC   C32 7384   2.739   3.471   6.899  0.4625  0.0395  0.2868
   80SLPC   H2X 7385   2.637   3.516   6.908  0.3156 -0.4882  1.3382
   80SLPC   H2Y 7386   2.820   3.545   6.916  0.5117  0.2061 -0.6688
   80SLPC   C23 7387   3.253   3.303   6.857  0.0630  0.2704 -0.0545
   80SLPC   H3R 7388   3.333   3.379   6.851  0.7600 -0.4719 -0.1983
   80SLPC   H3S 7389   3.282   3.206   6.902  1.0303 -0.2617 -1.7804
   80SLPC   C24 7390   3.144   3.364   6.950 -0.4231 -0.2889  0.4077
   80SLPC   H4R 7391   3.082   3.278   6.984  2.4640 -2.6117  0.0239
   80SLPC   H4S 7392   3.071   3.435   6.905  0.5117  0.3463 -0.1286
   80SLPC   C25 7393   3.192   3.429   7.086  0.1653 -0.0299  0.0198
   80SLPC   H5R 7394   3.126   3.507   7.129  1.2012  0.6688  0.3604
   80SLPC   H5S 7395   3.297   3.463   7.074  0.2776  0.1515  1.3834
   80SLPC   C26 7396   3.199   3.332   7.200  0.1695 -0.2587  0.7286
   80SLPC   H6R 7397   3.265   3.252   7.161 -0.9580 -0.3726 -1.0001
   80SLPC   H6S 7398   3.106   3.272   7.212  0.6744 -1.0835  0.5498
   80SLPC   C27 7399   3.243   3.381   7.340 -0.4088 -0.0349  0.0255
   80SLPC   H7R 7400   3.163   3.446   7.379 -0.6374 -1.3658  1.8730
   80SLPC   H7S 7401   3.335   3.443   7.337  0.3766 -1.2512 -2.3356
   80SLPC   C28 7402   3.234   3.274   7.450  0.0405  0.2147 -0.0092
   80SLPC   H8R 7403   3.129   3.239   7.444  0.1179  0.0137 -0.2105
   80SLPC   H8S 7404   3.246   3.329   7.546 -0.4202  1.9601 -0.9339
   80SLPC   C29 7405   3.331   3.156   7.440 -0.7273 -0.1508  0.3251
   80SLPC   H9R 7406   3.337   3.089   7.353  1.0185  2.7341 -1.8797
   80SLPC  C210 7407   3.427   3.127   7.529  0.3891 -0.7476  0.2070
   80SLPC  H10R 7408   3.491   3.044   7.495 -0.1215 -1.0636  0.0225
   80SLPC  C211 7409   3.462   3.196   7.660 -0.2642 -0.0872  0.0780
   80SLPC  H11R 7410   3.494   3.300   7.639  0.9166 -0.5887 -0.7091
   80SLPC  H11S 7411   3.553   3.146   7.699  0.5994  0.8804 -0.6572
   80SLPC  C212 7412   3.354   3.175   7.762 -0.2554 -0.1053 -0.2026
   80SLPC  H12R 7413   3.253   3.157   7.724  0.8094  0.0047 -3.2272
   80SLPC  C213 7414   3.376   3.171   7.901  0.1266  0.3224  0.4398
   80SLPC  H13R 7415   3.292   3.148   7.967  0.3135 -2.1663 -0.1118
   80SLPC  C214 7416   3.512   3.188   7.963  0.3510  0.5523 -0.7980
   80SLPC  H14R 7417   3.566   3.279   7.930 -0.5056  1.7283  0.9374
   80SLPC  H14S 7418   3.580   3.103   7.940 -0.5479 -1.1079  2.3283
   80SLPC  C215 7419   3.501   3.195   8.116 -0.1188  1.0390  0.4829
   80SLPC  H15R 7420   3.444   3.106   8.149 -1.4674  1.1625 -1.5044
   80SLPC  H15S 7421   3.450   3.289   8.144 -3.2280 -0.3017 -0.5165
   80SLPC  C216 7422   3.643   3.183   8.178 -0.0159 -0.6451 -0.3175
   80SLPC  H16R 7423   3.707   3.270   8.156 -1.5947  0.7052  0.3316
   80SLPC  H16S 7424   3.686   3.095   8.125  1.8983  1.0775 -1.7158
   80SLPC  C217 7425   3.645   3.163   8.328 -0.1038 -1.1335  0.5364
   80SLPC  H17R 7426   3.753   3.163   8.354  0.1063 -1.3508 -0.3280
   80SLPC  H17S 7427   3.605   3.062   8.350 -2.1545 -0.1726  1.3325
   80SLPC  C218 7428   3.572   3.273   8.407 -0.2138 -0.4937  0.5118
   80SLPC  H18R 7429   3.461   3.268   8.395 -0.0277  1.9909 -3.0404
   80SLPC  H18S 7430   3.596   3.373   8.364  0.6948 -0.6320  0.6832
   80SLPC  H18T 7431   3.601   3.272   8.514 -1.1203  1.3615  0.8122
   80SLPC   C33 7432   2.762   3.361   7.005 -0.0852 -0.3213 -0.0332
   80SLPC   H3X 7433   2.840   3.289   6.971  0.7148  0.3815  0.3043
   80SLPC   H3Y 7434   2.670   3.307   7.034  0.1339  0.2404  1.7342
   80SLPC   C34 7435   2.823   3.432   7.130 -0.2095  0.6815  0.1664
   80SLPC   H4X 7436   2.752   3.513   7.155  0.5198  1.8861 -1.6029
   80SLPC   H4Y 7437   2.926   3.463   7.102 -0.5508  0.7632 -1.0411
   80SLPC   C35 7438   2.824   3.332   7.246  0.0246 -0.2479 -0.1519
   80SLPC   H5X 7439   2.893   3.246   7.228  1.0773  0.4729  0.3897
   80SLPC   H5Y 7440   2.725   3.284   7.262 -0.4885  0.8059 -0.1814
   80SLPC   C36 7441   2.863   3.399   7.379  0.3694  0.2657 -0.3263
   80SLPC   H6X 7442   2.780   3.471   7.395 -0.9136 -0.7967 -2.0018
   80SLPC   H6Y 7443   2.963   3.447   7.372 -0.1333  1.2715 -0.6412
   80SLPC   C37 7444   2.857   3.302   7.509 -0.5927  0.0912  0.1762
   80SLPC   H7X 7445   2.918   3.212   7.485  0.8853  1.2695 -0.5815
   80SLPC   H7Y 7446   2.755   3.258   7.515  0.2580 -2.1319 -0.9946
   80SLPC   C38 7447   2.894   3.382   7.629 -0.4510  0.3946  0.4491
   80SLPC   H8X 7448   2.814   3.455   7.653 -0.8346  0.0403  0.2637
   80SLPC   H8Y 7449   2.984   3.444   7.610  0.1439 -0.2643  1.0940
   80SLPC   C39 7450   2.933   3.290   7.749  0.3837  0.0002  0.3482
   80SLPC   H9X 7451   3.008   3.213   7.720  0.9007  1.1604 -1.4462
   80SLPC   H9Y 7452   2.840   3.232   7.770 -0.3269  0.7714 -0.5929
   80SLPC  C310 7453   2.972   3.367   7.874  0.5688 -0.4814  0.7968
   80SLPC  H10X 7454   2.910   3.457   7.890  3.2077  1.5908 -0.3649
   80SLPC  H10Y 7455   3.076   3.403   7.866  0.4070  0.0895  1.2175
   80SLPC  C311 7456   2.964   3.294   8.011 -0.1688  0.6323 -0.2054
   80SLPC  H11X 7457   3.030   3.359   8.072  0.2930 -0.5805  0.6027
   80SLPC  H11Y 7458   3.006   3.193   7.993 -0.1610  0.6818 -0.4574
   80SLPC  C312 7459   2.820   3.275   8.067 -0.3901  0.0903 -0.1212
   80SLPC  H12X 7460   2.764   3.227   7.985 -1.1181  1.3978 -0.3924
   80SLPC  H12Y 7461   2.770   3.374   8.079  1.3774  1.2091 -1.7637
   80SLPC  C313 7462   2.813   3.184   8.198 -0.0629  0.3509  0.1953
   80SLPC  H13X 7463   2.907   3.125   8.209  0.6966  1.5189  0.0522
   80SLPC  H13Y 7464   2.725   3.117   8.186  1.1022 -1.3142  0.6943
   80SLPC  C314 7465   2.791   3.267   8.327 -0.3812 -0.1703  0.2007
   80SLPC  H14X 7466   2.683   3.296   8.329 -0.7514 -1.4463 -0.3884
   80SLPC  H14Y 7467   2.856   3.356   8.336  0.9384 -1.2982  2.1355
   80SLPC  C315 7468   2.807   3.178   8.450  0.1634 -0.5424  0.3614
   80SLPC  H15X 7469   2.899   3.117   8.452 -0.0820 -1.0374 -2.0793
   80SLPC  H15Y 7470   2.722   3.110   8.428 -1.4505  0.8920  1.9245
   80SLPC  C316 7471   2.785   3.248   8.589  0.1621  0.2995 -1.0345
   80SLPC  H16X 7472   2.878   3.308   8.594 -0.2081  0.7745  0.4142
   80SLPC  H16Y 7473   2.781   3.168   8.667  1.3297 -0.0333 -1.3026
   80SLPC  C317 7474   2.653   3.331   8.592  0.3327  0.3728 -0.0218
   80SLPC  H17X 7475   2.579   3.257   8.556  2.0649 -2.0790  1.3601
   80SLPC  H17Y 7476   2.652   3.408   8.512  1.2210  0.4465  0.0272
   80SLPC  C318 7477   2.601   3.388   8.725  0.2181  0.4748 -0.3905
   80SLPC  H18X 7478   2.676   3.456   8.769  1.5766  0.8247 -3.1453
   80SLPC  H18Y 7479   2.566   3.306   8.792 -0.4824  1.1890  0.1252
   80SLPC  H18Z 7480   2.510   3.442   8.690  0.3827  0.3481 -1.0250
   81SAPS     N 7481   2.852   5.006  10.776  0.1085 -0.1583  0.2213
   81SAPS   HN1 7482   2.851   4.911  10.818 -1.8429 -0.0183  0.5247
   81SAPS   HN2 7483   2.767   5.005  10.716 -1.0346 -2.0266  1.7896
   81SAPS   HN3 7484   2.930   5.016  10.709  0.2872 -4.2194 -0.2823
   81SAPS   C12 7485   2.877   5.103  10.887  0.1250 -0.3947  0.2657
   81SAPS  H12A 7486   2.871   5.202  10.844 -1.7858 -0.3984  0.5100
   81SAPS   C13 7487   2.783   5.100  11.014 -0.1927  0.1823 -0.3067
   81SAPS  O13A 7488   2.714   4.995  11.034 -0.3816 -0.4192  0.1699
   81SAPS  O13B 7489   2.782   5.195  11.099 -0.3407  0.0997  0.7121
   81SAPS   C11 7490   3.019   5.086  10.932 -0.0856  0.3040  0.1687
   81SAPS  H11A 7491   3.047   4.981  10.958  1.8611  1.1941  1.7938
   81SAPS  H11B 7492   3.038   5.142  11.026 -0.5912  0.4679  0.1704
   81SAPS     P 7493   3.255   5.111  10.839 -0.2271 -0.4125 -0.4372
   81SAPS   O13 7494   3.301   5.132  10.980  0.9895  0.1049  0.2072
   81SAPS   O14 7495   3.284   4.986  10.772  0.2080 -0.2650 -0.0367
   81SAPS   O12 7496   3.103   5.137  10.829 -0.5163 -0.4991  0.1668
   81SAPS   O11 7497   3.301   5.222  10.744  0.6673 -1.0499 -0.2091
   81SAPS    C1 7498   3.436   5.267  10.739 -0.5767 -0.3724 -0.1113
   81SAPS    HA 7499   3.426   5.377  10.729  1.4366 -0.2191 -0.5951
   81SAPS    HB 7500   3.495   5.251  10.832  2.3141 -0.5990 -1.9086
   81SAPS    C2 7501   3.512   5.218  10.618 -0.8077 -0.3913 -0.4028
   81SAPS    HS 7502   3.590   5.290  10.587 -0.0753 -0.4795  1.2057
   81SAPS   O21 7503   3.429   5.188  10.501  0.3093 -0.2075  0.4474
   81SAPS   C21 7504   3.368   5.299  10.460  0.7573 -0.1288  0.4037
   81SAPS   O22 7505   3.394   5.414  10.488 -0.3573  0.2395 -0.1698
   81SAPS   C22 7506   3.256   5.266  10.357 -0.6880  0.1577  0.4514
   81SAPS   H2R 7507   3.179   5.207  10.412  2.1124 -2.8167  1.3749
   81SAPS   H2S 7508   3.221   5.364  10.319 -1.6122 -0.0556  0.7430
   81SAPS    C3 7509   3.587   5.088  10.661  0.9893  0.2306  0.3607
   81SAPS    HX 7510   3.507   5.012  10.669  1.1457 -0.0884 -1.0392
   81SAPS    HY 7511   3.631   5.103  10.762 -1.6158  2.4439  1.2309
   81SAPS   O31 7512   3.701   5.075  10.573 -0.2222 -0.6044 -0.4555
   81SAPS   C31 7513   3.681   4.999  10.476  0.3702  0.2438  0.1376
   81SAPS   O32 7514   3.582   4.930  10.455  0.1627 -0.1986  0.1109
   81SAPS   C32 7515   3.803   5.015  10.376 -0.4418  0.0387 -0.3727
   81SAPS   H2X 7516   3.874   4.942  10.421 -0.1316  0.2933 -0.4517
   81SAPS   H2Y 7517   3.842   5.119  10.377 -0.7456  0.1474  0.9332
   81SAPS   C23 7518   3.316   5.193  10.230  0.4787  0.4168  0.5519
   81SAPS   H3R 7519   3.248   5.175  10.144 -0.4965  0.0449  1.3778
   81SAPS   H3S 7520   3.339   5.091  10.269 -0.7984 -0.4432 -0.8864
   81SAPS   C24 7521   3.454   5.240  10.179 -0.5222  0.0156  0.5577
   81SAPS   H4R 7522   3.502   5.153  10.129 -2.2187 -1.0233  0.6956
   81SAPS   H4S 7523   3.526   5.278  10.254  1.3683 -0.4989 -0.9345
   81SAPS   C25 7524   3.437   5.354  10.069  0.2642  0.2315 -0.5415
   81SAPS   H5R 7525   3.374   5.432  10.113 -1.5283 -2.1370  1.2201
   81SAPS   C26 7526   3.478   5.361   9.937  0.2661  0.0814  1.2377
   81SAPS   H6R 7527   3.458   5.453   9.881  0.6475 -0.8351 -0.4516
   81SAPS   C27 7528   3.558   5.253   9.863  0.0770  0.3281  0.2546
   81SAPS   H7R 7529   3.480   5.211   9.796 -1.2329  0.7768  1.4861
   81SAPS   H7S 7530   3.607   5.178   9.929  0.9100 -1.8037 -2.6778
   81SAPS   C28 7531   3.662   5.318   9.780 -0.0743  0.3381 -0.1291
   81SAPS   H8R 7532   3.759   5.342   9.828 -0.5161  2.6122 -0.2927
   81SAPS   C29 7533   3.655   5.347   9.647 -0.0107 -0.3280 -0.2654
   81SAPS   H9R 7534   3.743   5.395   9.602  0.5322  1.6939  2.8326
   81SAPS  C210 7535   3.539   5.318   9.552 -0.3268 -0.8825  0.5475
   81SAPS  H10R 7536   3.541   5.376   9.457  0.8222  0.3663  1.3119
   81SAPS  H10S 7537   3.446   5.353   9.601  0.0148  0.3849  0.3144
   81SAPS  C211 7538   3.512   5.171   9.522 -0.4797 -0.5977  0.0830
   81SAPS  H11R 7539   3.517   5.098   9.604 -0.2425 -2.7774 -1.8191
   81SAPS  C212 7540   3.514   5.118   9.404  0.2789  0.4513 -0.3304
   81SAPS  H12R 7541   3.478   5.014   9.413  1.2207  0.2452  1.3390
   81SAPS  C213 7542   3.539   5.153   9.262  0.0239  0.1716  0.3948
   81SAPS  H13R 7543   3.634   5.103   9.238  1.0069  0.9634  2.4567
   81SAPS  H13S 7544   3.566   5.261   9.258 -0.4019  0.2470 -0.6390
   81SAPS  C214 7545   3.424   5.116   9.164 -0.3663  0.0489  0.3385
   81SAPS  H14R 7546   3.346   5.044   9.194 -1.8064  0.5115 -2.1554
   81SAPS  C215 7547   3.402   5.167   9.035 -0.4838  0.8499 -0.1000
   81SAPS  H15R 7548   3.312   5.126   8.988  0.0168 -0.0561 -0.2790
   81SAPS  C216 7549   3.486   5.266   8.968 -0.7745 -0.1971  0.8015
   81SAPS  H16R 7550   3.558   5.211   8.903  0.3605  0.5084  1.4452
   81SAPS  H16S 7551   3.547   5.328   9.038  2.1044 -0.3674 -1.4541
   81SAPS  C217 7552   3.400   5.369   8.895 -0.3767  0.3321  0.2276
   81SAPS  H17R 7553   3.339   5.437   8.959 -2.0207  1.0849 -2.0636
   81SAPS  H17S 7554   3.338   5.312   8.822  0.2847 -0.6389  0.4127
   81SAPS  C218 7555   3.484   5.478   8.820  1.0786 -0.1899 -0.3360
   81SAPS  H18R 7556   3.575   5.498   8.881  1.4417  0.3037 -1.0309
   81SAPS  H18S 7557   3.440   5.580   8.815 -2.4681 -1.7137 -2.3979
   81SAPS  C219 7558   3.518   5.423   8.684  0.6226 -0.3628 -0.1352
   81SAPS  H19R 7559   3.428   5.391   8.629 -0.2622  1.1792  0.3942
   81SAPS  H19S 7560   3.586   5.336   8.703  1.0565  0.3102  1.4968
   81SAPS  C220 7561   3.591   5.527   8.594 -0.4923  0.1864 -0.0332
   81SAPS  H20R 7562   3.537   5.623   8.577  0.2831  0.3018 -1.9628
   81SAPS  H20S 7563   3.618   5.494   8.492 -0.7857  1.8631 -0.6748
   81SAPS  H20T 7564   3.680   5.543   8.659  0.0221 -1.7161 -0.2470
   81SAPS   C33 7565   3.759   4.962  10.233  0.1375 -0.7908 -0.2227
   81SAPS   H3X 7566   3.662   5.004  10.201 -0.7619 -1.5644  1.3968
   81SAPS   H3Y 7567   3.756   4.851  10.240 -0.8687 -0.8094 -0.8170
   81SAPS   C34 7568   3.868   5.001  10.132 -0.6176 -0.7372  0.2511
   81SAPS   H4X 7569   3.963   4.955  10.168  0.5799  0.7532 -0.9207
   81SAPS   H4Y 7570   3.868   5.112  10.136  0.1445 -0.5526 -3.3855
   81SAPS   C35 7571   3.844   4.952   9.988 -0.3601 -0.2275 -0.2750
   81SAPS   H5X 7572   3.741   4.980   9.954  0.4421  2.2192 -0.8275
   81SAPS   H5Y 7573   3.850   4.842   9.983  0.1754 -0.2157  0.1281
   81SAPS   C36 7574   3.932   5.011   9.868  0.1951 -0.2540 -0.2131
   81SAPS   H6X 7575   4.041   4.989   9.877  0.2187  0.1777  0.6595
   81SAPS   H6Y 7576   3.941   5.121   9.861  1.3333 -0.4745 -2.3379
   81SAPS   C37 7577   3.877   4.972   9.736  0.3112  0.3646  0.2887
   81SAPS   H7X 7578   3.788   5.036   9.718  1.4314  1.7027 -0.5717
   81SAPS   H7Y 7579   3.829   4.873   9.750  0.1365  0.2215 -1.2584
   81SAPS   C38 7580   3.962   4.988   9.616 -0.2013  0.0545 -0.1699
   81SAPS   H8X 7581   4.032   4.902   9.618 -1.8619 -1.3191  2.0246
   81SAPS   H8Y 7582   4.023   5.080   9.601  1.9057 -1.5447 -1.7842
   81SAPS   C39 7583   3.876   4.973   9.490 -0.5635  0.0494 -0.3879
   81SAPS   H9X 7584   3.786   5.037   9.487 -1.5875 -1.2845  1.1454
   81SAPS   H9Y 7585   3.839   4.868   9.490 -1.1576  0.2559 -0.0757
   81SAPS  C310 7586   3.961   4.985   9.362 -0.7631 -0.7178  0.4286
   81SAPS  H10X 7587   3.889   4.937   9.292 -0.1773 -1.2408  0.1867
   81SAPS  H10Y 7588   4.058   4.932   9.365 -1.8675 -2.8309  0.1410
   81SAPS  C311 7589   3.999   5.127   9.323 -0.6224 -0.0203 -0.1284
   81SAPS  H11X 7590   4.102   5.148   9.357 -0.1211  0.3269 -1.8502
   81SAPS  H11Y 7591   3.923   5.192   9.372 -0.7243 -1.1899  1.3161
   81SAPS  C312 7592   3.991   5.147   9.173  0.0121 -0.1106 -0.2712
   81SAPS  H12X 7593   4.033   5.249   9.156 -0.4822  0.2023  0.3861
   81SAPS  H12Y 7594   3.886   5.136   9.141 -0.6604  1.6342  1.2488
   81SAPS  C313 7595   4.080   5.060   9.089 -0.6540  0.8054 -0.3860
   81SAPS  H13X 7596   4.063   4.953   9.113 -1.8843  0.5257 -2.3728
   81SAPS  H13Y 7597   4.184   5.090   9.114  0.3779 -1.0474 -2.2670
   81SAPS  C314 7598   4.061   5.062   8.933 -0.3785 -1.1585  0.0733
   81SAPS  H14X 7599   3.951   5.056   8.917 -0.6710 -0.2127  1.7091
   81SAPS  H14Y 7600   4.103   4.967   8.892  0.2246 -0.9543  0.2180
   81SAPS  C315 7601   4.120   5.178   8.853 -0.8880 -0.2467 -0.4503
   81SAPS  H15X 7602   4.225   5.190   8.886 -0.6266  0.0196 -1.3591
   81SAPS  H15Y 7603   4.068   5.271   8.884  1.5357  0.9198  0.2264
   81SAPS  C316 7604   4.128   5.164   8.700  1.0031 -0.4849  0.7223
   81SAPS  H16X 7605   4.022   5.186   8.677  0.8706 -2.0490 -0.2251
   81SAPS  H16Y 7606   4.154   5.063   8.665 -0.6761 -0.6578 -0.0669
   81SAPS  C317 7607   4.225   5.258   8.621 -0.3014 -0.3993  0.0907
   81SAPS  H17X 7608   4.328   5.216   8.629 -0.9942 -1.9473  1.0654
   81SAPS  H17Y 7609   4.243   5.357   8.666  1.0456 -1.7591  2.6619
   81SAPS  C318 7610   4.185   5.272   8.476  0.1649 -0.0835 -0.0295
   81SAPS  H18X 7611   4.180   5.170   8.432 -0.0933 -0.1713  0.2084
   81SAPS  H18Y 7612   4.266   5.330   8.428  1.0632 -1.3295 -0.0619
   81SAPS  H18Z 7613   4.094   5.334   8.469  0.5860  0.3306 -1.9186
   82SAPS     N 7614   2.199   3.754  10.736 -0.3532  0.0244 -0.5546
   82SAPS   HN1 7615   2.249   3.845  10.730 -0.7620  0.4331  1.7833
   82SAPS   HN2 7616   2.276   3.686  10.719  0.3922  0.7417 -0.0775
   82SAPS   HN3 7617   2.126   3.752  10.662 -0.2567  1.7714 -0.7213
   82SAPS   C12 7618   2.137   3.731  10.870 -0.2356  0.0528  0.3668
   82SAPS  H12A 7619   2.076   3.642  10.869  0.9086 -0.7312 -0.4967
   82SAPS   C13 7620   2.237   3.707  10.985  0.0979 -0.0543 -0.5647
   82SAPS  O13A 7621   2.358   3.721  10.962  0.2332 -0.1269 -0.3841
   82SAPS  O13B 7622   2.191   3.670  11.094 -0.3796  0.0504  0.5402
   82SAPS   C11 7623   2.048   3.849  10.904 -0.8945  0.3028 -0.1795
   82SAPS  H11A 7624   2.119   3.934  10.914  0.8551 -1.0914 -0.7664
   82SAPS  H11B 7625   2.014   3.844  11.010  3.7563  0.1498  1.3841
   82SAPS     P 7626   1.853   3.999  10.833  0.2430  0.3994 -0.0752
   82SAPS   O13 7627   1.725   3.952  10.888 -0.4066  0.0024  0.2810
   82SAPS   O14 7628   1.929   4.110  10.901  0.3738 -0.1114 -0.3538
   82SAPS   O12 7629   1.944   3.870  10.810  0.5334 -0.5458  0.3498
   82SAPS   O11 7630   1.834   4.038  10.675  0.4053  0.3585 -0.5385
   82SAPS    C1 7631   1.958   4.027  10.599 -0.0796  0.1351  0.2409
   82SAPS    HA 7632   2.037   4.099  10.628 -0.0243 -0.3701  1.3938
   82SAPS    HB 7633   1.997   3.923  10.594 -2.1588 -0.5920 -2.0157
   82SAPS    C2 7634   1.917   4.048  10.445  0.2277 -0.4497  0.4168
   82SAPS    HS 7635   1.891   4.156  10.441  2.2240  0.1103  1.7502
   82SAPS   O21 7636   1.808   3.966  10.408  0.2844  0.1179 -0.0062
   82SAPS   C21 7637   1.728   4.016  10.309 -0.1076 -0.2626  0.4210
   82SAPS   O22 7638   1.736   4.122  10.256 -0.2778 -0.0132  0.2383
   82SAPS   C22 7639   1.635   3.907  10.268  0.1719  0.5706 -0.4126
   82SAPS   H2R 7640   1.671   3.815  10.319  1.5082  1.3081 -0.0093
   82SAPS   H2S 7641   1.539   3.942  10.312  0.3179 -0.6030  0.8823
   82SAPS    C3 7642   2.032   4.010  10.352 -0.1363  0.2779  0.0406
   82SAPS    HX 7643   2.057   3.902  10.362  0.7393  0.4618 -0.0873
   82SAPS    HY 7644   2.116   4.069  10.393 -2.5481  2.8058  1.4443
   82SAPS   O31 7645   2.008   4.040  10.216  0.0456  0.5424 -0.0197
   82SAPS   C31 7646   2.033   4.171  10.192  0.5347  0.7536 -0.2119
   82SAPS   O32 7647   2.091   4.255  10.260  0.4572  0.5651 -0.2965
   82SAPS   C32 7648   1.976   4.209  10.050 -0.8518 -0.2702  0.3027
   82SAPS   H2X 7649   1.901   4.136  10.017 -1.8842  1.3292 -0.9575
   82SAPS   H2Y 7650   2.053   4.200   9.970  1.0008  1.7542  1.7693
   82SAPS   C23 7651   1.602   3.896  10.118  0.3835  0.2516 -0.1689
   82SAPS   H3R 7652   1.559   3.992  10.080 -2.3617 -1.1119 -0.6231
   82SAPS   H3S 7653   1.521   3.821  10.107 -1.3595  2.0397  0.1939
   82SAPS   C24 7654   1.732   3.860  10.044  0.0510 -0.3422  0.3402
   82SAPS   H4R 7655   1.780   3.784  10.110 -0.8725 -0.2986  1.0824
   82SAPS   H4S 7656   1.798   3.948  10.037  1.1338 -1.2524 -1.0801
   82SAPS   C25 7657   1.692   3.802   9.908  0.6585  0.2990  0.1477
   82SAPS   H5R 7658   1.629   3.712   9.918  0.8383  0.1070 -0.4579
   82SAPS   C26 7659   1.735   3.846   9.788  0.0321 -0.0537  1.0274
   82SAPS   H6R 7660   1.711   3.786   9.699  1.8514  1.6039 -0.6206
   82SAPS   C27 7661   1.834   3.950   9.747  0.2910  0.3101 -0.2608
   82SAPS   H7R 7662   1.912   3.903   9.684 -0.9462 -2.9164  0.5448
   82SAPS   H7S 7663   1.900   3.988   9.828  0.5328 -0.6062 -0.0308
   82SAPS   C28 7664   1.754   4.051   9.677 -0.9650 -0.1028  0.2550
   82SAPS   H8R 7665   1.667   4.090   9.732 -0.8391  0.3853  0.1142
   82SAPS   C29 7666   1.776   4.123   9.561 -0.3705 -0.0267 -0.3071
   82SAPS   H9R 7667   1.712   4.210   9.539 -0.8238  0.5525  2.9968
   82SAPS  C210 7668   1.895   4.106   9.473  0.7302 -0.0313 -0.5655
   82SAPS  H10R 7669   1.861   4.103   9.367 -0.4448  0.0996 -0.1911
   82SAPS  H10S 7670   1.940   4.005   9.486 -1.4566 -0.8556  0.7572
   82SAPS  C211 7671   1.997   4.210   9.503  0.2133  0.3092  0.5476
   82SAPS  H11R 7672   1.992   4.265   9.598  0.9659  1.5763 -0.1410
   82SAPS  C212 7673   2.088   4.246   9.410  0.7951  0.6862  0.0761
   82SAPS  H12R 7674   2.176   4.309   9.428  1.0314  1.2331 -2.6486
   82SAPS  C213 7675   2.096   4.192   9.269 -0.5549  0.3841  0.1186
   82SAPS  H13R 7676   2.156   4.269   9.216  1.1431 -2.0762 -1.6027
   82SAPS  H13S 7677   1.995   4.171   9.226 -0.2855 -4.8146  1.7092
   82SAPS  C214 7678   2.180   4.065   9.267 -0.4432 -0.2151 -0.2894
   82SAPS  H14R 7679   2.156   3.997   9.350 -1.0707 -0.9395 -1.0566
   82SAPS  C215 7680   2.292   4.039   9.192 -0.4666 -0.0575  0.0372
   82SAPS  H15R 7681   2.337   3.939   9.184  0.2379  0.3049 -0.5995
   82SAPS  C216 7682   2.363   4.129   9.084  0.4414  0.1942  0.3956
   82SAPS  H16R 7683   2.473   4.110   9.083  0.1957 -1.3130 -0.8045
   82SAPS  H16S 7684   2.351   4.237   9.106  1.5117  0.6679 -1.2632
   82SAPS  C217 7685   2.306   4.113   8.945 -0.1991 -0.2669 -0.3919
   82SAPS  H17R 7686   2.197   4.127   8.928  0.2641  3.8227 -0.4866
   82SAPS  H17S 7687   2.325   4.007   8.919 -0.4565 -0.4031 -0.0166
   82SAPS  C218 7688   2.386   4.202   8.853  0.3174 -0.0089 -0.8361
   82SAPS  H18R 7689   2.496   4.190   8.866  0.0329 -1.0946  0.6118
   82SAPS  H18S 7690   2.366   4.309   8.874  0.5974  0.0122 -0.6679
   82SAPS  C219 7691   2.347   4.165   8.709 -0.3040  0.8205 -0.0812
   82SAPS  H19R 7692   2.237   4.154   8.699 -0.2501 -1.3372  1.6117
   82SAPS  H19S 7693   2.387   4.065   8.681 -0.9030  1.3269 -2.9451
   82SAPS  C220 7694   2.389   4.266   8.609  0.2864 -0.5641  0.0581
   82SAPS  H20R 7695   2.342   4.365   8.630 -0.9224 -0.7352 -1.7392
   82SAPS  H20S 7696   2.367   4.237   8.504  1.3908 -2.2717  0.2732
   82SAPS  H20T 7697   2.500   4.274   8.617  0.2797 -0.4383  0.0391
   82SAPS   C33 7698   1.911   4.346  10.047 -0.1295  1.0278 -0.9534
   82SAPS   H3X 7699   1.965   4.422  10.108  0.8251 -1.8908  2.0208
   82SAPS   H3Y 7700   1.815   4.331  10.101  0.6627  0.9239  0.4468
   82SAPS   C34 7701   1.880   4.390   9.903 -0.0580 -0.2677 -0.3796
   82SAPS   H4X 7702   1.831   4.307   9.848 -0.6669  1.1833 -2.0502
   82SAPS   H4Y 7703   1.970   4.427   9.849  1.9726 -0.6417  2.5971
   82SAPS   C35 7704   1.787   4.517   9.905  0.6551  0.0546 -0.9085
   82SAPS   H5X 7705   1.826   4.592   9.976 -0.0092 -1.3461  0.9785
   82SAPS   H5Y 7706   1.687   4.487   9.943  0.6433  0.1720 -0.8496
   82SAPS   C36 7707   1.779   4.591   9.766  0.0082  0.3690  0.1092
   82SAPS   H6X 7708   1.882   4.628   9.752  0.2176 -1.0766 -2.4403
   82SAPS   H6Y 7709   1.705   4.672   9.782 -0.5741  0.2479 -1.7889
   82SAPS   C37 7710   1.742   4.498   9.647 -0.5972 -0.3882  0.3138
   82SAPS   H7X 7711   1.631   4.490   9.647 -0.6557 -0.3963  3.4145
   82SAPS   H7Y 7712   1.800   4.404   9.656 -1.2944 -0.7241  1.4505
   82SAPS   C38 7713   1.784   4.571   9.519  0.1797 -0.4950  1.0335
   82SAPS   H8X 7714   1.739   4.673   9.522 -0.5630 -0.7673 -0.2629
   82SAPS   H8Y 7715   1.738   4.515   9.435  1.6673  0.0816 -0.1698
   82SAPS   C39 7716   1.933   4.578   9.493  0.5843  0.0478 -0.4001
   82SAPS   H9X 7717   1.978   4.492   9.547  1.0354  0.3898 -0.2286
   82SAPS   H9Y 7718   1.971   4.662   9.554  1.0547 -0.5610  0.1467
   82SAPS  C310 7719   1.966   4.586   9.347  0.4298 -0.5039 -0.0597
   82SAPS  H10X 7720   1.922   4.677   9.300  1.9933  0.9319  1.2054
   82SAPS  H10Y 7721   1.924   4.505   9.283  1.3900 -0.4322 -0.7962
   82SAPS  C311 7722   2.120   4.591   9.336 -0.5984 -0.8989 -0.5838
   82SAPS  H11X 7723   2.158   4.495   9.376  0.5562 -0.6732 -1.1029
   82SAPS  H11Y 7724   2.158   4.666   9.408 -1.0502 -2.5822  1.4385
   82SAPS  C312 7725   2.173   4.615   9.198 -0.4155 -0.1966  0.2640
   82SAPS  H12X 7726   2.115   4.702   9.162  0.9692 -0.2036 -2.1352
   82SAPS  H12Y 7727   2.154   4.526   9.134  0.1251 -0.2688  0.1985
   82SAPS  C313 7728   2.326   4.632   9.182  0.3886  0.3128 -0.0992
   82SAPS  H13X 7729   2.387   4.559   9.239 -0.3885  1.2332  1.9794
   82SAPS  H13Y 7730   2.354   4.730   9.228 -1.2352  0.8222 -0.1609
   82SAPS  C314 7731   2.367   4.631   9.036 -0.1691 -0.0539  0.1105
   82SAPS  H14X 7732   2.303   4.704   8.981 -1.1781 -1.6705 -0.8949
   82SAPS  H14Y 7733   2.349   4.528   9.000  1.9354 -0.8097  1.1465
   82SAPS  C315 7734   2.512   4.652   9.002  0.3572 -0.4898 -0.5857
   82SAPS  H15X 7735   2.580   4.571   9.035  0.3120  0.2916  1.5338
   82SAPS  H15Y 7736   2.542   4.741   9.062 -0.1166 -0.9673  0.3837
   82SAPS  C316 7737   2.531   4.703   8.860  0.6764  0.8403  0.6477
   82SAPS  H16X 7738   2.629   4.750   8.834  0.2321  0.4046 -1.9665
   82SAPS  H16Y 7739   2.454   4.782   8.845  2.5057  2.2449 -1.6931
   82SAPS  C317 7740   2.503   4.594   8.751 -0.8587  0.0973  0.2986
   82SAPS  H17X 7741   2.406   4.550   8.781 -0.5019 -1.8883 -1.3595
   82SAPS  H17Y 7742   2.593   4.529   8.757 -0.0412  1.2744  0.9321
   82SAPS  C318 7743   2.487   4.661   8.613  0.1452  0.9431  0.4082
   82SAPS  H18X 7744   2.404   4.731   8.590 -0.8178  0.5245  2.5280
   82SAPS  H18Y 7745   2.484   4.597   8.522  0.4487  0.6294  0.6204
   82SAPS  H18Z 7746   2.575   4.727   8.596  0.1234  0.9327  0.2452
   83SAPS     N 7747   3.613   6.094  11.109  0.2723  0.3522 -0.5950
   83SAPS   HN1 7748   3.690   6.164  11.113 -0.5338  1.2036  0.3434
   83SAPS   HN2 7749   3.622   6.027  11.030 -1.3916 -0.3934 -0.1598
   83SAPS   HN3 7750   3.523   6.143  11.094 -0.3394 -0.0695  1.5602
   83SAPS   C12 7751   3.630   6.012  11.234  0.6961  0.3487  0.7725
   83SAPS  H12A 7752   3.674   6.071  11.313 -0.8753 -1.1159  2.7930
   83SAPS   C13 7753   3.508   5.941  11.298 -0.4203 -0.7137  0.6001
   83SAPS  O13A 7754   3.394   5.941  11.246 -0.0930  0.0400 -0.4321
   83SAPS  O13B 7755   3.532   5.872  11.400  0.1747 -0.4062 -0.2901
   83SAPS   C11 7756   3.729   5.899  11.180  0.5307  0.7907  0.7107
   83SAPS  H11A 7757   3.679   5.842  11.098  2.0603 -1.0500  1.0174
   83SAPS  H11B 7758   3.747   5.835  11.269 -4.2687 -0.1504  1.1460
   83SAPS     P 7759   3.969   5.835  11.092 -0.5135 -0.2803 -0.3560
   83SAPS   O13 7760   4.104   5.890  11.122  0.1508  0.1986 -0.3752
   83SAPS   O14 7761   3.935   5.700  11.151  0.1300 -0.5086 -0.0734
   83SAPS   O12 7762   3.860   5.946  11.137 -0.2091  0.2070 -0.6098
   83SAPS   O11 7763   3.971   5.823  10.939  0.2589 -0.3115 -0.7768
   83SAPS    C1 7764   3.849   5.829  10.864 -0.7016 -0.0299  0.2394
   83SAPS    HA 7765   3.856   5.739  10.799  2.1899  1.0188 -0.9494
   83SAPS    HB 7766   3.755   5.813  10.921 -0.2451 -0.8025  0.7923
   83SAPS    C2 7767   3.846   5.948  10.760 -0.4784  0.4405 -0.3828
   83SAPS    HS 7768   3.843   6.039  10.823  1.1989  0.4086 -0.2452
   83SAPS   O21 7769   3.727   5.949  10.672 -0.3824  1.1863 -0.1814
   83SAPS   C21 7770   3.612   5.957  10.734  0.5154 -0.2231 -0.2274
   83SAPS   O22 7771   3.593   5.972  10.852 -0.2364 -0.5720 -0.3939
   83SAPS   C22 7772   3.506   5.958  10.626  0.3273  0.4652  0.3275
   83SAPS   H2R 7773   3.406   5.951  10.674 -0.3720  1.4501 -0.9312
   83SAPS   H2S 7774   3.517   6.056  10.573  2.9381 -1.1830 -2.3346
   83SAPS    C3 7775   3.976   5.962  10.685  0.4697 -0.3241  0.0197
   83SAPS    HX 7776   3.984   5.858  10.647 -0.5188 -0.7133  0.8355
   83SAPS    HY 7777   4.056   5.998  10.752  0.4319 -0.8933  0.3721
   83SAPS   O31 7778   3.976   6.058  10.574  0.1060 -0.1838 -0.3335
   83SAPS   C31 7779   4.094   6.052  10.511 -0.4104 -0.4097 -0.3292
   83SAPS   O32 7780   4.181   5.970  10.541 -0.3681  0.3769 -0.1592
   83SAPS   C32 7781   4.111   6.158  10.401  0.3215 -0.0522  0.1738
   83SAPS   H2X 7782   4.177   6.230  10.454 -1.5369  1.7206  0.1289
   83SAPS   H2Y 7783   4.017   6.213  10.382 -0.0350 -1.3842 -2.1088
   83SAPS   C23 7784   3.506   5.845  10.517 -0.4724  0.5016 -0.7455
   83SAPS   H3R 7785   3.470   5.752  10.568 -0.6191  0.8545 -0.2007
   83SAPS   H3S 7786   3.612   5.833  10.486 -0.8755  0.1787 -2.0550
   83SAPS   C24 7787   3.425   5.887  10.395  0.3950 -0.0424  0.6766
   83SAPS   H4R 7788   3.472   5.977  10.352 -0.3619  0.7646  1.4925
   83SAPS   H4S 7789   3.318   5.902  10.421  0.3884 -0.6814  1.0396
   83SAPS   C25 7790   3.416   5.766  10.305 -0.3755  0.0624  1.2099
   83SAPS   H5R 7791   3.389   5.668  10.347  0.3330 -1.0773 -0.9607
   83SAPS   C26 7792   3.447   5.773  10.174 -0.2934 -0.3722 -0.2228
   83SAPS   H6R 7793   3.426   5.682  10.116 -0.0967 -1.4489  1.3430
   83SAPS   C27 7794   3.500   5.886  10.090  0.3563  0.3840 -0.5743
   83SAPS   H7R 7795   3.545   5.964  10.155  0.8059  0.9116 -1.5096
   83SAPS   H7S 7796   3.412   5.930  10.038 -0.2267  0.9831  0.9093
   83SAPS   C28 7797   3.617   5.843  10.006  0.5834 -0.1326 -0.5461
   83SAPS   H8R 7798   3.711   5.834  10.062  0.0087 -0.2147  0.3989
   83SAPS   C29 7799   3.612   5.816   9.868 -0.5021  0.1206  0.4574
   83SAPS   H9R 7800   3.713   5.796   9.829 -1.0147  0.0254 -0.8354
   83SAPS  C210 7801   3.500   5.824   9.771  0.3238 -0.0915  0.1416
   83SAPS  H10R 7802   3.411   5.857   9.828 -0.2020 -0.6327 -0.3655
   83SAPS  H10S 7803   3.477   5.724   9.729 -1.0843  0.5999 -0.7374
   83SAPS  C211 7804   3.545   5.932   9.666 -0.2599  0.2151 -0.3754
   83SAPS  H11R 7805   3.544   6.033   9.708  1.9489 -0.1738  0.7378
   83SAPS  C212 7806   3.591   5.904   9.541 -0.1583 -0.8177  0.0198
   83SAPS  H12R 7807   3.620   5.973   9.460  2.5959 -4.7697 -2.5287
   83SAPS  C213 7808   3.596   5.771   9.474 -0.2520  0.7885  0.1523
   83SAPS  H13R 7809   3.572   5.780   9.365  2.2140  1.0158 -0.3872
   83SAPS  H13S 7810   3.514   5.707   9.514  0.2890  0.8224  1.3096
   83SAPS  C214 7811   3.736   5.713   9.486  0.1351  0.0978  0.7279
   83SAPS  H14R 7812   3.813   5.746   9.557  2.6903 -1.6280 -1.1613
   83SAPS  C215 7813   3.788   5.629   9.399  0.5826  0.5184  0.2076
   83SAPS  H15R 7814   3.896   5.612   9.406  1.0858  3.1366 -0.4131
   83SAPS  C216 7815   3.725   5.565   9.276 -0.2473  0.0448 -0.4150
   83SAPS  H16R 7816   3.654   5.637   9.230  0.2961  0.7136 -0.2141
   83SAPS  H16S 7817   3.652   5.488   9.310  0.6793  0.6063  3.0032
   83SAPS  C217 7818   3.809   5.507   9.163 -0.6602  0.7265 -0.0348
   83SAPS  H17R 7819   3.750   5.473   9.074 -1.5700  1.7566  0.1610
   83SAPS  H17S 7820   3.866   5.419   9.199  1.2874  1.2654 -1.7178
   83SAPS  C218 7821   3.914   5.608   9.106 -0.1753  0.6289 -0.0661
   83SAPS  H18R 7822   3.982   5.646   9.185 -0.1819  3.3611 -1.3200
   83SAPS  H18S 7823   3.854   5.693   9.068  0.4420 -0.2962 -3.2058
   83SAPS  C219 7824   3.993   5.570   8.983 -0.2195  0.0001  0.2659
   83SAPS  H19R 7825   4.061   5.482   8.988 -0.8973 -0.5275  0.1479
   83SAPS  H19S 7826   4.054   5.660   8.958 -1.0986  0.4389 -0.3335
   83SAPS  C220 7827   3.905   5.548   8.859  0.3505  0.3527  0.4010
   83SAPS  H20R 7828   3.814   5.610   8.873 -1.1673 -2.0049  1.3446
   83SAPS  H20S 7829   3.864   5.445   8.867  1.2934  0.0070  0.8699
   83SAPS  H20T 7830   3.967   5.557   8.767 -1.0881  1.9289 -0.4295
   83SAPS   C33 7831   4.190   6.112  10.281  0.7130  0.3837 -0.4571
   83SAPS   H3X 7832   4.160   6.007  10.261  1.9278 -0.0692  0.0611
   83SAPS   H3Y 7833   4.298   6.110  10.305  0.7040  1.2424 -0.3445
   83SAPS   C34 7834   4.172   6.190  10.152  0.4513  0.3496  0.3708
   83SAPS   H4X 7835   4.183   6.297  10.179  2.4336 -0.1319  1.5267
   83SAPS   H4Y 7836   4.070   6.181  10.107  1.4607  0.2574 -1.9584
   83SAPS   C35 7837   4.273   6.156  10.039  0.1038 -0.7123 -0.5807
   83SAPS   H5X 7838   4.266   6.055   9.993 -0.4547 -2.1318  2.4859
   83SAPS   H5Y 7839   4.381   6.168  10.064  0.1538 -1.2866 -0.5171
   83SAPS   C36 7840   4.266   6.249   9.922  0.0463  0.4247  0.0978
   83SAPS   H6X 7841   4.275   6.352   9.964 -2.0071  0.4765  0.4564
   83SAPS   H6Y 7842   4.176   6.240   9.858  1.3060 -1.5083 -1.4644
   83SAPS   C37 7843   4.372   6.230   9.811  0.1676  0.3641  0.4575
   83SAPS   H7X 7844   4.470   6.256   9.858  2.4611 -2.3273 -2.5717
   83SAPS   H7Y 7845   4.354   6.309   9.735 -2.0533 -1.3339 -0.8340
   83SAPS   C38 7846   4.382   6.098   9.745 -0.6460 -0.5315  0.0123
   83SAPS   H8X 7847   4.284   6.070   9.701 -2.0092  2.5418  0.9739
   83SAPS   H8Y 7848   4.407   6.031   9.830 -1.3933 -1.5527 -0.5653
   83SAPS   C39 7849   4.488   6.080   9.636  0.4951  0.1181  0.0087
   83SAPS   H9X 7850   4.504   5.973   9.611  0.0332 -0.1530  0.8391
   83SAPS   H9Y 7851   4.585   6.115   9.677  0.2319  1.5829 -0.5896
   83SAPS  C310 7852   4.466   6.152   9.505  0.3204 -0.7428 -0.7977
   83SAPS  H10X 7853   4.461   6.261   9.524  0.4522 -0.9237  0.3267
   83SAPS  H10Y 7854   4.370   6.112   9.465 -0.2445 -0.9163  0.7052
   83SAPS  C311 7855   4.576   6.124   9.399  0.1825 -0.4046  0.8146
   83SAPS  H11X 7856   4.565   6.018   9.367 -1.2566  0.0928 -0.3803
   83SAPS  H11Y 7857   4.676   6.141   9.445  0.0699  1.6288  0.3314
   83SAPS  C312 7858   4.574   6.223   9.289 -0.3380  0.2536  0.4004
   83SAPS  H12X 7859   4.600   6.325   9.326  0.5816  0.2028 -0.0758
   83SAPS  H12Y 7860   4.469   6.237   9.254 -1.2093 -2.0111  2.0209
   83SAPS  C313 7861   4.674   6.191   9.175  0.5051  0.2336 -0.0401
   83SAPS  H13X 7862   4.636   6.102   9.121  0.1343 -0.0355  0.6712
   83SAPS  H13Y 7863   4.766   6.166   9.231 -0.3150  1.2499  1.7874
   83SAPS  C314 7864   4.697   6.296   9.071 -0.7508 -0.4574 -0.0132
   83SAPS  H14X 7865   4.735   6.392   9.114 -2.3162  0.2013 -0.0620
   83SAPS  H14Y 7866   4.608   6.317   9.008  0.1286  0.3080 -1.0040
   83SAPS  C315 7867   4.801   6.254   8.964 -0.2955 -0.4190 -0.1949
   83SAPS  H15X 7868   4.771   6.161   8.911 -0.4365 -0.1769 -0.5417
   83SAPS  H15Y 7869   4.902   6.246   9.011 -0.3285 -2.9932 -0.4900
   83SAPS  C316 7870   4.812   6.361   8.856  0.3854  0.5319  0.1510
   83SAPS  H16X 7871   4.795   6.462   8.898  0.2821  0.3582  0.5259
   83SAPS  H16Y 7872   4.731   6.329   8.787 -0.8042  1.8937  0.8995
   83SAPS  C317 7873   4.946   6.363   8.785 -0.3017  0.2736 -0.0695
   83SAPS  H17X 7874   4.983   6.261   8.762  0.7120  1.0596 -2.0609
   83SAPS  H17Y 7875   5.019   6.396   8.862 -0.3091 -3.0875  1.4667
   83SAPS  C318 7876   4.953   6.451   8.659 -0.1917  0.3936 -0.3281
   83SAPS  H18X 7877   4.875   6.402   8.596 -2.1783  1.1476  1.5006
   83SAPS  H18Y 7878   5.053   6.431   8.614 -0.0904 -0.9933  0.4645
   83SAPS  H18Z 7879   4.933   6.554   8.694  2.3876  0.9780 -0.4446
   84SAPS     N 7880   5.434   5.694  11.066 -0.7908  0.6373 -0.0091
   84SAPS   HN1 7881   5.505   5.672  10.993  2.6458 -0.3167  3.4875
   84SAPS   HN2 7882   5.342   5.688  11.018 -1.6524  1.4504  1.5103
   84SAPS   HN3 7883   5.433   5.795  11.091 -0.7456  0.7483 -0.4370
   84SAPS   C12 7884   5.433   5.606  11.184  0.0627  0.2638 -1.1248
   84SAPS  H12A 7885   5.520   5.621  11.246  0.6871 -1.0189 -1.6752
   84SAPS   C13 7886   5.317   5.628  11.287  0.0139 -0.3676  0.3832
   84SAPS  O13A 7887   5.212   5.671  11.243 -0.0727 -0.6855 -0.0232
   84SAPS  O13B 7888   5.323   5.591  11.407  0.3896 -0.0212  0.1727
   84SAPS   C11 7889   5.423   5.456  11.130 -0.0953  0.3041 -0.5411
   84SAPS  H11A 7890   5.326   5.434  11.081  0.7821  1.2725 -2.7666
   84SAPS  H11B 7891   5.422   5.384  11.215 -0.5225  1.2771  0.2959
   84SAPS     P 7892   5.567   5.278  11.015 -0.4805 -0.2276 -0.0562
   84SAPS   O13 7893   5.691   5.238  11.087 -0.1727  0.0408  0.1339
   84SAPS   O14 7894   5.455   5.191  11.042 -0.0373 -0.6272  0.0021
   84SAPS   O12 7895   5.534   5.428  11.047  0.3392  0.1124  0.7362
   84SAPS   O11 7896   5.602   5.285  10.854  0.0772  0.7040 -0.3491
   84SAPS    C1 7897   5.501   5.350  10.777 -0.3226  0.1320  0.3880
   84SAPS    HA 7898   5.399   5.315  10.804 -0.0490 -1.7386 -0.9227
   84SAPS    HB 7899   5.503   5.461  10.781 -0.4639  0.1500 -0.0427
   84SAPS    C2 7900   5.514   5.308  10.623  0.5588 -0.3855  0.4405
   84SAPS    HS 7901   5.490   5.200  10.637 -1.6341 -0.2154 -1.5852
   84SAPS   O21 7902   5.635   5.331  10.564 -0.1546 -0.5586  0.1633
   84SAPS   C21 7903   5.664   5.241  10.474 -0.5761  0.5771  0.2312
   84SAPS   O22 7904   5.592   5.147  10.435 -0.4730 -0.2669  0.5507
   84SAPS   C22 7905   5.805   5.264  10.423 -0.3875  0.0061 -0.5956
   84SAPS   H2R 7906   5.850   5.365  10.434  1.7397 -0.9529 -0.2907
   84SAPS   H2S 7907   5.865   5.180  10.464 -1.6949 -1.0206 -0.7515
   84SAPS    C3 7908   5.406   5.384  10.547 -0.2322  0.0856 -0.5681
   84SAPS    HX 7909   5.453   5.483  10.526  1.5289 -0.5268  0.4352
   84SAPS    HY 7910   5.318   5.411  10.610  0.7098  1.7389  0.0665
   84SAPS   O31 7911   5.365   5.306  10.434 -0.2165  0.7629  0.4034
   84SAPS   C31 7912   5.274   5.213  10.450  0.0739 -0.0125  0.3806
   84SAPS   O32 7913   5.238   5.170  10.558  0.6275  0.1219  0.1185
   84SAPS   C32 7914   5.193   5.199  10.317 -0.0601 -0.7776 -0.2865
   84SAPS   H2X 7915   5.240   5.266  10.242  0.6319  1.4323  2.0484
   84SAPS   H2Y 7916   5.090   5.232  10.343 -0.2100  0.2370 -2.0468
   84SAPS   C23 7917   5.823   5.243  10.265  0.4746  0.1278  0.1821
   84SAPS   H3R 7918   5.782   5.143  10.237 -2.7593  1.8779 -1.5778
   84SAPS   H3S 7919   5.933   5.248  10.249  0.6317 -0.6530  0.9480
   84SAPS   C24 7920   5.769   5.363  10.184  0.1632 -0.2940  0.1977
   84SAPS   H4R 7921   5.836   5.375  10.096 -0.8798  0.0846 -0.5654
   84SAPS   H4S 7922   5.779   5.456  10.244  0.6245 -0.5555  0.5261
   84SAPS   C25 7923   5.626   5.341  10.150  0.1445 -0.2392  0.1827
   84SAPS   H5R 7924   5.582   5.261  10.211  0.8492  0.1804  1.2556
   84SAPS   C26 7925   5.563   5.378  10.044 -0.3001 -0.5592  0.9135
   84SAPS   H6R 7926   5.463   5.341  10.016  0.1633  0.7987 -2.7434
   84SAPS   C27 7927   5.628   5.460   9.933  0.7714 -0.6508 -0.4800
   84SAPS   H7R 7928   5.713   5.515   9.977  0.8261 -1.7667  0.8696
   84SAPS   H7S 7929   5.553   5.542   9.925  0.2085 -1.3510 -2.5725
   84SAPS   C28 7930   5.656   5.373   9.810 -0.0667  0.4763 -0.2893
   84SAPS   H8R 7931   5.666   5.265   9.831  0.0772  0.9146  2.0327
   84SAPS   C29 7932   5.687   5.417   9.686  0.3864  0.9624 -0.9874
   84SAPS   H9R 7933   5.713   5.345   9.607  0.2897  0.5540 -0.6478
   84SAPS  C210 7934   5.707   5.563   9.642  0.5302 -0.6327 -0.4237
   84SAPS  H10R 7935   5.662   5.618   9.728 -1.5185 -1.0846 -1.1785
   84SAPS  H10S 7936   5.635   5.584   9.560 -1.3734 -1.5542  0.9726
   84SAPS  C211 7937   5.853   5.616   9.634 -0.0788  0.6172 -0.8040
   84SAPS  H11R 7938   5.928   5.571   9.701 -2.4872  0.8899  2.1493
   84SAPS  C212 7939   5.902   5.692   9.537  0.4470 -0.3770  0.2958
   84SAPS  H12R 7940   6.010   5.716   9.540 -0.0255  2.0869 -1.2423
   84SAPS  C213 7941   5.826   5.762   9.423  0.0016  0.0301  0.7777
   84SAPS  H13R 7942   5.720   5.730   9.429  0.3660 -1.2441  0.6124
   84SAPS  H13S 7943   5.865   5.713   9.331 -2.9406  0.2179 -0.6224
   84SAPS  C214 7944   5.830   5.912   9.411  1.0215  0.2470  0.3256
   84SAPS  H14R 7945   5.865   5.961   9.502 -2.5602  1.2833  1.1986
   84SAPS  C215 7946   5.787   5.978   9.300  0.6672  0.1712  0.3490
   84SAPS  H15R 7947   5.794   6.088   9.307 -0.4263  0.1998  1.2853
   84SAPS  C216 7948   5.728   5.918   9.170 -0.7299  0.5731 -0.3097
   84SAPS  H16R 7949   5.631   5.970   9.154 -0.9182  1.0656  2.3044
   84SAPS  H16S 7950   5.707   5.811   9.190  0.3744  0.2065 -1.0591
   84SAPS  C217 7951   5.811   5.941   9.034  0.9065 -0.4430 -0.0043
   84SAPS  H17R 7952   5.768   5.882   8.950 -0.3503  1.3814 -0.6886
   84SAPS  H17S 7953   5.908   5.890   9.045  0.7201 -0.7891  0.0245
   84SAPS  C218 7954   5.812   6.087   8.997 -0.1611 -0.1721  0.0130
   84SAPS  H18R 7955   5.905   6.111   8.941  0.0013  4.1791  1.9166
   84SAPS  H18S 7956   5.810   6.160   9.081 -1.9092  0.6468 -0.7154
   84SAPS  C219 7957   5.691   6.131   8.912  0.6306  0.5622 -0.1064
   84SAPS  H19R 7958   5.599   6.148   8.972  0.0571 -0.7532 -0.5813
   84SAPS  H19S 7959   5.671   6.047   8.842  1.0389  0.4878 -0.1362
   84SAPS  C220 7960   5.700   6.267   8.838  0.3514 -0.3716  0.0288
   84SAPS  H20R 7961   5.798   6.275   8.785  1.0055 -2.6012  0.8016
   84SAPS  H20S 7962   5.680   6.350   8.909  0.6211 -0.8595  0.6876
   84SAPS  H20T 7963   5.635   6.259   8.749  0.7295  0.5783 -0.3355
   84SAPS   C33 7964   5.193   5.056  10.261  0.0415  0.5357 -0.3976
   84SAPS   H3X 7965   5.092   5.016  10.284  1.3245 -1.5855  1.7460
   84SAPS   H3Y 7966   5.270   4.992  10.308 -0.8760  0.1796  0.6394
   84SAPS   C34 7967   5.195   5.062  10.109  0.3068 -0.0428  0.2673
   84SAPS   H4X 7968   5.144   5.148  10.061  3.8769  0.9677 -1.8897
   84SAPS   H4Y 7969   5.139   4.975  10.070  0.7741  0.7982 -2.4058
   84SAPS   C35 7970   5.336   5.055  10.051  0.7719  0.2066  0.6613
   84SAPS   H5X 7971   5.373   4.956  10.087  5.6200  0.5401 -2.9526
   84SAPS   H5Y 7972   5.394   5.144  10.084 -1.0473  1.8685 -0.5309
   84SAPS   C36 7973   5.332   5.060   9.898  0.3257  0.4515  0.2619
   84SAPS   H6X 7974   5.287   5.159   9.878  1.5256  0.8740 -0.3785
   84SAPS   H6Y 7975   5.259   4.983   9.864 -1.3223  0.4331  3.6554
   84SAPS   C37 7976   5.470   5.028   9.836 -0.1758  0.4369  0.4768
   84SAPS   H7X 7977   5.506   4.931   9.876 -0.9100 -0.4994 -1.0582
   84SAPS   H7Y 7978   5.547   5.107   9.851 -0.7429  1.5727 -2.2110
   84SAPS   C38 7979   5.448   5.015   9.678 -0.3932 -0.6031 -0.2144
   84SAPS   H8X 7980   5.380   4.930   9.656 -2.9021  1.2028  0.3156
   84SAPS   H8Y 7981   5.547   4.986   9.637 -0.7688 -0.8907 -0.9335
   84SAPS   C39 7982   5.406   5.139   9.596  0.1206  0.4790 -0.2678
   84SAPS   H9X 7983   5.477   5.225   9.603 -0.1964  0.9521 -2.4770
   84SAPS   H9Y 7984   5.312   5.176   9.643 -0.2905 -2.8601  1.6761
   84SAPS  C310 7985   5.386   5.106   9.449 -0.3144  0.7362 -0.0681
   84SAPS  H10X 7986   5.331   5.011   9.428 -0.7850  0.6037  1.7269
   84SAPS  H10Y 7987   5.490   5.084   9.415  0.4833  0.0072  2.7142
   84SAPS  C311 7988   5.318   5.219   9.373 -0.0142  0.2876 -0.3302
   84SAPS  H11X 7989   5.397   5.296   9.380 -1.0544  1.1573  2.3388
   84SAPS  H11Y 7990   5.236   5.256   9.438 -0.7499 -0.4146 -0.8449
   84SAPS  C312 7991   5.279   5.182   9.230  0.8064  0.0447  0.3993
   84SAPS  H12X 7992   5.358   5.128   9.174  1.9464 -0.9696  2.8707
   84SAPS  H12Y 7993   5.251   5.276   9.179 -2.4243 -1.2487 -0.2854
   84SAPS  C313 7994   5.154   5.094   9.241  0.4191  0.4316  0.1083
   84SAPS  H13X 7995   5.075   5.112   9.317 -2.4568 -2.7857 -1.9512
   84SAPS  H13Y 7996   5.186   4.992   9.270  0.7424  0.4910 -0.0362
   84SAPS  C314 7997   5.085   5.079   9.097  0.2123  1.1155 -1.3021
   84SAPS  H14X 7998   5.160   5.104   9.019  1.0301 -0.9882 -1.2249
   84SAPS  H14Y 7999   5.010   5.159   9.086  1.0241  2.1391  0.5103
   84SAPS  C315 8000   5.042   4.939   9.062  0.0467  0.5149  0.3291
   84SAPS  H15X 8001   5.133   4.876   9.049 -0.5151 -0.1348 -0.5178
   84SAPS  H15Y 8002   4.995   4.940   8.961 -3.9015 -1.9889  2.0314
   84SAPS  C316 8003   4.947   4.876   9.167 -0.5500  0.8128 -0.1389
   84SAPS  H16X 8004   4.865   4.946   9.192 -2.3852 -1.4608  0.3433
   84SAPS  H16Y 8005   4.999   4.854   9.263 -1.4799 -2.4085 -0.3136
   84SAPS  C317 8006   4.891   4.742   9.123  0.6099  0.6863 -0.3682
   84SAPS  H17X 8007   4.856   4.746   9.018 -0.6132  1.6089  0.0763
   84SAPS  H17Y 8008   4.808   4.716   9.192  0.3756 -0.9090 -1.2315
   84SAPS  C318 8009   4.984   4.622   9.141 -0.1370  0.5712  0.2745
   84SAPS  H18X 8010   5.086   4.649   9.106 -0.0394  0.3277  0.3705
   84SAPS  H18Y 8011   4.944   4.531   9.092 -0.6040  1.3697 -0.8647
   84SAPS  H18Z 8012   5.001   4.593   9.247  0.7851 -0.1713 -0.0699
   85SAPS     N 8013   2.980   6.627  10.912 -0.0996 -0.3867 -0.6249
   85SAPS   HN1 8014   2.979   6.532  10.954 -0.1398  0.0283  0.3101
   85SAPS   HN2 8015   2.942   6.623  10.815 -1.4125 -2.0785 -0.0609
   85SAPS   HN3 8016   3.080   6.653  10.923  0.3363 -2.4079  0.3944
   85SAPS   C12 8017   2.904   6.723  11.002 -0.1127  0.8288 -0.2345
   85SAPS  H12A 8018   2.815   6.670  11.035  1.2970 -0.3916  1.6958
   85SAPS   C13 8019   2.983   6.764  11.127  0.4171  0.4577 -0.3820
   85SAPS  O13A 8020   3.088   6.704  11.164  0.8638 -0.2691  0.0761
   85SAPS  O13B 8021   2.926   6.840  11.208  0.0371  0.6632 -0.7316
   85SAPS   C11 8022   2.874   6.848  10.916 -0.6130  0.3186 -0.1168
   85SAPS  H11A 8023   2.968   6.893  10.877 -0.8908  2.5692  1.6760
   85SAPS  H11B 8024   2.824   6.928  10.976 -2.2825  1.2339 -2.6003
   85SAPS     P 8025   2.635   6.789  10.810 -0.1165 -0.0013  0.1771
   85SAPS   O13 8026   2.609   6.686  10.705 -0.3713 -0.0528  0.3813
   85SAPS   O14 8027   2.591   6.772  10.950 -0.2492 -0.0338  0.1344
   85SAPS   O12 8028   2.784   6.821  10.807 -0.8784  0.1345  0.8449
   85SAPS   O11 8029   2.578   6.926  10.753  1.0092 -0.0195  0.5515
   85SAPS    C1 8030   2.649   7.009  10.667  0.0010 -0.6202 -0.8934
   85SAPS    HA 8031   2.746   7.031  10.717  0.1724 -2.7491 -0.2091
   85SAPS    HB 8032   2.662   6.955  10.571  1.2873 -2.0032  0.0275
   85SAPS    C2 8033   2.571   7.136  10.639 -0.3421  0.1360  0.0942
   85SAPS    HS 8034   2.508   7.150  10.729 -1.6904  0.7124 -0.8987
   85SAPS   O21 8035   2.476   7.116  10.531 -0.1417  0.1778 -0.6081
   85SAPS   C21 8036   2.372   7.205  10.520 -0.4768 -0.1474  0.1324
   85SAPS   O22 8037   2.351   7.295  10.595 -0.4334 -0.1169  0.3459
   85SAPS   C22 8038   2.290   7.167  10.401 -0.4419  0.8973 -0.7824
   85SAPS   H2R 8039   2.214   7.098  10.440 -2.6773  2.8688 -1.5195
   85SAPS   H2S 8040   2.243   7.259  10.359 -3.2683 -1.6074 -3.3128
   85SAPS    C3 8041   2.665   7.252  10.631  0.4740  0.5877 -0.2021
   85SAPS    HX 8042   2.707   7.267  10.733  0.1887  2.0128 -0.2869
   85SAPS    HY 8043   2.610   7.347  10.615  0.6697  0.9004  0.9019
   85SAPS   O31 8044   2.765   7.225  10.530 -0.0107  0.3559 -0.3020
   85SAPS   C31 8045   2.742   7.264  10.412  0.9386 -0.0189  0.0934
   85SAPS   O32 8046   2.641   7.327  10.375  0.1915  0.4916 -0.1228
   85SAPS   C32 8047   2.870   7.235  10.324 -0.0743  0.3380  0.5595
   85SAPS   H2X 8048   2.904   7.129  10.322  1.8459  0.9426 -2.9916
   85SAPS   H2Y 8049   2.958   7.286  10.369 -0.6365  2.1271 -0.3462
   85SAPS   C23 8050   2.367   7.105  10.276 -0.2079 -0.5297 -0.7354
   85SAPS   H3R 8051   2.426   7.016  10.308 -1.4644  0.0173  3.3859
   85SAPS   H3S 8052   2.420   7.191  10.231 -0.4042  0.5086  1.0180
   85SAPS   C24 8053   2.260   7.047  10.182  0.3453 -0.2757 -0.2036
   85SAPS   H4R 8054   2.222   6.954  10.231 -0.2409 -1.3005 -2.5069
   85SAPS   H4S 8055   2.293   7.016  10.081  0.4837 -0.5193 -0.0866
   85SAPS   C25 8056   2.142   7.139  10.166 -0.1488  0.0128  0.3470
   85SAPS   H5R 8057   2.070   7.131  10.250  0.1732  0.1176  0.6321
   85SAPS   C26 8058   2.114   7.216  10.061 -0.8044  0.7090 -0.3422
   85SAPS   H6R 8059   2.032   7.289  10.068 -0.8492  0.5517  0.8383
   85SAPS   C27 8060   2.209   7.238   9.945  0.2457 -0.6942  0.5074
   85SAPS   H7R 8061   2.317   7.227   9.968  0.4366  0.2185  0.0681
   85SAPS   H7S 8062   2.206   7.347   9.928  1.0733 -0.7025  0.3034
   85SAPS   C28 8063   2.160   7.171   9.820  0.0542  0.4034 -0.8011
   85SAPS   H8R 8064   2.071   7.107   9.831 -1.0051  1.7298 -1.4894
   85SAPS   C29 8065   2.222   7.189   9.708 -0.0879  0.4257 -0.5014
   85SAPS   H9R 8066   2.185   7.138   9.618  0.1330  0.3934 -0.5707
   85SAPS  C210 8067   2.339   7.278   9.671 -0.6811 -0.2521  0.2111
   85SAPS  H10R 8068   2.344   7.372   9.729 -1.7799 -0.1181  0.0909
   85SAPS  H10S 8069   2.326   7.317   9.567 -0.2806 -1.4896 -0.3143
   85SAPS  C211 8070   2.476   7.216   9.692  0.9547 -0.6066  0.0333
   85SAPS  H11R 8071   2.497   7.186   9.796  2.7668 -2.4614 -0.8192
   85SAPS  C212 8072   2.582   7.206   9.611 -0.4221  0.2516  0.3955
   85SAPS  H12R 8073   2.673   7.161   9.653 -0.1048  0.7481  0.2423
   85SAPS  C213 8074   2.596   7.248   9.463  0.2024  0.2066  0.3382
   85SAPS  H13R 8075   2.688   7.309   9.472  0.7671 -0.4609 -0.7114
   85SAPS  H13S 8076   2.516   7.317   9.428  1.4978  0.6861 -1.8440
   85SAPS  C214 8077   2.610   7.128   9.377 -0.7077 -0.1044 -0.4871
   85SAPS  H14R 8078   2.562   7.038   9.420 -0.3689  0.0144  0.1529
   85SAPS  C215 8079   2.672   7.118   9.255  0.1825 -0.1013 -0.3702
   85SAPS  H15R 8080   2.681   7.018   9.209 -2.3851  0.1049 -1.4039
   85SAPS  C216 8081   2.734   7.230   9.187 -0.4358  0.1894 -0.2629
   85SAPS  H16R 8082   2.829   7.190   9.147 -0.5684  0.8052 -1.2264
   85SAPS  H16S 8083   2.753   7.315   9.256 -1.2147  1.5919 -1.7457
   85SAPS  C217 8084   2.650   7.288   9.075  0.1718  0.2705  0.9655
   85SAPS  H17R 8085   2.619   7.205   9.008 -1.3965  0.8647  0.9261
   85SAPS  H17S 8086   2.709   7.362   9.016 -0.6170  0.0295 -0.1459
   85SAPS  C218 8087   2.532   7.368   9.129  0.0307  0.5266 -0.7685
   85SAPS  H18R 8088   2.563   7.435   9.213 -0.8113  0.4450 -0.3936
   85SAPS  H18S 8089   2.456   7.300   9.173 -0.0337 -0.0113 -1.6951
   85SAPS  C219 8090   2.458   7.446   9.024  0.5931 -0.5235 -0.1418
   85SAPS  H19R 8091   2.394   7.385   8.958  0.2817  0.0871 -0.4094
   85SAPS  H19S 8092   2.537   7.500   8.967  0.3427 -0.4751 -0.4393
   85SAPS  C220 8093   2.374   7.563   9.082 -0.4418  0.4066  0.1691
   85SAPS  H20R 8094   2.435   7.608   9.164  1.3785 -1.5468 -0.0861
   85SAPS  H20S 8095   2.282   7.526   9.133 -0.8710  1.3595  0.0973
   85SAPS  H20T 8096   2.349   7.632   8.999 -0.7760 -0.9912 -0.9077
   85SAPS   C33 8097   2.858   7.277  10.177  0.2953  0.0436 -1.0577
   85SAPS   H3X 8098   2.967   7.285  10.154  0.5028  1.3213  0.2352
   85SAPS   H3Y 8099   2.814   7.377  10.157 -2.1638 -0.5382  1.1144
   85SAPS   C34 8100   2.791   7.168  10.090 -0.2952 -0.4567  0.6929
   85SAPS   H4X 8101   2.686   7.200  10.076 -1.5158 -4.1036  0.9213
   85SAPS   H4Y 8102   2.777   7.074  10.148 -0.2451 -0.2382  1.0628
   85SAPS   C35 8103   2.862   7.142   9.958 -0.2462  0.1040  0.0171
   85SAPS   H5X 8104   2.970   7.124   9.980  0.1353  1.4825 -0.6428
   85SAPS   H5Y 8105   2.847   7.233   9.895 -0.4530 -1.7064 -2.6264
   85SAPS   C36 8106   2.821   7.015   9.873  0.3237 -0.3176 -0.8521
   85SAPS   H6X 8107   2.710   7.022   9.870  0.1693 -2.3096 -0.8241
   85SAPS   H6Y 8108   2.847   6.922   9.928  3.2856  0.8817 -0.1544
   85SAPS   C37 8109   2.885   7.020   9.731 -0.0897  0.0427  0.4359
   85SAPS   H7X 8110   2.989   6.989   9.756 -0.4637 -1.0890  0.6394
   85SAPS   H7Y 8111   2.887   7.125   9.697 -0.8898 -0.4099 -1.0709
   85SAPS   C38 8112   2.818   6.919   9.624 -0.0762  0.1853 -0.4973
   85SAPS   H8X 8113   2.714   6.958   9.619 -1.1451 -2.6418 -0.8557
   85SAPS   H8Y 8114   2.818   6.817   9.666  2.6217  0.5961  0.6146
   85SAPS   C39 8115   2.869   6.921   9.483 -0.1864  1.0541  1.1951
   85SAPS   H9X 8116   2.980   6.915   9.481 -0.2087  0.7327  0.1183
   85SAPS   H9Y 8117   2.851   7.021   9.438 -0.6827  1.0622  1.4132
   85SAPS  C310 8118   2.822   6.797   9.401 -0.6783  0.0445  0.5669
   85SAPS  H10X 8119   2.712   6.793   9.384 -0.3469  1.4482 -2.1121
   85SAPS  H10Y 8120   2.853   6.699   9.442  1.0939  0.6723  0.7413
   85SAPS  C311 8121   2.876   6.789   9.258 -0.0174  0.2114 -0.1125
   85SAPS  H11X 8122   2.986   6.782   9.259 -0.0220  0.1055 -0.4133
   85SAPS  H11Y 8123   2.846   6.876   9.195 -0.3667  1.0378  1.1823
   85SAPS  C312 8124   2.805   6.670   9.179  0.3634 -0.1815 -0.5399
   85SAPS  H12X 8125   2.694   6.675   9.180  0.1843 -3.2013 -0.7855
   85SAPS  H12Y 8126   2.833   6.581   9.239  0.5093  1.1320  1.3957
   85SAPS  C313 8127   2.851   6.665   9.030 -0.3728 -0.3648  0.4821
   85SAPS  H13X 8128   2.826   6.763   8.984 -1.3140 -0.7909  0.0810
   85SAPS  H13Y 8129   2.803   6.583   8.973  1.1643 -0.3601 -0.8624
   85SAPS  C314 8130   3.007   6.660   9.014 -0.0685 -0.0162 -0.2775
   85SAPS  H14X 8131   3.044   6.563   9.052  1.2014  0.9069  0.9424
   85SAPS  H14Y 8132   3.059   6.756   9.034 -2.1332  1.1772 -0.4611
   85SAPS  C315 8133   3.045   6.644   8.868  0.2758  0.2635  0.6972
   85SAPS  H15X 8134   2.997   6.729   8.815 -0.1395 -0.8734 -0.7856
   85SAPS  H15Y 8135   2.988   6.558   8.826  2.0745 -0.6881  0.1404
   85SAPS  C316 8136   3.188   6.644   8.829  0.0758  0.4850 -0.1900
   85SAPS  H16X 8137   3.235   6.716   8.899 -0.0121  0.7013 -0.3545
   85SAPS  H16Y 8138   3.190   6.679   8.723 -2.5876 -0.3991 -0.5634
   85SAPS  C317 8139   3.259   6.511   8.838 -0.7178  0.2790  0.1088
   85SAPS  H17X 8140   3.258   6.478   8.945 -1.8801  2.1266  0.7018
   85SAPS  H17Y 8141   3.365   6.533   8.815 -1.5148  2.0468 -2.0844
   85SAPS  C318 8142   3.219   6.400   8.732 -1.1864  1.3260 -0.4641
   85SAPS  H18X 8143   3.113   6.370   8.748  0.1036 -1.9911  2.4122
   85SAPS  H18Y 8144   3.285   6.312   8.743 -0.5531  1.6855 -1.3553
   85SAPS  H18Z 8145   3.234   6.440   8.630 -1.1943 -0.0878 -1.0248
   86SAPS     N 8146   4.578   6.674  10.971  0.1640 -0.5826  0.2778
   86SAPS   HN1 8147   4.618   6.686  10.876 -1.1936  1.2294 -0.1151
   86SAPS   HN2 8148   4.596   6.576  10.997  1.5604  0.3273  2.8893
   86SAPS   HN3 8149   4.475   6.689  10.961  0.2189 -0.6179 -0.4032
   86SAPS   C12 8150   4.626   6.771  11.075 -0.4011  0.5252  0.4442
   86SAPS  H12A 8151   4.580   6.743  11.169 -0.9039 -1.9565 -0.5018
   86SAPS   C13 8152   4.772   6.776  11.122 -0.4871 -0.2914  1.0974
   86SAPS  O13A 8153   4.854   6.691  11.074  0.8807  0.0361  0.0801
   86SAPS  O13B 8154   4.811   6.858  11.214  0.6874 -0.2662  1.2228
   86SAPS   C11 8155   4.590   6.918  11.028  0.5480 -0.5475 -0.4708
   86SAPS  H11A 8156   4.650   6.985  11.093 -1.0718 -1.4355  2.0114
   86SAPS  H11B 8157   4.484   6.933  11.058  0.1738 -1.2003 -1.4481
   86SAPS     P 8158   4.589   7.091  10.834 -0.1645  0.0688 -0.3072
   86SAPS   O13 8159   4.560   7.180  10.947 -0.2831  0.0190  0.0770
   86SAPS   O14 8160   4.708   7.129  10.749 -0.2371  0.1544  0.1848
   86SAPS   O12 8161   4.616   6.938  10.888  0.2580 -0.5043 -0.2826
   86SAPS   O11 8162   4.458   7.085  10.746 -0.4718  0.5258  0.2811
   86SAPS    C1 8163   4.427   6.967  10.668 -0.4223 -0.2524  0.0726
   86SAPS    HA 8164   4.451   6.870  10.717  1.4840 -0.5732 -1.4177
   86SAPS    HB 8165   4.316   6.964  10.665 -0.4645  1.2107 -0.4155
   86SAPS    C2 8166   4.476   6.975  10.523 -0.5821  0.3888  0.5265
   86SAPS    HS 8167   4.579   7.015  10.534  0.4427 -1.6161 -1.2023
   86SAPS   O21 8168   4.380   7.048  10.437 -0.7748  0.0349  0.1506
   86SAPS   C21 8169   4.427   7.156  10.379 -1.0185 -0.6267  0.1863
   86SAPS   O22 8170   4.528   7.219  10.411 -0.3401 -0.0301 -0.3992
   86SAPS   C22 8171   4.324   7.219  10.279  0.3968  0.1367  0.2130
   86SAPS   H2R 8172   4.226   7.177  10.309  1.2796 -1.0634  1.4492
   86SAPS   H2S 8173   4.324   7.327  10.306  1.1628  0.7042 -1.9610
   86SAPS    C3 8174   4.499   6.835  10.463  0.2768 -0.3222  0.5344
   86SAPS    HX 8175   4.408   6.808  10.406  0.7587 -0.4557 -0.1728
   86SAPS    HY 8176   4.516   6.756  10.538  2.8600 -0.8437 -0.5622
   86SAPS   O31 8177   4.602   6.829  10.362 -0.3906  0.1255  0.0047
   86SAPS   C31 8178   4.724   6.793  10.399 -0.0723  0.2902 -0.1175
   86SAPS   O32 8179   4.752   6.771  10.516  0.6797 -0.1273  0.6376
   86SAPS   C32 8180   4.817   6.779  10.291  0.6476  0.6216  0.3766
   86SAPS   H2X 8181   4.775   6.716  10.209 -1.5314  0.5411  1.5148
   86SAPS   H2Y 8182   4.910   6.725  10.319  0.7994 -0.0957 -1.4520
   86SAPS   C23 8183   4.359   7.183  10.134  0.3277  0.9684  0.5090
   86SAPS   H3R 8184   4.407   7.083  10.128 -0.5024  0.6801 -2.2814
   86SAPS   H3S 8185   4.441   7.255  10.113  0.5521  0.0966 -1.7083
   86SAPS   C24 8186   4.237   7.217  10.045  0.3027 -0.2034  0.2789
   86SAPS   H4R 8187   4.288   7.237   9.949  1.1963 -0.7209  0.6394
   86SAPS   H4S 8188   4.196   7.311  10.089  0.0894  0.2340 -0.8367
   86SAPS   C25 8189   4.136   7.111  10.027 -0.5782 -0.0456 -0.3376
   86SAPS   H5R 8190   4.079   7.088  10.119 -1.9194  1.4397 -0.7725
   86SAPS   C26 8191   4.109   7.041   9.917 -0.7657 -0.7157  0.1152
   86SAPS   H6R 8192   4.041   6.958   9.939  1.2337 -1.7781  2.4334
   86SAPS   C27 8193   4.175   7.048   9.781  0.0140  0.4089 -0.0442
   86SAPS   H7R 8194   4.223   6.951   9.758 -0.8948  0.6295 -3.0364
   86SAPS   H7S 8195   4.258   7.122   9.780 -0.1375  0.5782 -0.1735
   86SAPS   C28 8196   4.078   7.080   9.666  0.2222 -0.0270  0.9738
   86SAPS   H8R 8197   3.970   7.074   9.687 -0.4437 -2.9336 -2.6253
   86SAPS   C29 8198   4.109   7.093   9.539 -0.0987 -0.4974 -0.2565
   86SAPS   H9R 8199   4.030   7.116   9.465  0.4914  0.7702 -0.5045
   86SAPS  C210 8200   4.242   7.089   9.478  0.3148 -0.2240 -0.5290
   86SAPS  H10R 8201   4.310   7.029   9.542 -0.6751  1.2920  2.0073
   86SAPS  H10S 8202   4.298   7.185   9.469  0.8692 -0.6118 -1.3392
   86SAPS  C211 8203   4.235   7.012   9.344  0.1092 -0.6084  0.7061
   86SAPS  H11R 8204   4.178   6.918   9.342 -1.3096  0.2245  0.8548
   86SAPS  C212 8205   4.283   7.058   9.227 -0.1862  0.9675  0.6235
   86SAPS  H12R 8206   4.270   6.990   9.141 -0.1396  1.5763  0.1264
   86SAPS  C213 8207   4.367   7.179   9.195 -0.3367 -0.4929  0.0589
   86SAPS  H13R 8208   4.340   7.262   9.263 -1.8241 -1.5389  0.7695
   86SAPS  H13S 8209   4.328   7.210   9.095 -0.3925  0.8461  0.4845
   86SAPS  C214 8210   4.512   7.164   9.187 -0.2130  0.3421  0.2612
   86SAPS  H14R 8211   4.563   7.196   9.279  2.5128 -2.6769 -0.1091
   86SAPS  C215 8212   4.595   7.130   9.090 -0.1498 -0.1535 -0.0246
   86SAPS  H15R 8213   4.703   7.129   9.107 -0.3486 -2.0868  1.3048
   86SAPS  C216 8214   4.548   7.091   8.956 -0.3776  0.3400  0.2644
   86SAPS  H16R 8215   4.454   7.033   8.957 -1.0988  1.4295 -2.0386
   86SAPS  H16S 8216   4.628   7.023   8.918 -0.0987 -1.1904  3.3808
   86SAPS  C217 8217   4.533   7.211   8.866  0.3657 -0.2819  0.0551
   86SAPS  H17R 8218   4.628   7.268   8.870  0.4383 -0.2876 -1.2135
   86SAPS  H17S 8219   4.456   7.282   8.904  1.5320 -0.7294  3.3934
   86SAPS  C218 8220   4.501   7.174   8.722 -0.1642  0.5180  0.3651
   86SAPS  H18R 8221   4.572   7.096   8.687 -2.5189 -1.3910 -0.2556
   86SAPS  H18S 8222   4.527   7.266   8.665 -0.3428  1.2115  1.3840
   86SAPS  C219 8223   4.356   7.141   8.689 -0.6614 -0.3113  1.2241
   86SAPS  H19R 8224   4.333   7.051   8.751  0.7669 -1.6512 -0.1310
   86SAPS  H19S 8225   4.356   7.124   8.579 -0.9576  2.5318  0.7479
   86SAPS  C220 8226   4.251   7.253   8.699  0.1301 -0.6047 -0.3903
   86SAPS  H20R 8227   4.159   7.225   8.644 -0.0544 -3.9050  1.4246
   86SAPS  H20S 8228   4.286   7.347   8.653 -1.4847  0.5562  0.6827
   86SAPS  H20T 8229   4.235   7.276   8.807 -0.0861 -2.2537 -0.0463
   86SAPS   C33 8230   4.859   6.917  10.227 -0.4788 -0.3837 -0.1645
   86SAPS   H3X 8231   4.959   6.902  10.181  0.5408 -0.9302  2.1315
   86SAPS   H3Y 8232   4.855   6.994  10.307  2.9036 -1.8237  1.5185
   86SAPS   C34 8233   4.765   6.969  10.117  0.1171  0.5333 -0.2885
   86SAPS   H4X 8234   4.663   6.978  10.160  0.4699  1.8192  0.3109
   86SAPS   H4Y 8235   4.772   6.898  10.032 -0.5337 -0.7340  0.7080
   86SAPS   C35 8236   4.794   7.110  10.060  0.1236 -0.4333 -0.7968
   86SAPS   H5X 8237   4.897   7.120  10.019 -0.0639  0.6635 -1.0210
   86SAPS   H5Y 8238   4.769   7.184  10.138  1.0008  1.4495 -2.2437
   86SAPS   C36 8239   4.723   7.138   9.933  0.2741  0.2203 -0.6436
   86SAPS   H6X 8240   4.613   7.128   9.950  0.1893  1.9289 -0.0814
   86SAPS   H6Y 8241   4.754   7.060   9.861  2.2355 -0.0745  0.4930
   86SAPS   C37 8242   4.736   7.280   9.878 -0.6915 -0.6847 -0.8553
   86SAPS   H7X 8243   4.840   7.302   9.846  0.3637 -1.4574  1.9041
   86SAPS   H7Y 8244   4.705   7.338   9.967  0.7363 -0.5252 -0.4542
   86SAPS   C38 8245   4.636   7.322   9.766 -0.3566  0.3973  0.1345
   86SAPS   H8X 8246   4.635   7.433   9.770 -0.7331  0.3777  0.6512
   86SAPS   H8Y 8247   4.536   7.274   9.766  0.2020 -0.8019 -1.8961
   86SAPS   C39 8248   4.680   7.274   9.619 -0.2414 -0.5101 -0.3494
   86SAPS   H9X 8249   4.628   7.182   9.586  0.5395 -0.7710 -0.8725
   86SAPS   H9Y 8250   4.785   7.237   9.615 -0.0761  0.0896 -1.6577
   86SAPS  C310 8251   4.669   7.375   9.510 -0.1505  0.1940  0.2123
   86SAPS  H10X 8252   4.574   7.432   9.513  0.5251  1.3302  0.5390
   86SAPS  H10Y 8253   4.683   7.324   9.412  1.7840  0.1216  0.5106
   86SAPS  C311 8254   4.781   7.471   9.510  0.2475  0.4739 -0.6022
   86SAPS  H11X 8255   4.875   7.413   9.497  1.0088  1.0069  2.1460
   86SAPS  H11Y 8256   4.774   7.529   9.605  0.9526  3.2961 -2.2158
   86SAPS  C312 8257   4.780   7.571   9.396  0.7527 -0.4412 -0.6376
   86SAPS  H12X 8258   4.855   7.647   9.426 -1.7286  1.7022  0.2963
   86SAPS  H12Y 8259   4.682   7.618   9.374  1.2890  0.7716 -0.4619
   86SAPS  C313 8260   4.837   7.504   9.271  0.4546 -0.6413  0.0751
   86SAPS  H13X 8261   4.761   7.426   9.244 -1.0024  0.8514 -0.2430
   86SAPS  H13Y 8262   4.924   7.444   9.306  1.1761  1.0843  1.2773
   86SAPS  C314 8263   4.846   7.586   9.143 -0.2397  0.5529 -0.2916
   86SAPS  H14X 8264   4.925   7.663   9.152  0.8096 -0.5079 -0.3411
   86SAPS  H14Y 8265   4.753   7.646   9.137 -0.3172  0.8790  3.4799
   86SAPS  C315 8266   4.872   7.508   9.024 -0.3634 -0.1846  0.3483
   86SAPS  H15X 8267   4.795   7.430   9.010  0.6845 -1.0615 -0.6905
   86SAPS  H15Y 8268   4.967   7.450   9.026  0.5308  1.2893  0.9343
   86SAPS  C316 8269   4.888   7.599   8.899  0.4567  0.0734 -0.6117
   86SAPS  H16X 8270   4.963   7.676   8.925 -0.8962  0.7074  1.5124
   86SAPS  H16Y 8271   4.796   7.660   8.889  0.6259  0.5654  0.7497
   86SAPS  C317 8272   4.913   7.537   8.762 -0.5010 -0.1309 -0.7183
   86SAPS  H17X 8273   5.005   7.475   8.763  0.1970  0.8875  0.8038
   86SAPS  H17Y 8274   4.924   7.620   8.689  0.2686 -1.0345 -1.6503
   86SAPS  C318 8275   4.794   7.455   8.701 -0.1700  0.1895 -0.8981
   86SAPS  H18X 8276   4.694   7.485   8.739  0.1246  0.2092 -0.1355
   86SAPS  H18Y 8277   4.803   7.348   8.730  0.7065 -0.6620 -4.1081
   86SAPS  H18Z 8278   4.788   7.457   8.590 -4.2778  1.4629 -0.7471
   87SAPS     N 8279   4.579   1.193  11.073 -0.4066  0.8325 -0.2716
   87SAPS   HN1 8280   4.644   1.213  10.995  0.7462  1.8985  0.9390
   87SAPS   HN2 8281   4.626   1.184  11.166 -0.5197 -2.1295 -0.4678
   87SAPS   HN3 8282   4.534   1.101  11.060  0.8884 -0.0392  1.2554
   87SAPS   C12 8283   4.472   1.288  11.077 -0.0397 -0.6989  0.3457
   87SAPS  H12A 8284   4.415   1.264  11.166  1.4115 -0.4448  1.3732
   87SAPS   C13 8285   4.519   1.435  11.101 -0.2383  0.9018  0.1420
   87SAPS  O13A 8286   4.642   1.462  11.095  0.1226  0.2107 -0.5151
   87SAPS  O13B 8287   4.431   1.519  11.090  0.3012  0.2347  0.0702
   87SAPS   C11 8288   4.386   1.280  10.944  0.0831  0.8280 -0.1748
   87SAPS  H11A 8289   4.452   1.299  10.857  1.2412 -2.6653 -0.1047
   87SAPS  H11B 8290   4.305   1.357  10.952 -1.1850 -0.4322 -0.6435
   87SAPS     P 8291   4.366   1.048  10.839  0.7387  0.5544 -0.0331
   87SAPS   O13 8292   4.500   1.016  10.886  0.1111 -0.5993  0.2889
   87SAPS   O14 8293   4.268   0.936  10.851  0.2650  0.1978  0.9351
   87SAPS   O12 8294   4.311   1.162  10.923  0.1971  0.1688  0.1422
   87SAPS   O11 8295   4.369   1.099  10.689 -0.2352 -0.0520  0.3147
   87SAPS    C1 8296   4.259   1.162  10.635 -0.5618  0.1525 -0.9500
   87SAPS    HA 8297   4.176   1.089  10.620  0.7776 -1.4032 -0.8716
   87SAPS    HB 8298   4.218   1.247  10.694  1.5189  2.1951 -2.3545
   87SAPS    C2 8299   4.299   1.246  10.511 -0.0852 -0.1701 -0.0438
   87SAPS    HS 8300   4.211   1.296  10.464  0.0227  0.6656  0.6202
   87SAPS   O21 8301   4.371   1.163  10.418  0.1982  0.3293  0.6998
   87SAPS   C21 8302   4.294   1.069  10.367  0.4021  0.2164 -0.2785
   87SAPS   O22 8303   4.174   1.058  10.388  0.6221 -1.0409 -0.2905
   87SAPS   C22 8304   4.379   0.984  10.274  0.4438 -0.7469  0.0822
   87SAPS   H2R 8305   4.473   0.968  10.331  0.3105 -1.2086  0.1747
   87SAPS   H2S 8306   4.337   0.882  10.256 -0.5862 -0.7496  2.3078
   87SAPS    C3 8307   4.405   1.361  10.551 -0.0461  0.0026 -0.2218
   87SAPS    HX 8308   4.492   1.305  10.592 -0.6496 -0.2213  0.7789
   87SAPS    HY 8309   4.367   1.417  10.639 -0.3460  0.7275 -0.8100
   87SAPS   O31 8310   4.454   1.440  10.438  0.9978  0.3466  0.1268
   87SAPS   C31 8311   4.387   1.557  10.414  0.2068  0.6381  0.0729
   87SAPS   O32 8312   4.298   1.598  10.487 -0.6103  0.3007 -0.3832
   87SAPS   C32 8313   4.444   1.629  10.298 -0.0436  0.9196 -0.8437
   87SAPS   H2X 8314   4.409   1.570  10.210 -3.1392  4.8927 -2.5110
   87SAPS   H2Y 8315   4.554   1.644  10.298 -0.0973  1.5466  2.0792
   87SAPS   C23 8316   4.407   1.047  10.145  0.4016 -0.1798  0.3467
   87SAPS   H3R 8317   4.463   0.970  10.086 -0.1145  1.2090 -2.0176
   87SAPS   H3S 8318   4.465   1.142  10.146 -0.0562  0.0965  0.6044
   87SAPS   C24 8319   4.279   1.086  10.059  0.1638 -0.4635  0.3629
   87SAPS   H4R 8320   4.317   1.140   9.970 -2.0085 -0.4962 -0.6209
   87SAPS   H4S 8321   4.214   1.168  10.096  1.5579  0.2317  1.3253
   87SAPS   C25 8322   4.190   0.965  10.044 -0.0049  0.1581 -0.0641
   87SAPS   H5R 8323   4.118   0.943  10.125 -0.2865 -1.7140 -0.7936
   87SAPS   C26 8324   4.191   0.887   9.935 -0.1379 -0.6684  0.6276
   87SAPS   H6R 8325   4.123   0.800   9.933  0.2052 -0.9549  1.5668
   87SAPS   C27 8326   4.297   0.889   9.831  0.0524 -0.1723  0.4067
   87SAPS   H7R 8327   4.324   0.784   9.808 -2.8076 -0.5340 -1.5035
   87SAPS   H7S 8328   4.382   0.948   9.871 -1.1196  1.0045  1.2203
   87SAPS   C28 8329   4.238   0.958   9.710 -0.9087  0.4420  0.6620
   87SAPS   H8R 8330   4.189   1.054   9.730 -2.4347 -0.4620  1.2744
   87SAPS   C29 8331   4.246   0.913   9.578  0.8996  0.2587  0.0772
   87SAPS   H9R 8332   4.192   0.961   9.495  0.2990 -1.0175 -0.2962
   87SAPS  C210 8333   4.308   0.783   9.528  0.4752  0.2543 -0.4889
   87SAPS  H10R 8334   4.345   0.722   9.613  0.9709  1.2582  0.0287
   87SAPS  H10S 8335   4.395   0.799   9.460  0.2958 -2.0351 -1.2805
   87SAPS  C211 8336   4.208   0.702   9.457 -0.0547 -0.5072 -0.4022
   87SAPS  H11R 8337   4.167   0.614   9.507 -3.0814  1.3608  0.5250
   87SAPS  C212 8338   4.173   0.723   9.331  0.1308  0.3870 -0.1065
   87SAPS  H12R 8339   4.086   0.663   9.298  0.6727 -0.6259  0.2913
   87SAPS  C213 8340   4.228   0.837   9.252  0.2087  0.3624  0.6374
   87SAPS  H13R 8341   4.325   0.881   9.283  0.3679  0.0057  0.6546
   87SAPS  H13S 8342   4.154   0.920   9.255  1.3609  1.3763  1.4904
   87SAPS  C214 8343   4.245   0.797   9.105  0.4115  0.2446 -0.0938
   87SAPS  H14R 8344   4.166   0.732   9.063 -0.5069 -0.0128  1.9305
   87SAPS  C215 8345   4.340   0.838   9.016 -0.2080  0.2185 -0.3277
   87SAPS  H15R 8346   4.350   0.795   8.916 -2.6570 -0.1117 -0.4400
   87SAPS  C216 8347   4.458   0.928   9.045  0.2439 -0.6823 -0.2706
   87SAPS  H16R 8348   4.557   0.878   9.042  0.5388 -0.0817 -0.6841
   87SAPS  H16S 8349   4.458   0.966   9.150 -1.3675 -3.0577  0.6368
   87SAPS  C217 8350   4.459   1.052   8.959  0.2710  0.7490 -0.5653
   87SAPS  H17R 8351   4.499   1.140   9.013 -0.8749  0.6631  0.4358
   87SAPS  H17S 8352   4.357   1.075   8.921  1.3972  0.9060 -3.7099
   87SAPS  C218 8353   4.543   1.033   8.832  0.1530  0.2735 -0.3718
   87SAPS  H18R 8354   4.511   0.933   8.796 -1.9161  1.2439 -1.3101
   87SAPS  H18S 8355   4.649   1.039   8.864 -0.8167 -0.6655  3.2190
   87SAPS  C219 8356   4.508   1.142   8.731 -0.9574  0.2889  0.2448
   87SAPS  H19R 8357   4.528   1.242   8.775  0.2433 -1.0539  2.8408
   87SAPS  H19S 8358   4.400   1.128   8.709 -0.7096 -3.6113  1.0777
   87SAPS  C220 8359   4.568   1.124   8.593  0.2955  0.5904  0.0537
   87SAPS  H20R 8360   4.529   1.034   8.541  3.2874 -1.0695  0.5541
   87SAPS  H20S 8361   4.678   1.114   8.603  0.1013 -3.2333 -0.6835
   87SAPS  H20T 8362   4.540   1.209   8.527  0.6125  0.5681 -0.1138
   87SAPS   C33 8363   4.399   1.774  10.271  0.2649 -0.0994 -0.1824
   87SAPS   H3X 8364   4.462   1.820  10.191  1.1880 -1.2598 -0.1425
   87SAPS   H3Y 8365   4.414   1.840  10.359 -2.3849 -0.9544  0.9541
   87SAPS   C34 8366   4.258   1.788  10.224 -0.3194  0.7689  0.1380
   87SAPS   H4X 8367   4.185   1.729  10.284 -0.5239  0.6421 -0.2294
   87SAPS   H4Y 8368   4.263   1.747  10.120  2.3818 -1.3689  1.0630
   87SAPS   C35 8369   4.205   1.930  10.215  0.0118 -0.6826  0.2979
   87SAPS   H5X 8370   4.233   1.978  10.311  0.2937 -0.5885  0.1704
   87SAPS   H5Y 8371   4.094   1.931  10.207  0.1133  1.5266 -1.1039
   87SAPS   C36 8372   4.262   2.013  10.100 -0.2272  0.3448 -0.5943
   87SAPS   H6X 8373   4.372   2.018  10.104 -0.3729  4.2158  0.1876
   87SAPS   H6Y 8374   4.230   2.119  10.112 -0.2168  0.1365  1.4825
   87SAPS   C37 8375   4.230   1.961   9.963 -0.0741  0.2712 -0.2634
   87SAPS   H7X 8376   4.154   2.026   9.914 -0.6513 -1.4708 -1.7106
   87SAPS   H7Y 8377   4.175   1.865   9.967 -0.1014  0.2276 -1.5069
   87SAPS   C38 8378   4.352   1.942   9.878 -0.8581  0.1475 -0.2613
   87SAPS   H8X 8379   4.425   1.875   9.927  0.4014  0.7177 -1.3238
   87SAPS   H8Y 8380   4.405   2.039   9.861  1.2029 -0.8931  0.1265
   87SAPS   C39 8381   4.322   1.885   9.740  0.0291 -0.0341  0.2159
   87SAPS   H9X 8382   4.262   1.962   9.688  1.9070  0.8264 -0.7439
   87SAPS   H9Y 8383   4.280   1.783   9.736 -1.2973  0.4703  0.9956
   87SAPS  C310 8384   4.451   1.865   9.652  0.5886  0.0141  0.4912
   87SAPS  H10X 8385   4.511   1.787   9.705  0.9509  0.1802  0.3242
   87SAPS  H10Y 8386   4.508   1.959   9.644 -1.1205  0.8115 -3.7511
   87SAPS  C311 8387   4.402   1.834   9.509 -0.3139  0.3024  0.1006
   87SAPS  H11X 8388   4.346   1.907   9.447  0.0748 -0.1501 -0.8079
   87SAPS  H11Y 8389   4.346   1.739   9.516  1.5139 -0.8383 -0.2987
   87SAPS  C312 8390   4.524   1.809   9.423 -0.3029  0.6384 -0.3907
   87SAPS  H12X 8391   4.586   1.736   9.480 -1.6279  0.4570  0.8471
   87SAPS  H12Y 8392   4.576   1.907   9.422 -2.7432  1.9735  1.3243
   87SAPS  C313 8393   4.497   1.770   9.282  0.1220  0.4763  0.3842
   87SAPS  H13X 8394   4.587   1.791   9.219 -0.1182 -2.4684 -1.0521
   87SAPS  H13Y 8395   4.420   1.830   9.229 -1.3200 -0.2533  1.6330
   87SAPS  C314 8396   4.455   1.617   9.266 -0.6376 -0.1280 -0.7489
   87SAPS  H14X 8397   4.363   1.598   9.325  0.6142  0.1757  1.3286
   87SAPS  H14Y 8398   4.543   1.551   9.281 -1.4861 -1.6534 -2.3237
   87SAPS  C315 8399   4.419   1.580   9.122 -0.8035  0.0250  0.5804
   87SAPS  H15X 8400   4.348   1.656   9.085 -0.1980 -0.0502 -0.7663
   87SAPS  H15Y 8401   4.372   1.479   9.118 -3.0017  0.9804  1.4502
   87SAPS  C316 8402   4.542   1.571   9.023 -0.1523 -0.4521 -0.0111
   87SAPS  H16X 8403   4.601   1.478   9.038  2.6786  1.1675 -0.6875
   87SAPS  H16Y 8404   4.611   1.656   9.040 -0.5599 -0.2175  0.4615
   87SAPS  C317 8405   4.495   1.598   8.879 -0.1625  0.0326 -0.3240
   87SAPS  H17X 8406   4.456   1.702   8.870 -0.4086 -0.1883 -1.9451
   87SAPS  H17Y 8407   4.394   1.553   8.865 -0.4388  0.4414  0.2952
   87SAPS  C318 8408   4.597   1.567   8.768  0.1071  0.4167  0.5876
   87SAPS  H18X 8409   4.698   1.600   8.799  0.9647  0.5630 -2.2740
   87SAPS  H18Y 8410   4.577   1.619   8.673 -0.1438 -1.0335 -0.1711
   87SAPS  H18Z 8411   4.608   1.457   8.755 -0.8236  0.3752  0.0853
   88SAPS     N 8412   0.390   6.504  10.540 -0.2383 -1.0659  0.0419
   88SAPS   HN1 8413   0.481   6.553  10.533  0.8603 -3.0204  0.1988
   88SAPS   HN2 8414   0.405   6.408  10.502  0.7959 -1.7372  2.0618
   88SAPS   HN3 8415   0.319   6.557  10.485 -0.0642  0.5826  1.4106
   88SAPS   C12 8416   0.345   6.518  10.680 -0.1852 -0.3005  0.3608
   88SAPS  H12A 8417   0.425   6.482  10.744  0.8385 -1.8020 -1.7051
   88SAPS   C13 8418   0.289   6.655  10.729  0.1522 -0.2187  0.1835
   88SAPS  O13A 8419   0.272   6.750  10.650 -0.0003  0.6257  0.3964
   88SAPS  O13B 8420   0.249   6.665  10.846  0.3169  0.4338 -0.2826
   88SAPS   C11 8421   0.228   6.414  10.696  0.0285  0.2717 -0.1137
   88SAPS  H11A 8422   0.142   6.448  10.634  0.2691 -0.0956 -0.6493
   88SAPS  H11B 8423   0.184   6.420  10.798  0.3064 -2.9559  0.2552
   88SAPS     P 8424   0.280   6.162  10.758  0.2473  0.1193  0.0240
   88SAPS   O13 8425   0.372   6.191  10.871 -0.7546  0.2230  0.5808
   88SAPS   O14 8426   0.145   6.126  10.811 -0.1731  0.0307 -0.2746
   88SAPS   O12 8427   0.269   6.286  10.657  0.6548 -0.5346  0.0792
   88SAPS   O11 8428   0.331   6.041  10.665  0.1594 -0.3571  0.8786
   88SAPS    C1 8429   0.366   6.054  10.529  0.6005  0.3062  0.1972
   88SAPS    HA 8430   0.334   5.963  10.473 -0.7433 -0.8814  2.7903
   88SAPS    HB 8431   0.301   6.136  10.492  0.5410  1.1898  2.2096
   88SAPS    C2 8432   0.515   6.083  10.498 -0.4872  0.5453 -0.1058
   88SAPS    HS 8433   0.549   6.177  10.546  1.1200 -0.3369  0.5259
   88SAPS   O21 8434   0.527   6.095  10.355 -0.4987  0.0472 -0.4754
   88SAPS   C21 8435   0.503   6.213  10.312  0.1520  0.1748  0.1858
   88SAPS   O22 8436   0.448   6.296  10.381  0.3076 -0.1942 -0.6511
   88SAPS   C22 8437   0.553   6.236  10.171 -0.0248  1.0059 -0.5831
   88SAPS   H2R 8438   0.657   6.274  10.181  1.6860 -3.2258 -1.3070
   88SAPS   H2S 8439   0.569   6.136  10.125  0.4493  0.5924  0.4814
   88SAPS    C3 8440   0.595   5.958  10.548 -0.1891 -0.2995  0.5501
   88SAPS    HX 8441   0.535   5.872  10.512 -2.1025  0.4086  1.9500
   88SAPS    HY 8442   0.599   5.948  10.658 -1.5433 -0.4008  0.5927
   88SAPS   O31 8443   0.729   5.953  10.492 -0.0795 -0.3570 -0.1592
   88SAPS   C31 8444   0.822   6.003  10.576  0.1044  0.3237 -0.0290
   88SAPS   O32 8445   0.805   6.055  10.683  0.8452  0.3573 -0.3225
   88SAPS   C32 8446   0.956   5.955  10.516  0.5498  0.2642 -0.0603
   88SAPS   H2X 8447   0.936   5.850  10.485  0.0694 -0.0083  1.1556
   88SAPS   H2Y 8448   1.037   5.967  10.591  0.0235  3.9769  0.0107
   88SAPS   C23 8449   0.452   6.318  10.092 -0.0642 -0.5329  0.1464
   88SAPS   H3R 8450   0.510   6.336   9.999  1.2456 -0.2678  0.9993
   88SAPS   H3S 8451   0.429   6.414  10.141 -2.7990 -0.3851 -1.3241
   88SAPS   C24 8452   0.335   6.236  10.039  0.3482 -0.2815  0.3526
   88SAPS   H4R 8453   0.270   6.210  10.125  1.3950 -0.0659  1.2018
   88SAPS   H4S 8454   0.370   6.138   9.999  2.3384  0.2397  0.7875
   88SAPS   C25 8455   0.251   6.326   9.954  0.2407 -0.0919 -0.5613
   88SAPS   H5R 8456   0.182   6.381  10.021 -0.6300 -1.3837 -0.3790
   88SAPS   C26 8457   0.259   6.326   9.821 -0.6080 -0.6872  0.0047
   88SAPS   H6R 8458   0.197   6.395   9.763 -1.2035 -0.1433  1.2629
   88SAPS   C27 8459   0.343   6.233   9.734  1.2016 -0.1253 -0.7726
   88SAPS   H7R 8460   0.351   6.137   9.789  0.4810  0.4956  0.4215
   88SAPS   H7S 8461   0.450   6.264   9.735  0.2107  3.6236  1.2205
   88SAPS   C28 8462   0.286   6.222   9.595  0.0802 -0.1528 -0.2873
   88SAPS   H8R 8463   0.182   6.186   9.585 -1.0754  3.4897 -2.0359
   88SAPS   C29 8464   0.351   6.253   9.479  0.0120  0.0359 -0.1511
   88SAPS   H9R 8465   0.299   6.242   9.383  0.8863 -1.8412 -0.4187
   88SAPS  C210 8466   0.489   6.306   9.462  0.3013 -0.5242  0.4386
   88SAPS  H10R 8467   0.555   6.217   9.453  0.5063 -0.4315  1.0158
   88SAPS  H10S 8468   0.517   6.360   9.554  0.5117 -1.1475  0.7448
   88SAPS  C211 8469   0.499   6.394   9.333  0.4590  0.2903  0.0136
   88SAPS  H11R 8470   0.474   6.501   9.337 -1.4880 -0.0568 -1.8590
   88SAPS  C212 8471   0.530   6.345   9.215  0.1272 -0.0744  0.2679
   88SAPS  H12R 8472   0.529   6.405   9.122 -1.0508  0.4178  0.5885
   88SAPS  C213 8473   0.570   6.204   9.180  0.0049  0.0047  0.8794
   88SAPS  H13R 8474   0.600   6.146   9.270 -2.9957 -1.5500  0.9107
   88SAPS  H13S 8475   0.664   6.216   9.121  0.7327 -0.8478  1.8382
   88SAPS  C214 8476   0.452   6.142   9.110 -0.3889  0.3131 -0.2226
   88SAPS  H14R 8477   0.377   6.099   9.178 -0.8449  2.9144  0.9662
   88SAPS  C215 8478   0.416   6.146   8.980  0.0268 -0.7129 -0.1724
   88SAPS  H15R 8479   0.321   6.103   8.944 -0.4358  0.5800 -0.5204
   88SAPS  C216 8480   0.486   6.225   8.875  0.2602 -0.3451 -0.1481
   88SAPS  H16R 8481   0.507   6.145   8.801  1.0708  0.8810 -1.2448
   88SAPS  H16S 8482   0.577   6.265   8.924 -0.2779  1.5815 -0.6779
   88SAPS  C217 8483   0.410   6.325   8.799 -0.0636  0.3709  0.0894
   88SAPS  H17R 8484   0.351   6.390   8.867  2.5978 -0.3708  3.2324
   88SAPS  H17S 8485   0.345   6.278   8.722  2.4673 -0.8532 -1.3461
   88SAPS  C218 8486   0.491   6.410   8.701  0.2079 -0.1005  0.5126
   88SAPS  H18R 8487   0.584   6.445   8.751  1.2685 -2.4386  0.2454
   88SAPS  H18S 8488   0.436   6.501   8.670 -1.9270 -1.9655 -1.3376
   88SAPS  C219 8489   0.544   6.327   8.580  0.0560 -0.3448  0.4118
   88SAPS  H19R 8490   0.451   6.303   8.524  0.9055  1.1009 -1.6719
   88SAPS  H19S 8491   0.589   6.239   8.631 -2.0321 -0.7000  1.6938
   88SAPS  C220 8492   0.645   6.398   8.492  0.3617 -0.0675  0.1567
   88SAPS  H20R 8493   0.627   6.507   8.488 -0.8136 -0.3090 -2.2438
   88SAPS  H20S 8494   0.637   6.352   8.392  0.4257 -2.3133  1.1461
   88SAPS  H20T 8495   0.749   6.386   8.529  0.6135  0.2368 -0.4565
   88SAPS   C33 8496   0.997   6.035  10.392 -0.0831  0.3239  0.4173
   88SAPS   H3X 8497   1.095   5.991  10.363 -0.1284 -1.0922  2.3278
   88SAPS   H3Y 8498   1.016   6.136  10.436 -0.5584  0.4711  0.2833
   88SAPS   C34 8499   0.903   6.033  10.272  0.0570 -0.0493 -0.6375
   88SAPS   H4X 8500   0.807   6.084  10.295 -0.1009 -1.4529  2.1059
   88SAPS   H4Y 8501   0.874   5.927  10.255 -0.9400 -0.0273  0.7701
   88SAPS   C35 8502   0.967   6.110  10.162 -0.8098  0.2321  0.2887
   88SAPS   H5X 8503   1.075   6.084  10.157 -0.8132  0.2047  0.3562
   88SAPS   H5Y 8504   0.952   6.219  10.175  0.0285  0.1616  1.9717
   88SAPS   C36 8505   0.899   6.087  10.017 -0.3206  0.6563 -0.1058
   88SAPS   H6X 8506   0.798   6.132  10.012  0.5645  2.6912 -0.1604
   88SAPS   H6Y 8507   0.900   5.976  10.006 -0.8456  0.1678  4.0193
   88SAPS   C37 8508   0.976   6.158   9.908 -0.0350 -0.3904 -0.3758
   88SAPS   H7X 8509   1.073   6.113   9.877 -0.1855 -0.2487 -1.0605
   88SAPS   H7Y 8510   1.005   6.258   9.947  0.7090 -1.6050  2.3138
   88SAPS   C38 8511   0.899   6.203   9.788  0.7133 -0.3119 -0.2293
   88SAPS   H8X 8512   0.816   6.273   9.813  1.2758 -0.5990  2.5099
   88SAPS   H8Y 8513   0.849   6.114   9.743  1.2502 -0.3395 -0.7887
   88SAPS   C39 8514   0.980   6.257   9.679  0.6670  0.5920  0.4066
   88SAPS   H9X 8515   1.074   6.202   9.654  1.3936  0.9167  2.2908
   88SAPS   H9Y 8516   1.008   6.355   9.724 -0.5412  0.6685  1.0031
   88SAPS  C310 8517   0.910   6.292   9.550 -0.4219  0.3650  0.9306
   88SAPS  H10X 8518   0.811   6.340   9.564 -2.3797 -2.3747 -2.4999
   88SAPS  H10Y 8519   0.882   6.197   9.500  0.3532  1.6394 -2.0652
   88SAPS  C311 8520   0.994   6.380   9.458 -0.4386  0.0473  0.2872
   88SAPS  H11X 8521   1.086   6.324   9.433  1.9901  3.3732  1.3958
   88SAPS  H11Y 8522   1.019   6.474   9.511  2.3106 -0.7348  0.4172
   88SAPS  C312 8523   0.907   6.413   9.339 -0.4858 -0.3835  0.1057
   88SAPS  H12X 8524   0.810   6.458   9.371  0.2032  1.6813 -0.5967
   88SAPS  H12Y 8525   0.878   6.324   9.280 -1.6916 -0.5766  0.9747
   88SAPS  C313 8526   0.961   6.523   9.242  0.2045  0.6099  0.2726
   88SAPS  H13X 8527   1.050   6.476   9.197 -2.4612 -2.2958 -2.2010
   88SAPS  H13Y 8528   0.996   6.621   9.282  1.3649  0.9218 -1.4726
   88SAPS  C314 8529   0.864   6.552   9.129 -0.0334 -0.2784 -0.1452
   88SAPS  H14X 8530   0.787   6.621   9.171 -1.4242 -0.5537 -2.1504
   88SAPS  H14Y 8531   0.822   6.458   9.087  1.0080 -1.6351  1.7652
   88SAPS  C315 8532   0.928   6.617   9.006  0.0006 -0.4440  0.7493
   88SAPS  H15X 8533   1.001   6.698   9.025 -1.4410  1.0985 -0.1066
   88SAPS  H15Y 8534   0.843   6.659   8.947  1.3735  1.0055 -0.2310
   88SAPS  C316 8535   0.989   6.495   8.930  0.1232 -0.0334 -0.5096
   88SAPS  H16X 8536   0.913   6.446   8.865 -1.1236 -1.5323  2.0434
   88SAPS  H16Y 8537   1.021   6.414   8.998  0.0446  2.5219  2.7237
   88SAPS  C317 8538   1.094   6.530   8.828 -0.0700  0.0242 -0.5298
   88SAPS  H17X 8539   1.185   6.556   8.886 -1.0463  2.7833 -0.1686
   88SAPS  H17Y 8540   1.073   6.610   8.754  0.3227 -0.2475 -0.9416
   88SAPS  C318 8541   1.127   6.417   8.738 -1.0621  0.2257  0.4612
   88SAPS  H18X 8542   1.135   6.323   8.795  0.4787 -0.0266 -0.1505
   88SAPS  H18Y 8543   1.227   6.445   8.700 -0.6787 -2.7429 -0.8134
   88SAPS  H18Z 8544   1.054   6.400   8.656  0.0595 -2.3676 -0.0436
   89SAPS     N 8545   5.553   1.362  10.650 -0.3830  0.0019  0.3519
   89SAPS   HN1 8546   5.490   1.284  10.623 -2.1023  1.0065  1.3927
   89SAPS   HN2 8547   5.515   1.447  10.602  0.3418 -0.7919 -1.6696
   89SAPS   HN3 8548   5.645   1.341  10.607 -0.6923  0.0090 -0.3217
   89SAPS   C12 8549   5.579   1.397  10.798  0.6607  0.6836  0.3473
   89SAPS  H12A 8550   5.492   1.452  10.830  0.8520  1.5664 -0.6006
   89SAPS   C13 8551   5.581   1.271  10.881 -0.4302 -0.1252 -0.3792
   89SAPS  O13A 8552   5.568   1.156  10.828  0.5166  0.6845 -0.1568
   89SAPS  O13B 8553   5.602   1.280  11.005 -0.3083  0.3087  0.3951
   89SAPS   C11 8554   5.700   1.493  10.827 -0.2389 -0.1945  0.5662
   89SAPS  H11A 8555   5.701   1.533  10.930  0.3391  2.6737 -0.4992
   89SAPS  H11B 8556   5.693   1.580  10.758 -0.2910 -0.3597  0.3635
   89SAPS     P 8557   5.892   1.433  10.661 -0.3465 -0.5099  0.1690
   89SAPS   O13 8558   6.035   1.400  10.672 -0.2014  0.1103 -0.1007
   89SAPS   O14 8559   5.807   1.358  10.563 -0.5536 -0.3405  0.2965
   89SAPS   O12 8560   5.823   1.431  10.804  0.1896  0.0483 -0.9922
   89SAPS   O11 8561   5.876   1.586  10.624 -0.3803  0.8985  0.1486
   89SAPS    C1 8562   5.802   1.622  10.504  0.0315  0.2144 -0.7789
   89SAPS    HA 8563   5.727   1.550  10.464 -0.7918  1.1101 -0.8661
   89SAPS    HB 8564   5.739   1.708  10.537  0.0189 -0.8473  2.1440
   89SAPS    C2 8565   5.878   1.683  10.385  0.8594  0.6206 -0.0896
   89SAPS    HS 8566   5.805   1.740  10.325 -0.4840  0.5469  1.4380
   89SAPS   O21 8567   5.954   1.581  10.315  0.8628 -0.4362 -0.2057
   89SAPS   C21 8568   5.965   1.598  10.187  0.9375  0.6996  0.4594
   89SAPS   O22 8569   5.908   1.681  10.117  0.1049 -0.4644  0.2490
   89SAPS   C22 8570   6.042   1.488  10.117  0.7078  0.0881 -0.0218
   89SAPS   H2R 8571   6.108   1.443  10.194 -2.5640 -0.9190  2.3018
   89SAPS   H2S 8572   5.975   1.408  10.079  1.4122  0.8375 -3.0171
   89SAPS    C3 8573   5.976   1.792  10.444 -0.5548 -0.4137  0.1869
   89SAPS    HX 8574   6.062   1.739  10.491 -0.6562 -0.0430  0.7857
   89SAPS    HY 8575   5.919   1.851  10.519 -0.7883  0.5570 -0.7521
   89SAPS   O31 8576   6.016   1.886  10.343  0.0136  0.3384  0.0843
   89SAPS   C31 8577   6.136   1.865  10.282  0.6773  0.3207 -0.4031
   89SAPS   O32 8578   6.217   1.781  10.319  0.1970  0.5964 -0.1437
   89SAPS   C32 8579   6.152   1.976  10.177  0.0648  0.1016 -0.3065
   89SAPS   H2X 8580   6.075   1.962  10.098 -0.2265  0.3894 -0.0766
   89SAPS   H2Y 8581   6.256   1.970  10.139  1.2507 -1.0567  2.9850
   89SAPS   C23 8582   6.119   1.544   9.995 -0.2273 -0.4446  0.7138
   89SAPS   H3R 8583   6.151   1.647  10.021  0.0517  0.3997 -2.6756
   89SAPS   H3S 8584   6.038   1.563   9.921 -0.6633  1.4657  1.6634
   89SAPS   C24 8585   6.248   1.477   9.945  0.8024 -0.1654  0.1357
   89SAPS   H4R 8586   6.249   1.368   9.968  0.0344 -0.3561 -0.7038
   89SAPS   H4S 8587   6.335   1.519   9.998 -0.5323  2.7359  0.1378
   89SAPS   C25 8588   6.262   1.505   9.797  0.7447  0.6763 -0.4864
   89SAPS   H5R 8589   6.286   1.612   9.781 -0.8587  0.8031 -2.1618
   89SAPS   C26 8590   6.237   1.419   9.693  0.8668  0.2023  0.5284
   89SAPS   H6R 8591   6.232   1.458   9.591 -0.7138  0.5879  0.7497
   89SAPS   C27 8592   6.190   1.270   9.703  0.3287 -0.2787 -0.1109
   89SAPS   H7R 8593   6.111   1.239   9.631  1.5531 -2.5416 -0.5351
   89SAPS   H7S 8594   6.153   1.255   9.807  0.9196  1.4124  0.3645
   89SAPS   C28 8595   6.313   1.193   9.691  0.2375  0.0558 -0.1390
   89SAPS   H8R 8596   6.372   1.178   9.783  0.3751  0.8882 -0.0924
   89SAPS   C29 8597   6.369   1.145   9.578  0.1554  0.5374 -0.3192
   89SAPS   H9R 8598   6.468   1.097   9.586  0.5610  1.4305  0.0652
   89SAPS  C210 8599   6.310   1.145   9.445  0.3250 -0.3436  0.0960
   89SAPS  H10R 8600   6.217   1.206   9.444  1.8475  2.0602  0.8208
   89SAPS  H10S 8601   6.279   1.042   9.414  0.5398 -0.6499  0.8918
   89SAPS  C211 8602   6.404   1.205   9.338  0.2229 -0.5116 -0.1843
   89SAPS  H11R 8603   6.479   1.273   9.379 -0.0097 -1.5266  1.9708
   89SAPS  C212 8604   6.395   1.178   9.210  0.8327  0.5439  0.4534
   89SAPS  H12R 8605   6.459   1.215   9.129 -0.2418  1.3662 -0.0330
   89SAPS  C213 8606   6.293   1.092   9.130 -0.4966  0.3318 -0.8990
   89SAPS  H13R 8607   6.257   1.161   9.051  2.9660  1.7775 -1.2810
   89SAPS  H13S 8608   6.202   1.072   9.192 -0.2300  0.6123 -0.4104
   89SAPS  C214 8609   6.345   0.956   9.086  0.1248 -0.1045 -0.5159
   89SAPS  H14R 8610   6.335   0.885   9.170 -1.7184  0.8267  0.0897
   89SAPS  C215 8611   6.381   0.918   8.965  0.2869  0.3705 -0.6251
   89SAPS  H15R 8612   6.408   0.814   8.940 -0.1747  0.0616  0.1431
   89SAPS  C216 8613   6.399   1.017   8.853  0.6629 -0.3880  0.2000
   89SAPS  H16R 8614   6.413   1.118   8.897  0.2953 -0.0068 -0.5400
   89SAPS  H16S 8615   6.306   1.014   8.793  1.0864 -1.6980 -0.4093
   89SAPS  C217 8616   6.532   0.990   8.780 -0.3129 -0.1098  0.2258
   89SAPS  H17R 8617   6.523   0.880   8.762  0.2260 -0.0077 -0.7393
   89SAPS  H17S 8618   6.625   1.003   8.840  0.2270 -0.7523 -0.4510
   89SAPS  C218 8619   6.542   1.075   8.655 -0.8101  0.5786 -0.6776
   89SAPS  H18R 8620   6.465   1.024   8.594  0.1638 -1.2614 -0.4095
   89SAPS  H18S 8621   6.641   1.058   8.609 -0.8146  1.7235 -1.1132
   89SAPS  C219 8622   6.531   1.224   8.675 -0.3894 -0.0312  0.5696
   89SAPS  H19R 8623   6.447   1.253   8.741 -1.6587 -1.1392 -0.5438
   89SAPS  H19S 8624   6.517   1.276   8.578 -4.4950  1.5647  1.8901
   89SAPS  C220 8625   6.655   1.290   8.737 -1.2579  0.5292 -0.3127
   89SAPS  H20R 8626   6.678   1.244   8.835 -2.2112 -0.0546 -0.3617
   89SAPS  H20S 8627   6.634   1.398   8.754  0.2672  0.9844 -1.1594
   89SAPS  H20T 8628   6.736   1.263   8.666 -1.0178 -0.3053  0.2739
   89SAPS   C33 8629   6.144   2.127  10.221  0.1536 -1.3140  1.1376
   89SAPS   H3X 8630   6.214   2.163  10.300  0.6864 -1.2281  0.6297
   89SAPS   H3Y 8631   6.046   2.161  10.261 -0.1887  0.7791 -1.3124
   89SAPS   C34 8632   6.173   2.217  10.101 -0.3632  0.0295 -0.1756
   89SAPS   H4X 8633   6.258   2.171  10.046 -0.5428 -1.0927  0.4839
   89SAPS   H4Y 8634   6.204   2.319  10.133 -0.6110 -0.1782  0.7335
   89SAPS   C35 8635   6.052   2.219  10.008 -0.4231 -0.3970 -0.3210
   89SAPS   H5X 8636   5.962   2.245  10.068 -0.9104 -0.3938 -1.0404
   89SAPS   H5Y 8637   6.044   2.117   9.963 -2.5584 -1.0663  1.4928
   89SAPS   C36 8638   6.064   2.307   9.880 -0.0499  0.1915  0.7719
   89SAPS   H6X 8639   6.069   2.415   9.907 -1.4846  0.2690  0.7379
   89SAPS   H6Y 8640   5.968   2.292   9.826  0.4570  2.2845 -0.7846
   89SAPS   C37 8641   6.180   2.263   9.792  0.2902 -0.1931  0.2140
   89SAPS   H7X 8642   6.167   2.152   9.793  0.4428 -0.2258 -0.6757
   89SAPS   H7Y 8643   6.274   2.302   9.836 -0.1176 -0.1635  1.0684
   89SAPS   C38 8644   6.175   2.301   9.643  0.3859 -0.1263  0.6546
   89SAPS   H8X 8645   6.144   2.407   9.631  0.5124 -0.2003 -0.3314
   89SAPS   H8Y 8646   6.097   2.244   9.588  1.5040 -1.0539  0.0141
   89SAPS   C39 8647   6.306   2.276   9.566 -0.6668 -0.5019 -0.0702
   89SAPS   H9X 8648   6.347   2.174   9.546 -0.2662  0.0262 -2.0375
   89SAPS   H9Y 8649   6.392   2.320   9.621 -0.3952 -0.4629 -0.5264
   89SAPS  C310 8650   6.298   2.342   9.423 -0.3970 -0.3307 -0.5683
   89SAPS  H10X 8651   6.293   2.452   9.430  2.0373 -0.1604 -1.2563
   89SAPS  H10Y 8652   6.211   2.307   9.363 -0.3330  0.2411 -0.9985
   89SAPS  C311 8653   6.422   2.316   9.341 -0.1363  0.4715 -0.4383
   89SAPS  H11X 8654   6.443   2.207   9.331 -5.6797 -0.7471 -0.3883
   89SAPS  H11Y 8655   6.505   2.368   9.393 -0.7831  0.3550  0.7302
   89SAPS  C312 8656   6.402   2.366   9.196 -0.3760  1.0866 -0.5035
   89SAPS  H12X 8657   6.376   2.474   9.201  0.2678  1.1592  1.8088
   89SAPS  H12Y 8658   6.315   2.318   9.148  1.1254 -0.5825 -1.6398
   89SAPS  C313 8659   6.523   2.343   9.095 -0.7323  0.1623 -0.1844
   89SAPS  H13X 8660   6.519   2.242   9.049  1.5784  0.6274 -1.4744
   89SAPS  H13Y 8661   6.621   2.347   9.147 -0.3235 -0.3653 -0.9053
   89SAPS  C314 8662   6.518   2.434   8.974  0.3574  0.0125 -0.2379
   89SAPS  H14X 8663   6.549   2.533   9.014 -1.3435  0.4015  0.1520
   89SAPS  H14Y 8664   6.416   2.447   8.932  0.6821  0.6331 -0.8583
   89SAPS  C315 8665   6.626   2.392   8.870  0.2081  0.6849 -0.2559
   89SAPS  H15X 8666   6.599   2.288   8.843 -1.8922  1.5938 -1.8129
   89SAPS  H15Y 8667   6.728   2.396   8.914 -0.2090 -0.3640  0.8356
   89SAPS  C316 8668   6.622   2.485   8.743  0.0797  0.4047 -0.1144
   89SAPS  H16X 8669   6.625   2.594   8.764 -1.7579  1.1149 -3.1683
   89SAPS  H16Y 8670   6.529   2.481   8.682  2.3252  0.0347 -3.6897
   89SAPS  C317 8671   6.722   2.439   8.650 -0.6734  0.0409  0.2624
   89SAPS  H17X 8672   6.711   2.477   8.546 -0.2373 -1.5537 -0.3801
   89SAPS  H17Y 8673   6.718   2.329   8.633 -0.4927  0.0728  0.0041
   89SAPS  C318 8674   6.868   2.461   8.707  0.2592  0.1181 -0.2814
   89SAPS  H18X 8675   6.884   2.569   8.728  1.8360 -0.1183 -0.2236
   89SAPS  H18Y 8676   6.949   2.435   8.637 -0.4887  1.2200 -1.5959
   89SAPS  H18Z 8677   6.894   2.410   8.802  2.8305  1.9856  0.0750
   90SAPS     N 8678   1.794   1.991  10.844  0.3769  0.1158  0.5627
   90SAPS   HN1 8679   1.744   2.074  10.881 -0.2386 -0.7154  1.6122
   90SAPS   HN2 8680   1.891   2.018  10.818  0.1610  1.1105  0.7488
   90SAPS   HN3 8681   1.756   1.963  10.751  1.1154  0.9591 -0.0001
   90SAPS   C12 8682   1.793   1.881  10.936  0.4262  0.4179 -0.2730
   90SAPS  H12A 8683   1.850   1.797  10.900  2.8294  1.8897 -0.0169
   90SAPS   C13 8684   1.862   1.906  11.072  0.1826 -0.8052 -0.1472
   90SAPS  O13A 8685   1.943   2.005  11.087  0.0480 -0.3662  0.5049
   90SAPS  O13B 8686   1.883   1.807  11.148 -0.2036  0.2898  0.3023
   90SAPS   C11 8687   1.647   1.848  10.972  0.1666 -0.3365 -0.8592
   90SAPS  H11A 8688   1.608   1.933  11.032  0.8176 -0.1411 -0.7110
   90SAPS  H11B 8689   1.646   1.759  11.038  0.1186 -0.2493 -0.7423
   90SAPS     P 8690   1.543   1.694  10.784 -0.0537  0.0613 -0.1437
   90SAPS   O13 8691   1.663   1.616  10.814  0.2452 -0.1794  0.8538
   90SAPS   O14 8692   1.414   1.630  10.809  0.1702  0.3260  0.6134
   90SAPS   O12 8693   1.550   1.836  10.859  0.1557  0.0291 -0.0666
   90SAPS   O11 8694   1.552   1.727  10.634  0.5408 -0.0322 -0.4261
   90SAPS    C1 8695   1.445   1.744  10.540  0.2422  0.3827 -0.0292
   90SAPS    HA 8696   1.363   1.810  10.575 -0.0682 -0.3017  0.5478
   90SAPS    HB 8697   1.489   1.786  10.447  3.0569  1.1545  1.5852
   90SAPS    C2 8698   1.379   1.610  10.506  0.0361 -0.7564  0.5395
   90SAPS    HS 8699   1.323   1.587  10.599 -1.4306  1.1255  0.1522
   90SAPS   O21 8700   1.489   1.524  10.471  0.1582  0.2074  0.2507
   90SAPS   C21 8701   1.453   1.393  10.493  0.4139 -0.4480  0.2349
   90SAPS   O22 8702   1.344   1.352  10.524  0.3343 -0.6171  0.0738
   90SAPS   C22 8703   1.572   1.309  10.478 -0.0831  0.8468  0.6321
   90SAPS   H2R 8704   1.645   1.365  10.415  2.2712 -1.1102  1.5635
   90SAPS   H2S 8705   1.613   1.282  10.578 -0.2021  0.5580  0.6025
   90SAPS    C3 8706   1.273   1.613  10.395 -0.7233  0.1365 -0.0269
   90SAPS    HX 8707   1.200   1.672  10.454 -1.3853 -1.3816  0.7027
   90SAPS    HY 8708   1.230   1.515  10.364  1.4579  0.3927 -4.3061
   90SAPS   O31 8709   1.321   1.675  10.278 -0.6032 -0.2456  0.1892
   90SAPS   C31 8710   1.222   1.715  10.203 -0.0632 -0.0570  0.8516
   90SAPS   O32 8711   1.105   1.700  10.231  0.7273 -0.4347  0.1869
   90SAPS   C32 8712   1.279   1.748  10.062 -0.9659 -0.2485 -0.4478
   90SAPS   H2X 8713   1.270   1.656  10.002  0.6431 -0.7960  0.1198
   90SAPS   H2Y 8714   1.388   1.765  10.074 -0.7087 -1.2800 -1.2587
   90SAPS   C23 8715   1.553   1.169  10.409 -0.0880 -0.0777  0.0691
   90SAPS   H3R 8716   1.462   1.126  10.457 -1.0318 -0.4963 -2.0367
   90SAPS   H3S 8717   1.642   1.109  10.436 -1.3360 -1.2831  1.6471
   90SAPS   C24 8718   1.530   1.190  10.262  0.1584 -0.2886  0.3459
   90SAPS   H4R 8719   1.613   1.257  10.229  0.5424 -1.3404 -0.8532
   90SAPS   H4S 8720   1.433   1.240  10.241 -0.0590 -0.4107  1.0386
   90SAPS   C25 8721   1.533   1.061  10.195  0.5327 -0.1547  0.3118
   90SAPS   H5R 8722   1.438   1.007  10.201 -0.4522  1.3712 -1.2362
   90SAPS   C26 8723   1.625   1.019  10.108  0.1541  0.5098 -0.4339
   90SAPS   H6R 8724   1.623   0.923  10.053 -0.4785 -0.2035  0.8120
   90SAPS   C27 8725   1.755   1.091  10.089  0.1401  0.6219  0.3459
   90SAPS   H7R 8726   1.806   1.102  10.187  0.8034 -1.0581  0.1999
   90SAPS   H7S 8727   1.733   1.197  10.064 -3.4776  0.0829  0.9165
   90SAPS   C28 8728   1.851   1.021  10.005 -0.5122 -0.0356 -0.4123
   90SAPS   H8R 8729   1.904   0.940  10.058 -0.2870  0.6070  0.3709
   90SAPS   C29 8730   1.877   1.044   9.880 -0.3865 -0.5940  0.2798
   90SAPS   H9R 8731   1.954   0.995   9.819 -0.7229  2.2029 -2.5480
   90SAPS  C210 8732   1.808   1.153   9.795 -0.0473  0.4251 -0.3054
   90SAPS  H10R 8733   1.872   1.237   9.760  0.1512  0.3202 -0.1948
   90SAPS  H10S 8734   1.721   1.190   9.853 -1.9771 -1.2327 -2.0597
   90SAPS  C211 8735   1.761   1.084   9.671  0.5021 -0.3821  0.3368
   90SAPS  H11R 8736   1.690   1.003   9.691  0.3750 -0.1410  0.8956
   90SAPS  C212 8737   1.776   1.131   9.549  0.2575  0.4455 -0.2048
   90SAPS  H12R 8738   1.723   1.078   9.468 -1.9225 -1.1561  2.1724
   90SAPS  C213 8739   1.851   1.252   9.497  0.5398 -0.7824 -0.4546
   90SAPS  H13R 8740   1.919   1.218   9.415  2.2442  3.4387 -0.9471
   90SAPS  H13S 8741   1.912   1.310   9.569 -0.9335 -0.7703  0.8034
   90SAPS  C214 8742   1.753   1.340   9.426 -0.0758 -0.3603 -0.0703
   90SAPS  H14R 8743   1.683   1.391   9.494  0.2493 -1.3294  1.0034
   90SAPS  C215 8744   1.735   1.367   9.295  0.3752  0.1804  0.0539
   90SAPS  H15R 8745   1.650   1.435   9.277 -0.7999 -1.4645 -0.8738
   90SAPS  C216 8746   1.794   1.292   9.176  0.3341  0.8964  0.6293
   90SAPS  H16R 8747   1.724   1.270   9.092  0.3314  1.1134  0.5748
   90SAPS  H16S 8748   1.823   1.189   9.206 -3.1400  0.5577  3.1884
   90SAPS  C217 8749   1.923   1.347   9.117  0.7581  0.2819  0.5077
   90SAPS  H17R 8750   2.004   1.288   9.164  0.1856 -1.9438 -1.2575
   90SAPS  H17S 8751   1.948   1.446   9.161  2.9897 -0.1752  0.3016
   90SAPS  C218 8752   1.926   1.346   8.962 -0.2596 -0.0274 -0.5225
   90SAPS  H18R 8753   1.878   1.256   8.918 -3.3634  1.2391  0.1757
   90SAPS  H18S 8754   2.035   1.356   8.940  0.2429  0.2986  1.9212
   90SAPS  C219 8755   1.871   1.477   8.900 -0.1287 -0.8217  0.5363
   90SAPS  H19R 8756   1.939   1.512   8.820  1.2340 -1.2078  1.4970
   90SAPS  H19S 8757   1.881   1.554   8.979 -0.2374  0.8536 -1.0495
   90SAPS  C220 8758   1.734   1.477   8.849  0.4380  1.0208  0.1010
   90SAPS  H20R 8759   1.672   1.434   8.931  3.1232 -0.3921  1.4451
   90SAPS  H20S 8760   1.716   1.423   8.754  0.7059  2.8778 -1.0273
   90SAPS  H20T 8761   1.696   1.582   8.842  0.5149  1.0732  0.4331
   90SAPS   C33 8762   1.221   1.874   9.988  1.1494 -0.4797  0.0893
   90SAPS   H3X 8763   1.266   1.960  10.040  0.0926  0.3104 -0.2861
   90SAPS   H3Y 8764   1.111   1.870  10.004  1.1097  2.4563  0.7784
   90SAPS   C34 8765   1.260   1.882   9.844  0.3639  0.0889 -0.0580
   90SAPS   H4X 8766   1.210   1.803   9.783  2.8236 -0.7713 -1.0514
   90SAPS   H4Y 8767   1.369   1.859   9.845 -0.0945 -2.2350  0.2457
   90SAPS   C35 8768   1.230   2.017   9.777  0.2107  0.1410  0.5216
   90SAPS   H5X 8769   1.290   2.090   9.835 -0.9498 -1.5237  3.9538
   90SAPS   H5Y 8770   1.125   2.053   9.787 -0.9782 -1.1959 -5.3086
   90SAPS   C36 8771   1.271   2.028   9.631 -0.5339  0.0701 -0.5682
   90SAPS   H6X 8772   1.204   1.966   9.567 -0.4863  1.5246 -2.0738
   90SAPS   H6Y 8773   1.374   1.992   9.611  0.2392  1.8164  0.2407
   90SAPS   C37 8774   1.275   2.169   9.572 -0.3255 -0.2211  0.3799
   90SAPS   H7X 8775   1.350   2.221   9.635 -0.0233  0.0874 -0.2312
   90SAPS   H7Y 8776   1.181   2.223   9.595  0.1584  0.3163  1.1441
   90SAPS   C38 8777   1.302   2.172   9.422 -0.2075 -0.1299  0.7937
   90SAPS   H8X 8778   1.222   2.123   9.363 -2.2129  2.6309  1.1253
   90SAPS   H8Y 8779   1.394   2.114   9.397  0.1540  0.8173 -0.1291
   90SAPS   C39 8780   1.318   2.310   9.352 -0.5893  0.1416 -0.1789
   90SAPS   H9X 8781   1.404   2.360   9.402 -1.5963  1.1020  0.6090
   90SAPS   H9Y 8782   1.227   2.367   9.381 -2.4370 -3.1589  0.7141
   90SAPS  C310 8783   1.334   2.305   9.202 -0.2320  0.4121 -0.4146
   90SAPS  H10X 8784   1.237   2.281   9.153 -0.1630  0.1801 -0.4378
   90SAPS  H10Y 8785   1.401   2.218   9.181  0.3727  0.8323 -0.2374
   90SAPS  C311 8786   1.371   2.438   9.144 -1.0090 -0.6117 -0.3635
   90SAPS  H11X 8787   1.456   2.481   9.201 -2.2742 -0.6610  1.6074
   90SAPS  H11Y 8788   1.286   2.507   9.162 -0.1924  0.3938 -0.2913
   90SAPS  C312 8789   1.396   2.419   8.991  0.3426 -0.2523 -0.3013
   90SAPS  H12X 8790   1.312   2.357   8.953  0.2120 -1.6970  2.2560
   90SAPS  H12Y 8791   1.488   2.360   8.973 -0.2194 -0.8303 -1.3696
   90SAPS  C313 8792   1.397   2.550   8.918  0.1851 -0.3305 -0.1670
   90SAPS  H13X 8793   1.493   2.604   8.936  0.6640 -1.2316  0.0023
   90SAPS  H13Y 8794   1.312   2.615   8.949  0.7846  0.1794  0.4367
   90SAPS  C314 8795   1.386   2.532   8.765 -0.1631 -0.4645  0.2139
   90SAPS  H14X 8796   1.294   2.474   8.742 -1.3989  1.8339 -0.8285
   90SAPS  H14Y 8797   1.476   2.480   8.726 -0.7433 -2.2032  1.1773
   90SAPS  C315 8798   1.373   2.665   8.683 -0.7095  0.4202 -0.5476
   90SAPS  H15X 8799   1.467   2.721   8.699 -0.0394 -0.7605 -0.3380
   90SAPS  H15Y 8800   1.290   2.731   8.719  1.0770  1.0383  2.6005
   90SAPS  C316 8801   1.350   2.633   8.532 -0.2271  0.2438  0.0705
   90SAPS  H16X 8802   1.273   2.554   8.518 -0.6680  0.1620  2.7431
   90SAPS  H16Y 8803   1.446   2.603   8.484 -0.2623 -0.1028  0.2180
   90SAPS  C317 8804   1.302   2.752   8.456 -0.6480 -0.3961  0.0348
   90SAPS  H17X 8805   1.371   2.838   8.472 -1.4437  0.2030  0.2850
   90SAPS  H17Y 8806   1.207   2.779   8.507  0.1661  0.1524  1.2811
   90SAPS  C318 8807   1.277   2.719   8.303 -0.5056 -0.0007 -0.6652
   90SAPS  H18X 8808   1.222   2.800   8.251  1.1584 -0.1556 -2.7358
   90SAPS  H18Y 8809   1.214   2.628   8.302 -0.3198 -0.1516  0.3445
   90SAPS  H18Z 8810   1.374   2.703   8.251  0.9690  0.1532  1.9264
   91SAPS     N 8811   0.372   5.594   6.258  0.3903  0.0486  0.4718
   91SAPS   HN1 8812   0.426   5.505   6.265 -0.3348 -0.3821  0.6885
   91SAPS   HN2 8813   0.311   5.586   6.342  3.4224  0.9069  2.8389
   91SAPS   HN3 8814   0.313   5.608   6.173  0.1448  1.6725  0.8978
   91SAPS   C12 8815   0.464   5.704   6.261  0.1453 -0.1233 -0.0515
   91SAPS  H12A 8816   0.540   5.688   6.337  0.8652 -0.4205 -0.8269
   91SAPS   C13 8817   0.558   5.728   6.136 -0.3577  0.0069  0.0707
   91SAPS  O13A 8818   0.564   5.634   6.054 -0.1183  0.6545  0.4115
   91SAPS  O13B 8819   0.619   5.834   6.111  0.0726 -0.0149  0.4432
   91SAPS   C11 8820   0.380   5.830   6.291 -0.5619 -0.5493  0.4683
   91SAPS  H11A 8821   0.447   5.919   6.286 -0.4795 -0.6705 -0.7622
   91SAPS  H11B 8822   0.349   5.815   6.397  0.0623 -0.2051  0.7061
   91SAPS     P 8823   0.121   5.868   6.237 -0.1388 -0.4962 -0.5742
   91SAPS   O13 8824   0.061   5.930   6.116  0.4884 -0.1055 -0.1277
   91SAPS   O14 8825   0.052   5.752   6.298 -0.0763  0.3685 -0.2436
   91SAPS   O12 8826   0.268   5.838   6.194  0.3214 -0.7900 -0.0635
   91SAPS   O11 8827   0.141   5.976   6.351  0.5057 -0.1748  0.6141
   91SAPS    C1 8828   0.139   6.118   6.312  0.6126 -0.5259 -0.3600
   91SAPS    HA 8829   0.239   6.165   6.316  0.6528 -0.7322  1.5134
   91SAPS    HB 8830   0.107   6.133   6.206  2.7098  2.6105 -0.5884
   91SAPS    C2 8831   0.039   6.200   6.399 -0.2271 -0.2616  0.5261
   91SAPS    HS 8832   0.057   6.309   6.387  0.6847 -0.3488  1.0052
   91SAPS   O21 8833   0.042   6.164   6.540  0.0998  0.3033  0.0491
   91SAPS   C21 8834   0.157   6.201   6.595  0.6234 -0.2771 -0.6556
   91SAPS   O22 8835   0.226   6.295   6.558  0.6793  0.4027 -0.5695
   91SAPS   C22 8836   0.196   6.105   6.707  0.4367  0.5868 -0.5151
   91SAPS   H2R 8837   0.116   6.029   6.716  0.6126  0.3237 -1.1601
   91SAPS   H2S 8838   0.292   6.052   6.694  1.0318  0.9244  2.2582
   91SAPS    C3 8839  -0.107   6.169   6.353 -0.6220 -0.6579  0.1484
   91SAPS    HX 8840  -0.130   6.062   6.374 -1.6560 -0.3566  0.5868
   91SAPS    HY 8841  -0.100   6.184   6.243 -2.5387  2.8397  0.4357
   91SAPS   O31 8842  -0.210   6.259   6.405 -0.8944  0.0347 -0.0129
   91SAPS   C31 8843  -0.276   6.228   6.519 -0.1924 -0.6659  0.1690
   91SAPS   O32 8844  -0.254   6.133   6.590  0.6230 -0.4391  0.3774
   91SAPS   C32 8845  -0.391   6.332   6.535 -0.1873 -0.0535 -0.3498
   91SAPS   H2X 8846  -0.451   6.287   6.617 -1.0973 -2.4245 -2.2638
   91SAPS   H2Y 8847  -0.448   6.330   6.439  0.4323  0.8879 -0.7459
   91SAPS   C23 8848   0.193   6.187   6.843 -0.0127 -0.4865  0.3849
   91SAPS   H3R 8849   0.200   6.119   6.930  0.6390  0.9340  1.4800
   91SAPS   H3S 8850   0.096   6.240   6.852 -0.2102 -0.9812  1.1891
   91SAPS   C24 8851   0.304   6.286   6.860  0.6449  0.1885 -0.0430
   91SAPS   H4R 8852   0.289   6.348   6.950  0.4077 -0.7520  0.5735
   91SAPS   H4S 8853   0.293   6.361   6.779  1.4017  0.2339 -0.1050
   91SAPS   C25 8854   0.447   6.246   6.842  0.2410  0.9798 -0.3090
   91SAPS   H5R 8855   0.488   6.233   6.741  0.9196  0.0726  0.0781
   91SAPS   C26 8856   0.539   6.240   6.936  0.1331  0.1299  0.5445
   91SAPS   H6R 8857   0.645   6.223   6.912  0.5165  2.8933  0.1292
   91SAPS   C27 8858   0.518   6.259   7.084  0.3734 -0.1756 -0.2783
   91SAPS   H7R 8859   0.469   6.357   7.101  1.7235  0.3458  0.6929
   91SAPS   H7S 8860   0.621   6.271   7.124  0.5421 -3.6567  0.4549
   91SAPS   C28 8861   0.459   6.141   7.160  0.2025  0.5063  1.4779
   91SAPS   H8R 8862   0.419   6.054   7.105  0.2292  0.3703  1.6692
   91SAPS   C29 8863   0.463   6.141   7.296 -0.6058  0.0485  0.4351
   91SAPS   H9R 8864   0.423   6.051   7.345 -1.1406  0.6857  1.1917
   91SAPS  C210 8865   0.527   6.246   7.389  0.2629  0.8554 -0.5130
   91SAPS  H10R 8866   0.452   6.267   7.467  1.9705  1.8980  0.8917
   91SAPS  H10S 8867   0.549   6.334   7.324 -4.5062  1.9942 -0.7239
   91SAPS  C211 8868   0.651   6.194   7.455 -0.4991 -0.4503 -0.7209
   91SAPS  H11R 8869   0.743   6.193   7.395 -0.5064 -1.5682 -0.7185
   91SAPS  C212 8870   0.666   6.163   7.587 -0.6138 -0.1162 -0.2996
   91SAPS  H12R 8871   0.765   6.152   7.633 -0.9196  3.1993  1.3459
   91SAPS  C213 8872   0.564   6.166   7.701  0.7650 -0.2412  0.3274
   91SAPS  H13R 8873   0.604   6.091   7.773  1.2076  1.9121  2.4109
   91SAPS  H13S 8874   0.466   6.135   7.659 -0.4232  0.2449  2.6503
   91SAPS  C214 8875   0.551   6.305   7.766  0.1291 -1.0966  0.3862
   91SAPS  H14R 8876   0.529   6.392   7.703  0.7803  0.1126  1.7998
   91SAPS  C215 8877   0.545   6.339   7.893  0.2169  0.6305 -0.3079
   91SAPS  H15R 8878   0.543   6.445   7.922  0.2850  0.1262  1.6135
   91SAPS  C216 8879   0.550   6.256   8.018 -0.1019 -0.1137  0.9940
   91SAPS  H16R 8880   0.507   6.154   8.005  1.0334 -0.3948 -0.8649
   91SAPS  H16S 8881   0.493   6.313   8.095  0.1857  0.5010  0.7507
   91SAPS  C217 8882   0.699   6.234   8.059  1.1869 -0.1026 -0.1561
   91SAPS  H17R 8883   0.756   6.175   7.984  0.1110 -0.3220 -0.7949
   91SAPS  H17S 8884   0.700   6.171   8.151 -0.4284 -0.7026 -0.5318
   91SAPS  C218 8885   0.777   6.362   8.089  0.3209 -0.3037  0.2377
   91SAPS  H18R 8886   0.720   6.431   8.155  0.5349  1.4898 -1.3691
   91SAPS  H18S 8887   0.786   6.426   7.998  2.6798  0.7859  1.1994
   91SAPS  C219 8888   0.912   6.327   8.151 -0.1434  0.1929  0.0684
   91SAPS  H19R 8889   0.965   6.248   8.093 -0.2567 -1.5004  2.2055
   91SAPS  H19S 8890   0.888   6.296   8.255 -2.2442  0.0089 -0.4369
   91SAPS  C220 8891   1.006   6.446   8.162 -0.1488 -0.0116 -0.3369
   91SAPS  H20R 8892   0.954   6.532   8.210 -0.6360 -1.1134  1.1645
   91SAPS  H20S 8893   1.038   6.484   8.063  1.6770  0.5193  0.4276
   91SAPS  H20T 8894   1.101   6.419   8.213  0.8548  1.5948 -1.3347
   91SAPS   C33 8895  -0.328   6.466   6.586  0.2062 -0.6708 -0.4557
   91SAPS   H3X 8896  -0.379   6.541   6.521 -0.5988 -0.2321  0.6617
   91SAPS   H3Y 8897  -0.222   6.469   6.554  0.5629 -2.5290  0.4612
   91SAPS   C34 8898  -0.346   6.487   6.734  0.2891 -0.5366 -0.7742
   91SAPS   H4X 8899  -0.447   6.447   6.756  0.5306 -0.4400  0.5557
   91SAPS   H4Y 8900  -0.348   6.594   6.765 -1.8724 -0.9831  0.6942
   91SAPS   C35 8901  -0.241   6.420   6.812  0.5826 -0.8302 -0.7278
   91SAPS   H5X 8902  -0.137   6.421   6.773  0.7161  1.0831 -0.3485
   91SAPS   H5Y 8903  -0.269   6.312   6.810 -0.1657 -0.6752  0.8590
   91SAPS   C36 8904  -0.253   6.467   6.960  0.1862 -0.0827 -0.2086
   91SAPS   H6X 8905  -0.355   6.448   7.000  0.2425 -1.8396 -0.8896
   91SAPS   H6Y 8906  -0.254   6.578   6.952 -1.1166 -0.1636 -1.3658
   91SAPS   C37 8907  -0.140   6.409   7.046 -0.0674 -0.1378 -0.0378
   91SAPS   H7X 8908  -0.036   6.436   7.019  0.5357 -0.7765  1.5758
   91SAPS   H7Y 8909  -0.140   6.298   7.054  1.2691 -0.0834  0.8638
   91SAPS   C38 8910  -0.168   6.447   7.194  0.0479  0.0822 -0.2392
   91SAPS   H8X 8911  -0.254   6.382   7.222 -1.6761  2.5555  0.3759
   91SAPS   H8Y 8912  -0.203   6.551   7.207  0.2402  0.2601 -1.1101
   91SAPS   C39 8913  -0.047   6.417   7.289  0.0869 -0.1834 -0.2069
   91SAPS   H9X 8914   0.044   6.472   7.255 -0.4877  1.5284  0.9589
   91SAPS   H9Y 8915  -0.026   6.308   7.291 -2.5625 -0.6814  2.1096
   91SAPS  C310 8916  -0.065   6.467   7.431  0.3951  0.3279 -0.0573
   91SAPS  H10X 8917  -0.156   6.420   7.473 -0.7898  1.0288 -1.7768
   91SAPS  H10Y 8918  -0.098   6.573   7.427 -1.3966 -0.0354  3.2873
   91SAPS  C311 8919   0.051   6.462   7.531  0.3017 -0.4227  0.3017
   91SAPS  H11X 8920   0.141   6.508   7.485  0.5951 -1.5336 -0.2519
   91SAPS  H11Y 8921   0.083   6.356   7.534  0.3831 -0.3764  1.4390
   91SAPS  C312 8922   0.017   6.498   7.681 -0.5108  0.3107 -0.4320
   91SAPS  H12X 8923  -0.069   6.437   7.715 -1.5172  1.1321 -1.4829
   91SAPS  H12Y 8924  -0.008   6.605   7.697 -2.7452 -0.4250  1.1555
   91SAPS  C313 8925   0.127   6.446   7.776  0.2879 -0.0636 -1.0014
   91SAPS  H13X 8926   0.227   6.457   7.727  0.5344  0.3031 -0.4189
   91SAPS  H13Y 8927   0.119   6.336   7.785 -1.4227  0.1982  0.9752
   91SAPS  C314 8928   0.111   6.507   7.914 -0.0839  0.6575  0.6559
   91SAPS  H14X 8929   0.058   6.440   7.985  0.6999 -0.2202  0.4402
   91SAPS  H14Y 8930   0.051   6.600   7.911 -0.9699  0.1262  1.5977
   91SAPS  C315 8931   0.254   6.536   7.976  0.0059 -0.3841  0.8911
   91SAPS  H15X 8932   0.297   6.612   7.907  0.2861 -2.0935 -0.8673
   91SAPS  H15Y 8933   0.315   6.444   7.986  2.4853  1.4082  2.9081
   91SAPS  C316 8934   0.250   6.603   8.112 -0.5180  0.3412  0.1736
   91SAPS  H16X 8935   0.171   6.680   8.117  2.0003  2.9903  0.9446
   91SAPS  H16Y 8936   0.351   6.650   8.124 -0.6764  1.0920 -1.3231
   91SAPS  C317 8937   0.239   6.490   8.221  0.1635 -0.1680  1.1387
   91SAPS  H17X 8938   0.316   6.411   8.210  0.0029 -0.7252  3.6854
   91SAPS  H17Y 8939   0.143   6.437   8.199  0.1862 -0.7639  2.4125
   91SAPS  C318 8940   0.242   6.549   8.359  0.6651  0.3743 -0.5644
   91SAPS  H18X 8941   0.337   6.603   8.380  1.6923 -1.2553 -0.9583
   91SAPS  H18Y 8942   0.237   6.457   8.421  1.5942 -0.1423 -1.2333
   91SAPS  H18Z 8943   0.155   6.617   8.373  0.8876  0.6771 -0.6357
   92SAPS     N 8944   5.914   4.948   6.267  0.2506 -0.4788 -0.0386
   92SAPS   HN1 8945   5.954   5.024   6.209  0.6735 -1.2347 -0.7522
   92SAPS   HN2 8946   5.812   4.963   6.280  0.4805  1.5320 -0.3142
   92SAPS   HN3 8947   5.957   4.954   6.361  1.0141  2.0237 -0.5045
   92SAPS   C12 8948   5.956   4.821   6.197  0.3146 -0.6861  0.4777
   92SAPS  H12A 8949   5.881   4.787   6.128 -0.0363 -1.0956  1.0535
   92SAPS   C13 8950   6.088   4.828   6.116  0.1457 -0.0629 -0.1630
   92SAPS  O13A 8951   6.154   4.934   6.106  0.1140  0.3002 -0.1497
   92SAPS  O13B 8952   6.122   4.725   6.048  0.0669 -0.1515 -0.5001
   92SAPS   C11 8953   5.974   4.709   6.308 -0.0124  0.1404 -0.0471
   92SAPS  H11A 8954   6.055   4.733   6.380  0.0211  1.4550 -0.5063
   92SAPS  H11B 8955   6.000   4.617   6.251 -1.5287 -0.1936 -0.2244
   92SAPS     P 8956   5.788   4.579   6.449 -0.4541  0.2002 -0.3872
   92SAPS   O13 8957   5.665   4.628   6.513 -0.0163  0.1813  0.2214
   92SAPS   O14 8958   5.775   4.466   6.351 -0.4819 -0.1974 -0.0015
   92SAPS   O12 8959   5.849   4.697   6.374  0.2262 -0.3337  0.0131
   92SAPS   O11 8960   5.904   4.544   6.562  0.1120 -0.4292  0.3356
   92SAPS    C1 8961   5.854   4.507   6.691  0.2141 -0.0691 -0.2667
   92SAPS    HA 8962   5.920   4.543   6.773  0.7398 -2.5341  0.4476
   92SAPS    HB 8963   5.754   4.547   6.717  0.3025 -1.1793  1.8885
   92SAPS    C2 8964   5.843   4.352   6.692  0.6028 -0.9009 -1.0730
   92SAPS    HS 8965   5.776   4.328   6.607  1.6510 -0.6918 -1.9693
   92SAPS   O21 8966   5.786   4.293   6.812  0.3827 -0.3991 -0.1286
   92SAPS   C21 8967   5.658   4.321   6.827  0.1786  0.2153  0.2356
   92SAPS   O22 8968   5.587   4.371   6.743 -0.2323  0.0343  0.1085
   92SAPS   C22 8969   5.615   4.265   6.968  0.3364  0.6886 -0.2420
   92SAPS   H2R 8970   5.648   4.159   6.972  0.9999  0.9669  2.3683
   92SAPS   H2S 8971   5.674   4.317   7.046 -0.1709 -2.0059  2.0224
   92SAPS    C3 8972   5.990   4.291   6.674  0.8730  0.0708  0.1469
   92SAPS    HX 8973   6.026   4.312   6.571 -1.2750 -0.0292 -0.6455
   92SAPS    HY 8974   5.980   4.182   6.689  0.7748  0.0559 -0.0332
   92SAPS   O31 8975   6.062   4.353   6.779 -0.1137  0.3071 -0.3134
   92SAPS   C31 8976   6.125   4.286   6.868 -0.7718 -0.6350 -0.2713
   92SAPS   O32 8977   6.143   4.167   6.872  0.2796 -0.4111  0.0593
   92SAPS   C32 8978   6.197   4.389   6.953  0.7387 -0.4560  0.7491
   92SAPS   H2X 8979   6.156   4.488   6.921  1.0812 -0.9993 -1.4627
   92SAPS   H2Y 8980   6.304   4.388   6.925  0.1294  0.3524 -1.7320
   92SAPS   C23 8981   5.464   4.293   7.011  0.0918 -0.2053  0.6011
   92SAPS   H3R 8982   5.407   4.204   6.978  0.3233 -0.4411  0.8305
   92SAPS   H3S 8983   5.424   4.373   6.945  0.5179 -0.3331  0.1831
   92SAPS   C24 8984   5.445   4.335   7.156  0.4018  0.5949 -0.1538
   92SAPS   H4R 8985   5.347   4.387   7.163 -0.3091 -0.6939 -0.2957
   92SAPS   H4S 8986   5.524   4.411   7.171 -0.9318  2.0077 -0.1945
   92SAPS   C25 8987   5.438   4.222   7.258  0.2999 -0.3185  0.2760
   92SAPS   H5R 8988   5.355   4.152   7.244 -0.0513  0.5789 -2.3685
   92SAPS   C26 8989   5.520   4.203   7.363  0.5238 -0.3326  0.1784
   92SAPS   H6R 8990   5.500   4.131   7.444 -0.5161  1.9302  1.9799
   92SAPS   C27 8991   5.647   4.277   7.387  1.0554  0.1919  0.2241
   92SAPS   H7R 8992   5.617   4.365   7.449 -3.1971  0.5690 -2.1598
   92SAPS   H7S 8993   5.693   4.314   7.293 -2.1827  2.3892 -0.5838
   92SAPS   C28 8994   5.758   4.203   7.462  0.3937  0.2314  0.8012
   92SAPS   H8R 8995   5.833   4.154   7.398  0.1061 -0.2619  0.8485
   92SAPS   C29 8996   5.779   4.185   7.597 -0.3260  0.1824  0.3762
   92SAPS   H9R 8997   5.862   4.124   7.636  0.8034  0.5628 -1.3702
   92SAPS  C210 8998   5.696   4.245   7.705  0.1145 -0.4869  0.0777
   92SAPS  H10R 8999   5.685   4.190   7.801 -1.7106  2.0900  1.4171
   92SAPS  H10S 9000   5.590   4.265   7.678  0.2475 -0.2368 -0.2598
   92SAPS  C211 9001   5.754   4.381   7.742  0.1355  0.9824  0.6058
   92SAPS  H11R 9002   5.778   4.450   7.660 -0.6146  0.3422 -0.1572
   92SAPS  C212 9003   5.785   4.434   7.867  0.3092  0.3990  0.3472
   92SAPS  H12R 9004   5.812   4.541   7.864  4.9150 -0.4432  4.7490
   92SAPS  C213 9005   5.779   4.358   7.998 -0.1343 -0.1814 -0.1419
   92SAPS  H13R 9006   5.730   4.262   7.971 -0.8180  0.3744 -0.9129
   92SAPS  H13S 9007   5.710   4.416   8.063  0.7803  2.0250 -1.0928
   92SAPS  C214 9008   5.917   4.344   8.052  0.0225  0.2566 -0.3491
   92SAPS  H14R 9009   5.985   4.280   7.993 -2.3058 -2.0211 -0.6666
   92SAPS  C215 9010   5.967   4.415   8.157  0.5911  0.8032 -0.0834
   92SAPS  H15R 9011   6.075   4.398   8.171  0.8472  2.4772  0.1174
   92SAPS  C216 9012   5.888   4.500   8.251  0.3337  0.5405 -0.3504
   92SAPS  H16R 9013   5.837   4.581   8.195  0.5289  1.7434  1.1730
   92SAPS  H16S 9014   5.950   4.551   8.327  0.1603  1.0152 -0.5239
   92SAPS  C217 9015   5.779   4.427   8.330  0.0943 -0.1254 -0.4449
   92SAPS  H17R 9016   5.725   4.342   8.282 -1.2594  0.1091  0.6099
   92SAPS  H17S 9017   5.695   4.495   8.358 -1.5124 -2.8720  1.7271
   92SAPS  C218 9018   5.830   4.366   8.465  0.9786 -0.0741  0.0154
   92SAPS  H18R 9019   5.903   4.439   8.506 -1.2548  2.3043 -0.1590
   92SAPS  H18S 9020   5.902   4.286   8.437  1.7301  0.8601 -0.7518
   92SAPS  C219 9021   5.732   4.311   8.562  0.3128 -0.0369  0.0525
   92SAPS  H19R 9022   5.664   4.383   8.613 -1.5005 -1.0246 -0.9143
   92SAPS  H19S 9023   5.795   4.276   8.647  1.7891 -0.7665 -1.3300
   92SAPS  C220 9024   5.648   4.193   8.507 -0.0564 -0.8415 -0.3524
   92SAPS  H20R 9025   5.587   4.141   8.583  0.7302 -0.8666  0.2673
   92SAPS  H20S 9026   5.704   4.114   8.451  2.9096  0.9867 -0.0796
   92SAPS  H20T 9027   5.584   4.230   8.424 -0.1031 -0.3616 -0.0974
   92SAPS   C33 9028   6.173   4.374   7.104 -0.4738 -0.1179  0.1811
   92SAPS   H3X 9029   6.067   4.345   7.120 -0.6945  1.0551  0.9000
   92SAPS   H3Y 9030   6.203   4.465   7.160  0.6766  0.2970 -1.0811
   92SAPS   C34 9031   6.263   4.264   7.161  0.4468 -0.1751  0.7192
   92SAPS   H4X 9032   6.372   4.268   7.141  1.0069 -0.8017  3.5343
   92SAPS   H4Y 9033   6.227   4.169   7.117 -0.1666  0.7172 -0.7644
   92SAPS   C35 9034   6.263   4.258   7.315  0.2728 -0.2398  0.2736
   92SAPS   H5X 9035   6.309   4.166   7.356  2.9379  1.1555  0.5732
   92SAPS   H5Y 9036   6.162   4.262   7.361  0.1628  0.6065 -0.0167
   92SAPS   C36 9037   6.345   4.380   7.377 -0.8907  0.5962 -0.3531
   92SAPS   H6X 9038   6.310   4.472   7.327 -1.2332 -0.9419 -3.0156
   92SAPS   H6Y 9039   6.456   4.375   7.367 -0.7339  1.3686  0.8804
   92SAPS   C37 9040   6.314   4.398   7.533 -0.4421 -0.4589  0.2964
   92SAPS   H7X 9041   6.203   4.400   7.526 -0.5413 -1.0117  1.6356
   92SAPS   H7Y 9042   6.354   4.498   7.562 -0.9261  0.3276 -1.6472
   92SAPS   C38 9043   6.368   4.289   7.618  0.3453  0.7047 -0.0933
   92SAPS   H8X 9044   6.471   4.264   7.583  0.5041 -1.2473  1.7244
   92SAPS   H8Y 9045   6.303   4.199   7.619  1.3746 -0.0372  1.4771
   92SAPS   C39 9046   6.382   4.329   7.761 -0.4395 -0.0264  0.2255
   92SAPS   H9X 9047   6.288   4.371   7.803 -0.1311  0.1095  0.7934
   92SAPS   H9Y 9048   6.464   4.403   7.769  0.4504 -1.1077  1.2890
   92SAPS  C310 9049   6.432   4.207   7.840  0.4288  0.0931 -0.2854
   92SAPS  H10X 9050   6.511   4.156   7.780 -2.5870 -0.7975 -3.6645
   92SAPS  H10Y 9051   6.342   4.151   7.871 -1.2975  0.7372 -3.8991
   92SAPS  C311 9052   6.509   4.252   7.965  0.0341  0.0307  0.7218
   92SAPS  H11X 9053   6.569   4.344   7.949 -1.7682  1.1705  0.3850
   92SAPS  H11Y 9054   6.581   4.173   7.996  1.3033  0.0763 -1.9508
   92SAPS  C312 9055   6.421   4.273   8.090 -0.2224 -0.0252  0.0940
   92SAPS  H12X 9056   6.349   4.190   8.105  1.1662 -1.0161  1.3727
   92SAPS  H12Y 9057   6.353   4.358   8.066 -0.5959  0.1869  1.8337
   92SAPS  C313 9058   6.486   4.336   8.210  0.0598 -0.3499  0.8256
   92SAPS  H13X 9059   6.540   4.427   8.174 -0.9946  0.7042  1.8613
   92SAPS  H13Y 9060   6.560   4.265   8.253 -1.1196 -0.9292  1.9208
   92SAPS  C314 9061   6.390   4.374   8.318 -0.1524 -0.2535 -0.2831
   92SAPS  H14X 9062   6.324   4.288   8.343 -0.9861  1.2719  3.0246
   92SAPS  H14Y 9063   6.322   4.456   8.284  1.3527  1.6484  1.2082
   92SAPS  C315 9064   6.463   4.438   8.436 -0.1446  0.0000  0.3436
   92SAPS  H15X 9065   6.511   4.530   8.396 -0.3547  1.1743  2.6771
   92SAPS  H15Y 9066   6.537   4.361   8.465  2.2323  1.4670 -1.5449
   92SAPS  C316 9067   6.357   4.469   8.542 -0.2184 -0.3756 -0.0271
   92SAPS  H16X 9068   6.271   4.399   8.552 -1.1583  0.7042 -0.5958
   92SAPS  H16Y 9069   6.310   4.564   8.512  0.7906 -0.1566 -0.9383
   92SAPS  C317 9070   6.437   4.511   8.665  0.1254  0.0580  0.2930
   92SAPS  H17X 9071   6.515   4.582   8.630  0.6091 -1.5165 -1.8636
   92SAPS  H17Y 9072   6.494   4.425   8.706 -0.3023  0.4382  1.7416
   92SAPS  C318 9073   6.363   4.608   8.760  0.2434  0.5702  0.3674
   92SAPS  H18X 9074   6.400   4.614   8.865 -2.8267  2.0561  1.4182
   92SAPS  H18Y 9075   6.264   4.561   8.775  0.8251 -0.6333  0.4960
   92SAPS  H18Z 9076   6.354   4.710   8.716  1.7091  1.4580  2.0828
   93SAPS     N 9077   6.702   5.582   6.126  0.0542  0.3505  0.1219
   93SAPS   HN1 9078   6.771   5.616   6.196  1.0551 -0.5573 -0.3940
   93SAPS   HN2 9079   6.691   5.655   6.052 -1.6188  1.2794  1.2511
   93SAPS   HN3 9080   6.607   5.572   6.165 -0.2064  1.8057 -0.0971
   93SAPS   C12 9081   6.755   5.456   6.074 -0.2869  0.8819 -0.4580
   93SAPS  H12A 9082   6.695   5.450   5.984 -2.3110 -0.2698  0.9302
   93SAPS   C13 9083   6.905   5.452   6.040  0.5050 -0.2605 -0.6827
   93SAPS  O13A 9084   6.975   5.553   6.066  0.0530  0.3995  0.1474
   93SAPS  O13B 9085   6.949   5.349   5.980  0.1021  0.2024  0.6584
   93SAPS   C11 9086   6.731   5.347   6.184  0.0553  0.7896  0.0046
   93SAPS  H11A 9087   6.766   5.385   6.282 -2.0548  0.3287  0.9698
   93SAPS  H11B 9088   6.793   5.260   6.154 -2.4913 -1.1043  0.0662
   93SAPS     P 9089   6.566   5.184   6.286 -0.1668 -0.1996  0.3195
   93SAPS   O13 9090   6.422   5.188   6.318 -0.3595 -0.3457  0.3351
   93SAPS   O14 9091   6.623   5.056   6.231  0.0019 -0.1937 -0.4673
   93SAPS   O12 9092   6.595   5.306   6.192 -0.0915  1.0326  0.5904
   93SAPS   O11 9093   6.640   5.225   6.423 -0.5059 -0.3580  0.5618
   93SAPS    C1 9094   6.718   5.125   6.492 -0.0956  0.1505  0.1348
   93SAPS    HA 9095   6.802   5.095   6.426 -0.1514  2.5271 -1.1079
   93SAPS    HB 9096   6.771   5.182   6.572  1.8353  2.0539 -2.3885
   93SAPS    C2 9097   6.645   5.006   6.564 -0.1805  0.1717 -0.4104
   93SAPS    HS 9098   6.565   4.975   6.493 -2.1771  0.9780  1.4223
   93SAPS   O21 9099   6.571   5.063   6.676 -0.0647  0.0954  0.3862
   93SAPS   C21 9100   6.491   4.976   6.736  0.8149  0.1155  0.8402
   93SAPS   O22 9101   6.469   4.864   6.692  0.4988  0.2864 -0.3870
   93SAPS   C22 9102   6.433   5.042   6.864 -0.3546 -0.3865 -0.0104
   93SAPS   H2R 9103   6.519   5.090   6.915 -0.1127  0.6669 -1.3744
   93SAPS   H2S 9104   6.364   5.122   6.829 -0.3700  0.2303  1.3900
   93SAPS    C3 9105   6.747   4.890   6.596 -0.0562 -0.2524  0.4707
   93SAPS    HX 9106   6.804   4.849   6.510  0.6517 -2.8379  2.1041
   93SAPS    HY 9107   6.697   4.795   6.625  2.6915 -2.6016 -2.1574
   93SAPS   O31 9108   6.846   4.938   6.683 -0.1957 -0.7785 -0.1202
   93SAPS   C31 9109   6.823   4.927   6.810  0.1541  0.0597  0.3562
   93SAPS   O32 9110   6.715   4.887   6.857  0.4722  0.0227  0.3540
   93SAPS   C32 9111   6.942   4.978   6.893  0.0068 -0.2841  0.7885
   93SAPS   H2X 9112   6.941   5.086   6.867  0.8803 -0.1148  1.3995
   93SAPS   H2Y 9113   7.039   4.935   6.860  1.0002  3.7772 -1.9098
   93SAPS   C23 9114   6.358   4.950   6.964  0.0863  0.0976  0.1516
   93SAPS   H3R 9115   6.288   4.896   6.896 -0.0307 -2.5164  2.2574
   93SAPS   H3S 9116   6.311   5.024   7.031  1.0840  1.8007 -0.9807
   93SAPS   C24 9117   6.436   4.847   7.042  0.1338 -0.6359 -0.4521
   93SAPS   H4R 9118   6.518   4.894   7.100 -1.9214  0.0800  1.9346
   93SAPS   H4S 9119   6.475   4.781   6.962  2.3490  1.3851 -1.0966
   93SAPS   C25 9120   6.340   4.774   7.141  1.0136  0.8764  0.3062
   93SAPS   H5R 9121   6.239   4.748   7.105  1.6263 -0.0280 -0.8386
   93SAPS   C26 9122   6.369   4.754   7.267 -0.5807 -0.1374  0.2594
   93SAPS   H6R 9123   6.295   4.694   7.322 -1.0215  0.2720  0.1234
   93SAPS   C27 9124   6.499   4.792   7.345  1.2043  0.4717  0.4629
   93SAPS   H7R 9125   6.559   4.877   7.308  1.3872  0.7777  1.4664
   93SAPS   H7S 9126   6.563   4.702   7.358 -2.0273 -1.7048  2.2262
   93SAPS   C28 9127   6.451   4.837   7.480  0.0505 -0.3997 -0.0001
   93SAPS   H8R 9128   6.365   4.905   7.482  0.3040 -0.0255 -1.3119
   93SAPS   C29 9129   6.511   4.810   7.599 -0.1304 -0.0741  0.7128
   93SAPS   H9R 9130   6.476   4.855   7.693 -1.4672  0.3595  0.0127
   93SAPS  C210 9131   6.637   4.725   7.626  0.2061  0.0389 -0.4406
   93SAPS  H10R 9132   6.725   4.791   7.638  0.3339 -0.2549  0.2287
   93SAPS  H10S 9133   6.654   4.654   7.542  0.6276  0.8581 -1.0610
   93SAPS  C211 9134   6.612   4.644   7.748  0.3491  0.3483 -0.3402
   93SAPS  H11R 9135   6.616   4.535   7.731  2.1377  0.3753 -0.1622
   93SAPS  C212 9136   6.627   4.676   7.880  0.7051 -0.3989 -0.2059
   93SAPS  H12R 9137   6.591   4.599   7.950 -0.9381 -0.2326 -0.8361
   93SAPS  C213 9138   6.659   4.806   7.938 -0.4032  0.4702 -0.1783
   93SAPS  H13R 9139   6.574   4.842   8.000 -1.0617 -0.4659 -0.5339
   93SAPS  H13S 9140   6.654   4.879   7.854  1.9684  1.1750  0.2451
   93SAPS  C214 9141   6.792   4.817   8.007  0.6078 -0.0919 -0.0077
   93SAPS  H14R 9142   6.877   4.815   7.937  2.1461  1.4621  1.7592
   93SAPS  C215 9143   6.812   4.822   8.144  0.4155 -0.3088 -0.0124
   93SAPS  H15R 9144   6.916   4.845   8.171  0.6222 -1.5692  0.2750
   93SAPS  C216 9145   6.696   4.826   8.243  0.4073  0.1269  0.1846
   93SAPS  H16R 9146   6.608   4.764   8.212 -1.3621  1.5928  2.1749
   93SAPS  H16S 9147   6.666   4.931   8.263  0.4474 -0.4124  3.2646
   93SAPS  C217 9148   6.719   4.768   8.381  0.5837 -0.0129 -0.2389
   93SAPS  H17R 9149   6.827   4.781   8.404  1.2092 -0.1894 -2.9715
   93SAPS  H17S 9150   6.696   4.660   8.377 -0.4779  0.2288 -0.6873
   93SAPS  C218 9151   6.639   4.843   8.485 -0.1333 -0.1838 -0.6715
   93SAPS  H18R 9152   6.539   4.795   8.486  0.4520 -1.4143 -0.9055
   93SAPS  H18S 9153   6.633   4.953   8.466  0.4766 -0.0535 -0.1304
   93SAPS  C219 9154   6.701   4.827   8.626 -0.7974 -0.0497  0.3560
   93SAPS  H19R 9155   6.810   4.846   8.615 -0.1276 -3.5489  0.4816
   93SAPS  H19S 9156   6.702   4.721   8.658 -1.2022 -0.0097  0.5104
   93SAPS  C220 9157   6.623   4.908   8.732  0.0261 -0.2018 -0.0559
   93SAPS  H20R 9158   6.514   4.886   8.729 -0.5433  2.4170  0.0042
   93SAPS  H20S 9159   6.642   5.016   8.715  0.4756 -0.1809  0.5720
   93SAPS  H20T 9160   6.656   4.889   8.837  0.4889  2.3837  0.3095
   93SAPS   C33 9161   6.906   4.958   7.044 -0.3793 -0.2758  0.0433
   93SAPS   H3X 9162   6.811   5.012   7.060  0.4538  0.8930  1.1701
   93SAPS   H3Y 9163   6.980   5.011   7.108 -1.8892  0.9097  0.8507
   93SAPS   C34 9164   6.904   4.816   7.094  0.3270  0.1369 -0.0273
   93SAPS   H4X 9165   6.997   4.762   7.064  0.1970  0.4649 -1.0360
   93SAPS   H4Y 9166   6.831   4.754   7.038 -1.9131  1.4302  1.3778
   93SAPS   C35 9167   6.878   4.803   7.246 -0.0261 -0.3287  0.2170
   93SAPS   H5X 9168   6.821   4.708   7.259 -1.1075  0.3454  0.4334
   93SAPS   H5Y 9169   6.819   4.892   7.274  0.9325 -0.2463  2.0477
   93SAPS   C36 9170   7.000   4.806   7.329  0.5447  0.4663  0.1809
   93SAPS   H6X 9171   7.063   4.893   7.300  0.4344  0.2143 -0.8419
   93SAPS   H6Y 9172   7.056   4.718   7.293 -0.3762 -0.0939  0.1127
   93SAPS   C37 9173   6.972   4.800   7.473 -0.5256 -0.1979 -0.0000
   93SAPS   H7X 9174   6.912   4.710   7.497 -0.9184 -0.0759 -0.4922
   93SAPS   H7Y 9175   6.895   4.880   7.483  0.9967  1.1060  1.5849
   93SAPS   C38 9176   7.100   4.817   7.555  0.0700 -0.9335  0.2585
   93SAPS   H8X 9177   7.151   4.916   7.550 -1.3436 -0.1500  1.3591
   93SAPS   H8Y 9178   7.165   4.736   7.515  1.0690  0.5988 -1.3012
   93SAPS   C39 9179   7.070   4.788   7.705  0.9815 -0.0283 -0.0969
   93SAPS   H9X 9180   6.986   4.716   7.716  0.6776  0.5215  1.3745
   93SAPS   H9Y 9181   7.031   4.878   7.756 -0.2819 -1.1507  0.9688
   93SAPS  C310 9182   7.189   4.722   7.781  0.1226  0.3286  0.2308
   93SAPS  H10X 9183   7.278   4.781   7.753 -1.0214  2.4909  1.0408
   93SAPS  H10Y 9184   7.199   4.616   7.747  1.2249  0.5934 -0.2961
   93SAPS  C311 9185   7.168   4.723   7.928  0.1471 -0.2104 -0.3273
   93SAPS  H11X 9186   7.083   4.652   7.941 -0.0934  0.1341 -0.0085
   93SAPS  H11Y 9187   7.138   4.822   7.968 -1.7568  0.8511 -4.1883
   93SAPS  C312 9188   7.298   4.678   7.995 -0.3915 -0.0177  0.2885
   93SAPS  H12X 9189   7.360   4.769   8.010  2.7555 -1.6804 -1.9465
   93SAPS  H12Y 9190   7.350   4.611   7.923 -1.1159 -0.1362 -0.1311
   93SAPS  C313 9191   7.282   4.609   8.131 -0.4025 -0.8073  0.3926
   93SAPS  H13X 9192   7.368   4.543   8.156  0.2201 -0.2071 -0.1588
   93SAPS  H13Y 9193   7.190   4.547   8.120  0.9466 -2.8888  0.5604
   93SAPS  C314 9194   7.266   4.715   8.247  0.2706  0.6645 -0.4301
   93SAPS  H14X 9195   7.196   4.789   8.203 -0.0158  0.3351 -0.5362
   93SAPS  H14Y 9196   7.367   4.758   8.261  0.1673  1.0567 -0.8439
   93SAPS  C315 9197   7.213   4.652   8.378  0.0245 -0.1194  1.1688
   93SAPS  H15X 9198   7.299   4.590   8.414 -0.0409 -0.2529  1.0969
   93SAPS  H15Y 9199   7.130   4.580   8.364  1.2419 -1.1255 -1.1024
   93SAPS  C316 9200   7.177   4.751   8.485 -0.2840 -0.1271 -0.6692
   93SAPS  H16X 9201   7.105   4.825   8.442 -1.5165 -0.1321  1.3405
   93SAPS  H16Y 9202   7.267   4.810   8.512  0.4196 -1.8081  0.7357
   93SAPS  C317 9203   7.115   4.684   8.614 -0.1113 -0.0849  0.4788
   93SAPS  H17X 9204   7.186   4.602   8.640  0.5289  0.7667  1.4633
   93SAPS  H17Y 9205   7.016   4.650   8.578 -0.5152  1.3880  0.1898
   93SAPS  C318 9206   7.114   4.774   8.734 -0.2283 -0.0400  0.1163
   93SAPS  H18X 9207   7.073   4.874   8.708  0.2659 -0.2156 -1.3828
   93SAPS  H18Y 9208   7.221   4.786   8.761 -0.1621 -2.4120  1.0124
   93SAPS  H18Z 9209   7.062   4.728   8.820 -0.2146  1.5077  0.9666
   94SAPS     N 9210   6.542   0.015   5.441  0.2093 -0.1676 -0.5130
   94SAPS   HN1 9211   6.495  -0.042   5.368  2.8874 -1.6965 -1.1251
   94SAPS   HN2 9212   6.606   0.084   5.397 -3.3758  1.3784 -3.5254
   94SAPS   HN3 9213   6.582  -0.050   5.513 -1.7673 -1.2851 -0.3917
   94SAPS   C12 9214   6.415   0.079   5.504  0.3616  0.2850  0.0042
   94SAPS  H12A 9215   6.358   0.140   5.435 -1.4458 -0.7096  0.5845
   94SAPS   C13 9216   6.315  -0.032   5.558 -0.3173 -0.2079  0.0716
   94SAPS  O13A 9217   6.329  -0.147   5.515 -0.0316  0.2377 -0.4042
   94SAPS  O13B 9218   6.224   0.006   5.633  0.4158  0.9936  0.3583
   94SAPS   C11 9219   6.464   0.158   5.629 -0.4693  0.0566  0.2413
   94SAPS  H11A 9220   6.531   0.092   5.688  1.5332  0.9164 -1.0309
   94SAPS  H11B 9221   6.369   0.186   5.681 -0.7352  0.6777 -0.5721
   94SAPS     P 9222   6.671   0.315   5.654 -0.0859  0.3389  0.1293
   94SAPS   O13 9223   6.766   0.216   5.601 -0.4173 -0.8791 -0.3208
   94SAPS   O14 9224   6.696   0.457   5.627  0.3969 -0.5616  0.5986
   94SAPS   O12 9225   6.523   0.279   5.593  0.2720 -0.1734 -0.3286
   94SAPS   O11 9226   6.652   0.294   5.806  0.6397  0.1534 -0.0504
   94SAPS    C1 9227   6.538   0.362   5.874 -0.1031 -0.5627  0.2622
   94SAPS    HA 9228   6.553   0.472   5.868 -1.4872 -0.4219 -0.9047
   94SAPS    HB 9229   6.444   0.347   5.817 -0.1832 -0.1474  0.2830
   94SAPS    C2 9230   6.536   0.315   6.018 -0.2183  0.3436  0.1339
   94SAPS    HS 9231   6.443   0.351   6.068 -0.6020 -1.0386  0.4365
   94SAPS   O21 9232   6.654   0.354   6.097 -0.2936  0.4432  0.3870
   94SAPS   C21 9233   6.667   0.485   6.127 -0.0340  0.5844 -0.5861
   94SAPS   O22 9234   6.589   0.574   6.089 -0.3019 -0.1963 -0.5637
   94SAPS   C22 9235   6.793   0.507   6.204 -1.0426 -0.7686 -0.4787
   94SAPS   H2R 9236   6.875   0.467   6.142 -0.1745  0.0103  0.1499
   94SAPS   H2S 9237   6.797   0.618   6.217 -2.5789 -0.7535  0.0396
   94SAPS    C3 9238   6.506   0.159   6.034 -0.0374 -0.6217 -0.1267
   94SAPS    HX 9239   6.576   0.087   5.988 -0.9439  0.9844 -4.1942
   94SAPS    HY 9240   6.406   0.148   5.985 -0.0336 -2.3120  0.2129
   94SAPS   O31 9241   6.484   0.126   6.175 -0.3336  0.3867 -0.3289
   94SAPS   C31 9242   6.442   0.003   6.199 -0.1045  0.1378  0.5545
   94SAPS   O32 9243   6.405  -0.077   6.112 -0.4374  0.1344  0.4657
   94SAPS   C32 9244   6.419  -0.020   6.345  0.8019  0.1469  0.4990
   94SAPS   H2X 9245   6.493  -0.099   6.367  3.1426  1.9620 -0.5545
   94SAPS   H2Y 9246   6.312  -0.043   6.360  0.4252  1.0499 -0.7086
   94SAPS   C23 9247   6.786   0.426   6.335 -0.5386  0.3941 -0.0184
   94SAPS   H3R 9248   6.883   0.441   6.386 -0.4130 -0.1239 -0.1085
   94SAPS   H3S 9249   6.795   0.320   6.304  0.0564  0.3665  0.2618
   94SAPS   C24 9250   6.660   0.445   6.428 -0.3181  0.8837 -0.2955
   94SAPS   H4R 9251   6.675   0.390   6.524  1.9905  0.2209 -1.0026
   94SAPS   H4S 9252   6.573   0.404   6.372  0.6876 -0.9001 -0.6027
   94SAPS   C25 9253   6.635   0.586   6.468 -0.3717  0.6116 -0.1553
   94SAPS   H5R 9254   6.596   0.649   6.387  1.5509 -0.5766 -2.0966
   94SAPS   C26 9255   6.653   0.638   6.591  0.8662 -0.1576  0.2918
   94SAPS   H6R 9256   6.604   0.735   6.609  0.6115 -0.2592  0.1541
   94SAPS   C27 9257   6.706   0.568   6.720 -0.0622 -0.2366  0.0978
   94SAPS   H7R 9258   6.668   0.464   6.724  0.0462 -0.3814 -1.9609
   94SAPS   H7S 9259   6.669   0.624   6.808  0.1912 -0.9034  0.6256
   94SAPS   C28 9260   6.860   0.569   6.729  0.0785 -0.5356 -0.0056
   94SAPS   H8R 9261   6.914   0.521   6.646 -2.0556 -3.2289  0.0878
   94SAPS   C29 9262   6.934   0.616   6.828 -0.3466  0.8752  0.2181
   94SAPS   H9R 9263   7.044   0.617   6.819 -0.4140  1.9402 -0.6631
   94SAPS  C210 9264   6.883   0.687   6.952 -0.1556 -0.4027 -0.3617
   94SAPS  H10R 9265   6.783   0.733   6.940 -0.2707 -0.2115  1.2545
   94SAPS  H10S 9266   6.940   0.779   6.980 -0.6274 -0.0991 -0.3826
   94SAPS  C211 9267   6.884   0.590   7.066 -0.5835  0.2058  0.2607
   94SAPS  H11R 9268   6.818   0.504   7.047 -1.7081  1.1966 -0.3589
   94SAPS  C212 9269   6.942   0.591   7.185  0.9832 -0.5135  0.5029
   94SAPS  H12R 9270   6.926   0.501   7.246 -3.8836 -0.8678 -1.0720
   94SAPS  C213 9271   7.026   0.697   7.252  0.4675  0.4494  0.0975
   94SAPS  H13R 9272   6.964   0.752   7.326  0.2444 -0.5514  0.6524
   94SAPS  H13S 9273   7.053   0.768   7.171 -0.7798  0.1610 -0.5968
   94SAPS  C214 9274   7.160   0.650   7.305  0.0779 -0.1520  0.1571
   94SAPS  H14R 9275   7.205   0.564   7.254  0.1654  1.0530 -1.8478
   94SAPS  C215 9276   7.227   0.708   7.405 -0.0146 -0.4377 -0.3299
   94SAPS  H15R 9277   7.322   0.665   7.441  0.2597  1.0602  0.7901
   94SAPS  C216 9278   7.182   0.833   7.486 -0.7522  0.1317 -0.4133
   94SAPS  H16R 9279   7.098   0.884   7.433 -1.4952 -0.6528 -0.0087
   94SAPS  H16S 9280   7.268   0.904   7.492 -0.2094 -0.5947  0.4465
   94SAPS  C217 9281   7.133   0.812   7.641 -0.2908  0.1891 -0.3874
   94SAPS  H17R 9282   7.107   0.916   7.667  0.0288  0.0784  0.3793
   94SAPS  H17S 9283   7.217   0.796   7.712  0.5915  1.4690 -1.1254
   94SAPS  C218 9284   7.018   0.716   7.666  0.4563  0.0206  0.1850
   94SAPS  H18R 9285   7.034   0.614   7.626 -1.9169 -0.9341  1.5715
   94SAPS  H18S 9286   6.930   0.763   7.617  0.5819 -0.0055 -0.0691
   94SAPS  C219 9287   6.990   0.693   7.814 -0.0328 -1.2658  0.0840
   94SAPS  H19R 9288   7.012   0.789   7.865 -1.2369 -0.9276 -0.0134
   94SAPS  H19S 9289   7.046   0.610   7.862  1.6203 -0.1855  0.0861
   94SAPS  C220 9290   6.838   0.674   7.845 -0.2882 -0.8662  0.4434
   94SAPS  H20R 9291   6.803   0.575   7.807 -2.1413 -0.1081  0.1381
   94SAPS  H20S 9292   6.789   0.756   7.788 -0.8127 -0.4570  1.4784
   94SAPS  H20T 9293   6.812   0.696   7.951 -0.2636 -0.7691  0.4281
   94SAPS   C33 9294   6.459   0.101   6.433 -0.0625 -0.2986 -0.3819
   94SAPS   H3X 9295   6.409   0.196   6.404 -1.0143  0.0913  2.3862
   94SAPS   H3Y 9296   6.567   0.120   6.418  0.0986 -0.7581  0.1808
   94SAPS   C34 9297   6.435   0.072   6.581  0.8039 -0.2456 -0.7256
   94SAPS   H4X 9298   6.480  -0.025   6.608 -0.5171 -0.6882 -0.1097
   94SAPS   H4Y 9299   6.325   0.065   6.580  0.9213 -2.2395 -0.2809
   94SAPS   C35 9300   6.477   0.187   6.668 -0.1952 -0.3891 -0.1789
   94SAPS   H5X 9301   6.418   0.279   6.651 -0.4272 -0.5193 -0.0746
   94SAPS   H5Y 9302   6.584   0.207   6.645  0.1541 -0.7822  1.0500
   94SAPS   C36 9303   6.461   0.153   6.813 -0.0154  0.2446 -0.0392
   94SAPS   H6X 9304   6.503   0.053   6.840 -0.0025  0.5796  1.1901
   94SAPS   H6Y 9305   6.352   0.141   6.827 -0.4889  1.9174 -2.1600
   94SAPS   C37 9306   6.498   0.280   6.895  0.9052 -0.2510  0.1735
   94SAPS   H7X 9307   6.434   0.364   6.862 -0.6338 -0.9718  1.2570
   94SAPS   H7Y 9308   6.602   0.311   6.876  0.8230 -0.9324 -1.4997
   94SAPS   C38 9309   6.459   0.256   7.041 -0.5263 -0.1719  0.0398
   94SAPS   H8X 9310   6.521   0.170   7.075  0.4300  0.7916  0.7496
   94SAPS   H8Y 9311   6.352   0.227   7.035 -1.1998  2.7572 -4.2395
   94SAPS   C39 9312   6.477   0.378   7.133  0.4056  0.2257  1.3058
   94SAPS   H9X 9313   6.407   0.462   7.109 -0.6975 -1.0690 -0.0761
   94SAPS   H9Y 9314   6.581   0.411   7.115  0.3465 -0.7994 -1.0508
   94SAPS  C310 9315   6.451   0.335   7.282  0.2838  0.6323  0.2255
   94SAPS  H10X 9316   6.497   0.238   7.310 -1.5128 -0.4049 -0.3315
   94SAPS  H10Y 9317   6.341   0.325   7.292  0.2747 -1.7400 -1.6880
   94SAPS  C311 9318   6.496   0.443   7.383 -0.0051 -0.0632 -0.1976
   94SAPS  H11X 9319   6.438   0.535   7.358 -0.8981 -0.4408  0.4125
   94SAPS  H11Y 9320   6.605   0.460   7.370 -0.5777  3.9567 -0.3274
   94SAPS  C312 9321   6.484   0.393   7.533 -0.1929 -0.4357  1.0450
   94SAPS  H12X 9322   6.560   0.313   7.546 -0.6932 -1.0785  0.0806
   94SAPS  H12Y 9323   6.384   0.347   7.547 -1.6204  2.4495  0.8943
   94SAPS  C313 9324   6.502   0.505   7.637  0.3551 -0.7462 -0.8805
   94SAPS  H13X 9325   6.428   0.584   7.611  0.1675 -0.9805 -1.0640
   94SAPS  H13Y 9326   6.599   0.557   7.627  0.3394 -0.2667  1.1873
   94SAPS  C314 9327   6.490   0.471   7.790  0.3434 -0.0032 -0.7628
   94SAPS  H14X 9328   6.582   0.427   7.834  0.0185 -0.8571 -0.9391
   94SAPS  H14Y 9329   6.408   0.399   7.810 -1.7545  1.7489 -2.8471
   94SAPS  C315 9330   6.466   0.599   7.876 -0.3266  0.5133 -0.1255
   94SAPS  H15X 9331   6.376   0.652   7.839 -1.1432  0.6570  2.0401
   94SAPS  H15Y 9332   6.562   0.655   7.864 -0.3707  0.4800 -0.6637
   94SAPS  C316 9333   6.443   0.565   8.023  0.0463  0.4724 -0.4728
   94SAPS  H16X 9334   6.497   0.640   8.085  1.1111  0.2731 -1.1482
   94SAPS  H16Y 9335   6.487   0.466   8.048 -0.1636  0.3272 -0.6747
   94SAPS  C317 9336   6.293   0.568   8.062 -0.4416  0.2107 -0.0516
   94SAPS  H17X 9337   6.280   0.490   8.141  0.5224  1.1380  1.0493
   94SAPS  H17Y 9338   6.233   0.518   7.983  0.8210  0.8132 -1.4031
   94SAPS  C318 9339   6.236   0.699   8.102  0.1448 -0.4299  0.2667
   94SAPS  H18X 9340   6.244   0.765   8.014  0.5096 -2.1930 -1.0562
   94SAPS  H18Y 9341   6.284   0.754   8.186 -1.5589  2.0847 -0.3592
   94SAPS  H18Z 9342   6.129   0.682   8.127 -0.2852  2.7482  0.8203
   95SAPS     N 9343   3.389   5.135   6.110 -0.6011  0.3145  0.6567
   95SAPS   HN1 9344   3.439   5.142   6.200  1.1221  0.9462 -0.3277
   95SAPS   HN2 9345   3.453   5.104   6.034 -1.7560  0.7411 -0.5116
   95SAPS   HN3 9346   3.352   5.229   6.083  2.4352  1.5974  0.7503
   95SAPS   C12 9347   3.291   5.023   6.116 -0.0936  0.1727 -0.3928
   95SAPS  H12A 9348   3.248   5.027   6.215 -2.0680  0.5172 -1.2395
   95SAPS   C13 9349   3.168   5.036   6.022 -0.6050 -0.4265 -0.9692
   95SAPS  O13A 9350   3.170   5.120   5.929 -0.4385 -0.3754 -0.0783
   95SAPS  O13B 9351   3.096   4.932   6.008 -0.0474 -0.0927 -0.0502
   95SAPS   C11 9352   3.372   4.890   6.092  0.3913  0.6970  0.6459
   95SAPS  H11A 9353   3.392   4.896   5.983  1.6761 -2.2856  0.6708
   95SAPS  H11B 9354   3.301   4.806   6.110 -0.1212  0.7314 -1.0575
   95SAPS     P 9355   3.511   4.810   6.296 -0.3985  0.5167 -0.2649
   95SAPS   O13 9356   3.610   4.695   6.277  0.5099 -0.2493 -0.0867
   95SAPS   O14 9357   3.563   4.906   6.395 -0.9156 -0.7323 -0.6713
   95SAPS   O12 9358   3.496   4.885   6.157 -0.6161 -0.5060  0.1109
   95SAPS   O11 9359   3.362   4.756   6.324  0.0814 -0.2175 -0.5212
   95SAPS    C1 9360   3.271   4.842   6.402 -0.1941  0.1699  0.1838
   95SAPS    HA 9361   3.320   4.938   6.430  3.8466 -1.7706  0.1446
   95SAPS    HB 9362   3.175   4.865   6.351 -1.4423 -0.0106  2.4084
   95SAPS    C2 9363   3.220   4.755   6.520  0.1030 -0.4549 -0.3756
   95SAPS    HS 9364   3.154   4.805   6.593  2.8493  1.2980  0.9699
   95SAPS   O21 9365   3.332   4.701   6.589  0.2136  0.0049  0.3947
   95SAPS   C21 9366   3.399   4.801   6.662 -0.5065 -0.2835  0.1250
   95SAPS   O22 9367   3.353   4.910   6.687  0.2254 -0.5597  0.2462
   95SAPS   C22 9368   3.520   4.745   6.735  0.9084  0.6170  0.3890
   95SAPS   H2R 9369   3.569   4.668   6.671 -0.7956 -0.2420  0.0809
   95SAPS   H2S 9370   3.603   4.818   6.729 -0.0642  1.5824 -2.1840
   95SAPS    C3 9371   3.139   4.630   6.466  0.3498  0.7673  0.5533
   95SAPS    HX 9372   3.203   4.559   6.410 -2.0659 -0.6036 -0.5171
   95SAPS    HY 9373   3.069   4.669   6.390  0.3460  0.3042  0.3169
   95SAPS   O31 9374   3.069   4.568   6.570 -0.3167  0.2056 -0.0432
   95SAPS   C31 9375   3.117   4.451   6.617 -0.4124 -0.2313 -0.5247
   95SAPS   O32 9376   3.209   4.387   6.575  0.5583  0.3357  0.2450
   95SAPS   C32 9377   3.030   4.418   6.742  0.2936  0.4303 -0.4568
   95SAPS   H2X 9378   3.041   4.308   6.747  0.9104  0.5791  2.2216
   95SAPS   H2Y 9379   2.924   4.441   6.719  0.7319  1.4830 -1.4952
   95SAPS   C23 9380   3.490   4.714   6.882 -1.0890  0.6630 -0.1632
   95SAPS   H3R 9381   3.433   4.619   6.890  1.6360 -0.8120  2.8815
   95SAPS   H3S 9382   3.438   4.801   6.928  0.6546  1.9111 -0.5034
   95SAPS   C24 9383   3.626   4.705   6.963  0.3717 -0.1137  0.4721
   95SAPS   H4R 9384   3.673   4.805   6.963  0.3632 -0.1011  1.4912
   95SAPS   H4S 9385   3.684   4.636   6.898  1.9981 -0.5670  2.3495
   95SAPS   C25 9386   3.619   4.641   7.093  0.2271  0.1898 -0.0354
   95SAPS   H5R 9387   3.629   4.532   7.101  1.6950  0.3587  0.5599
   95SAPS   C26 9388   3.595   4.707   7.208 -0.1873  0.2070  0.2743
   95SAPS   H6R 9389   3.591   4.646   7.300 -1.0817 -0.1169  0.0291
   95SAPS   C27 9390   3.553   4.849   7.219 -0.8334  0.0513 -0.4915
   95SAPS   H7R 9391   3.443   4.863   7.220 -0.6250  2.1841 -2.5595
   95SAPS   H7S 9392   3.574   4.918   7.135 -0.0573  0.2236 -0.1605
   95SAPS   C28 9393   3.630   4.909   7.336  0.4803  0.1513 -0.1703
   95SAPS   H8R 9394   3.716   4.976   7.321  0.6742 -0.5076 -2.2481
   95SAPS   C29 9395   3.616   4.884   7.467 -0.0538 -0.5768 -0.1073
   95SAPS   H9R 9396   3.663   4.957   7.534  3.1404  0.0840 -2.8940
   95SAPS  C210 9397   3.511   4.791   7.536 -0.4097  0.8453  0.7315
   95SAPS  H10R 9398   3.424   4.762   7.474  0.2716 -2.1501  1.1073
   95SAPS  H10S 9399   3.462   4.851   7.616  0.6753 -2.6921  4.1788
   95SAPS  C211 9400   3.560   4.674   7.609  0.6772 -0.4472  0.6434
   95SAPS  H11R 9401   3.591   4.590   7.545  0.7368 -0.8068  1.1427
   95SAPS  C212 9402   3.573   4.667   7.744  0.0125 -0.3060  0.1681
   95SAPS  H12R 9403   3.615   4.573   7.782 -0.9597 -1.8302 -2.4391
   95SAPS  C213 9404   3.543   4.771   7.852  0.2966 -0.0106 -0.0665
   95SAPS  H13R 9405   3.500   4.720   7.941  0.2155 -0.1807 -0.2041
   95SAPS  H13S 9406   3.461   4.830   7.805  0.2118 -1.9172 -2.4069
   95SAPS  C214 9407   3.664   4.863   7.888  0.4821 -0.0364 -0.6255
   95SAPS  H14R 9408   3.720   4.911   7.807  1.0391 -0.9638 -0.7979
   95SAPS  C215 9409   3.707   4.889   8.010 -0.1489  0.0261 -0.3761
   95SAPS  H15R 9410   3.800   4.947   8.018 -0.1064 -0.0883 -0.0267
   95SAPS  C216 9411   3.655   4.840   8.135  0.0021 -0.3092 -0.9008
   95SAPS  H16R 9412   3.599   4.745   8.120  0.5899 -0.8134  0.0621
   95SAPS  H16S 9413   3.585   4.916   8.176 -2.3424 -1.8960 -1.8071
   95SAPS  C217 9414   3.759   4.804   8.237  0.1405 -0.2195  0.1485
   95SAPS  H17R 9415   3.697   4.771   8.323 -1.0996  0.3463 -0.5133
   95SAPS  H17S 9416   3.815   4.892   8.275  2.3919 -1.8192  0.6370
   95SAPS  C218 9417   3.864   4.698   8.211 -0.8164  0.0931  0.2478
   95SAPS  H18R 9418   3.929   4.753   8.140 -0.0845 -3.6112 -2.0854
   95SAPS  H18S 9419   3.812   4.624   8.147  0.9947 -1.6990  0.8009
   95SAPS  C219 9420   3.942   4.652   8.341 -0.4667 -0.2866 -0.3856
   95SAPS  H19R 9421   3.999   4.564   8.304  0.1394  0.3914 -1.0839
   95SAPS  H19S 9422   3.864   4.622   8.415  0.7050 -3.4037 -0.3202
   95SAPS  C220 9423   4.032   4.765   8.398 -0.4130 -0.5962  0.0241
   95SAPS  H20R 9424   4.098   4.715   8.472 -0.4771 -0.0662  0.4449
   95SAPS  H20S 9425   3.972   4.847   8.444  0.9293  0.3758  0.0632
   95SAPS  H20T 9426   4.101   4.799   8.319  1.4897 -0.6734  1.6194
   95SAPS   C33 9427   3.083   4.485   6.877  0.6540  0.4013  0.6217
   95SAPS   H3X 9428   3.014   4.461   6.961 -0.3768  2.4355  0.3791
   95SAPS   H3Y 9429   3.098   4.595   6.873 -0.0434  0.4311 -2.0777
   95SAPS   C34 9430   3.217   4.436   6.927 -0.5137  0.0402 -0.2713
   95SAPS   H4X 9431   3.290   4.447   6.844  0.0831  3.4763  0.5977
   95SAPS   H4Y 9432   3.202   4.332   6.961  0.7099 -0.0821 -0.0758
   95SAPS   C35 9433   3.270   4.502   7.057  0.1669  0.3104  0.2553
   95SAPS   H5X 9434   3.282   4.612   7.046  0.7642  0.2265  0.0473
   95SAPS   H5Y 9435   3.378   4.478   7.065 -0.2415 -1.1590  1.5583
   95SAPS   C36 9436   3.191   4.464   7.188 -0.4405  0.2338 -0.8381
   95SAPS   H6X 9437   3.210   4.354   7.193  0.2060  0.3078 -1.4955
   95SAPS   H6Y 9438   3.082   4.483   7.184 -0.6561 -0.6910  0.2983
   95SAPS   C37 9439   3.253   4.534   7.306 -0.3734 -0.4177 -0.2649
   95SAPS   H7X 9440   3.244   4.643   7.287 -0.9525 -0.4021  0.0771
   95SAPS   H7Y 9441   3.359   4.510   7.329  0.1938  1.2802 -0.9725
   95SAPS   C38 9442   3.176   4.512   7.436 -0.4099  1.0833 -0.2483
   95SAPS   H8X 9443   3.070   4.490   7.415 -0.0778  0.2401 -1.0633
   95SAPS   H8Y 9444   3.169   4.609   7.491 -1.8747 -0.8725  3.1835
   95SAPS   C39 9445   3.242   4.402   7.522  0.3127  0.2997  0.2548
   95SAPS   H9X 9446   3.347   4.433   7.539  0.3009  0.8078 -0.5347
   95SAPS   H9Y 9447   3.230   4.310   7.461  1.8718  2.6034 -3.7897
   95SAPS  C310 9448   3.184   4.387   7.670  0.5634 -0.1090  0.1208
   95SAPS  H10X 9449   3.235   4.303   7.722  3.1911  1.3582  0.0076
   95SAPS  H10Y 9450   3.079   4.354   7.658  0.1779  1.2810 -0.4523
   95SAPS  C311 9451   3.178   4.511   7.752  0.0059 -0.2336  0.0311
   95SAPS  H11X 9452   3.121   4.596   7.709  3.1352  2.4314  0.9553
   95SAPS  H11Y 9453   3.287   4.532   7.761  0.0353 -1.3646  3.0156
   95SAPS  C312 9454   3.124   4.465   7.887  0.0528 -0.0507  0.0536
   95SAPS  H12X 9455   3.185   4.379   7.922  3.0931  1.0742 -2.2249
   95SAPS  H12Y 9456   3.016   4.441   7.889  0.6328 -2.9906 -0.7895
   95SAPS  C313 9457   3.129   4.586   7.992  0.2903  0.0555  0.2453
   95SAPS  H13X 9458   3.054   4.667   7.978  2.3333  2.6771  3.5270
   95SAPS  H13Y 9459   3.231   4.630   7.985 -0.5133  2.0572  0.8051
   95SAPS  C314 9460   3.116   4.536   8.131 -0.9093 -0.3102  0.1493
   95SAPS  H14X 9461   3.171   4.604   8.199 -2.5449 -0.9742  2.1785
   95SAPS  H14Y 9462   3.162   4.436   8.145 -0.1642 -0.0694 -0.4970
   95SAPS  C315 9463   2.976   4.514   8.187  0.3619  0.2957  0.5339
   95SAPS  H15X 9464   2.931   4.436   8.121  1.1320  1.6434 -1.6597
   95SAPS  H15Y 9465   2.911   4.604   8.185 -0.1027 -0.0489 -0.1907
   95SAPS  C316 9466   2.991   4.462   8.331 -0.2714  0.4323 -0.1785
   95SAPS  H16X 9467   3.023   4.553   8.386  1.6953  0.4183 -1.2570
   95SAPS  H16Y 9468   3.081   4.396   8.330 -1.6590 -1.5119 -0.5868
   95SAPS  C317 9469   2.870   4.391   8.383  0.2548 -0.3599 -0.4362
   95SAPS  H17X 9470   2.898   4.352   8.483 -0.1843 -0.5366 -0.3815
   95SAPS  H17Y 9471   2.844   4.305   8.318  0.4061 -0.3201 -0.5479
   95SAPS  C318 9472   2.738   4.472   8.387  0.3796  0.0374  0.3100
   95SAPS  H18X 9473   2.655   4.411   8.429 -0.1009 -0.1540 -0.9007
   95SAPS  H18Y 9474   2.714   4.498   8.282  1.1915  1.0523  0.3714
   95SAPS  H18Z 9475   2.749   4.567   8.443 -1.0178 -0.5122  1.5640
   96SAPS     N 9476   4.356   6.312   6.388  0.2451 -0.4704 -0.1027
   96SAPS   HN1 9477   4.336   6.223   6.338  1.5921 -0.4643 -0.6653
   96SAPS   HN2 9478   4.440   6.363   6.357 -1.6619  1.6683 -1.9517
   96SAPS   HN3 9479   4.369   6.289   6.489 -1.1473 -0.0046  0.1939
   96SAPS   C12 9480   4.230   6.393   6.367 -0.0073 -1.2975 -0.5516
   96SAPS  H12A 9481   4.170   6.396   6.457 -1.8644  1.4908 -1.8101
   96SAPS   C13 9482   4.260   6.537   6.324  0.2208  0.0411 -0.1371
   96SAPS  O13A 9483   4.376   6.568   6.288 -0.0653  0.1926 -0.1104
   96SAPS  O13B 9484   4.156   6.612   6.308  0.5522 -0.2151 -0.0704
   96SAPS   C11 9485   4.140   6.325   6.258  0.4196  0.6298 -0.2834
   96SAPS  H11A 9486   4.201   6.300   6.169  1.3329 -2.2538  1.0769
   96SAPS  H11B 9487   4.058   6.396   6.232 -2.0124 -0.8292  2.9614
   96SAPS     P 9488   3.951   6.180   6.369  0.1883  0.1962 -0.2354
   96SAPS   O13 9489   3.855   6.276   6.311 -0.5145 -0.4735  0.3059
   96SAPS   O14 9490   3.932   6.034   6.358  0.3442  0.4767 -0.4040
   96SAPS   O12 9491   4.093   6.202   6.313 -0.2517  0.3471 -0.8523
   96SAPS   O11 9492   3.968   6.223   6.522 -0.8674  0.2860 -0.4103
   96SAPS    C1 9493   4.059   6.157   6.612 -0.1178  0.3831  0.5367
   96SAPS    HA 9494   4.060   6.051   6.580 -2.1053  0.6374 -0.4356
   96SAPS    HB 9495   4.161   6.201   6.600  0.1473 -0.4263 -0.2275
   96SAPS    C2 9496   4.012   6.174   6.754  0.3857 -0.3528 -0.3119
   96SAPS    HS 9497   4.066   6.092   6.807 -0.1123 -0.0700  0.6360
   96SAPS   O21 9498   3.870   6.161   6.767 -0.3711  0.4070  0.3339
   96SAPS   C21 9499   3.821   6.031   6.755  0.6906  0.2236  0.5378
   96SAPS   O22 9500   3.891   5.933   6.716  0.0817  0.3505  0.4200
   96SAPS   C22 9501   3.668   6.018   6.786 -0.0106  0.4572  0.5433
   96SAPS   H2R 9502   3.604   6.016   6.695  1.0755  0.2941 -0.2261
   96SAPS   H2S 9503   3.653   5.920   6.837 -0.3544  0.4012  0.3403
   96SAPS    C3 9504   4.069   6.305   6.823  0.2076  1.0576  0.4472
   96SAPS    HX 9505   4.026   6.389   6.765 -1.8469  0.2891  0.8409
   96SAPS    HY 9506   4.180   6.311   6.811  0.0885  1.0640 -0.7192
   96SAPS   O31 9507   4.021   6.323   6.960 -0.4046 -0.1099  0.4893
   96SAPS   C31 9508   4.086   6.254   7.053  0.0865  0.3211  0.5933
   96SAPS   O32 9509   4.152   6.153   7.031  0.2376 -0.1368  0.1974
   96SAPS   C32 9510   4.049   6.319   7.191  0.0259  1.1614 -0.2623
   96SAPS   H2X 9511   3.938   6.326   7.198 -0.2870 -1.0794 -2.1588
   96SAPS   H2Y 9512   4.078   6.425   7.180 -1.5107  1.4381 -1.8049
   96SAPS   C23 9513   3.601   6.128   6.877 -0.7353 -0.6031  0.2274
   96SAPS   H3R 9514   3.491   6.121   6.865 -0.6184 -1.5565 -0.2835
   96SAPS   H3S 9515   3.631   6.230   6.844 -0.4950 -0.2066  1.6139
   96SAPS   C24 9516   3.639   6.102   7.027  0.5304 -0.5045  0.4739
   96SAPS   H4R 9517   3.749   6.109   7.043  0.3619  0.4339  1.2354
   96SAPS   H4S 9518   3.617   6.000   7.066 -0.6318 -0.7809 -0.8458
   96SAPS   C25 9519   3.578   6.193   7.128  0.0169 -0.2150  0.4304
   96SAPS   H5R 9520   3.542   6.287   7.083 -1.0786 -0.7876  0.0792
   96SAPS   C26 9521   3.557   6.182   7.263  0.4573  0.4430 -0.1624
   96SAPS   H6R 9522   3.526   6.275   7.313 -0.3954 -0.4536  1.0368
   96SAPS   C27 9523   3.595   6.047   7.337  0.4723  0.2576 -0.9736
   96SAPS   H7R 9524   3.704   6.027   7.350 -0.0430 -1.1653  1.3095
   96SAPS   H7S 9525   3.552   5.957   7.288 -1.2457  1.1661 -1.1847
   96SAPS   C28 9526   3.534   6.041   7.475  0.2372  0.5696 -0.5415
   96SAPS   H8R 9527   3.440   5.984   7.480  0.2480  0.5794 -0.1443
   96SAPS   C29 9528   3.591   6.089   7.587  0.3378  0.6693 -0.8150
   96SAPS   H9R 9529   3.538   6.064   7.680  1.5098  2.2284  0.2948
   96SAPS  C210 9530   3.729   6.150   7.600  0.2848  0.9289  0.1959
   96SAPS  H10R 9531   3.778   6.135   7.502 -0.6274  0.0171 -0.1320
   96SAPS  H10S 9532   3.788   6.093   7.675 -2.0966 -2.4169 -0.3628
   96SAPS  C211 9533   3.709   6.297   7.623 -0.1707  0.2096  0.4573
   96SAPS  H11R 9534   3.735   6.362   7.538  0.3609 -1.0131 -0.3269
   96SAPS  C212 9535   3.692   6.358   7.741  0.1137  0.1434 -0.0485
   96SAPS  H12R 9536   3.690   6.467   7.746  4.5467  0.2589  1.4357
   96SAPS  C213 9537   3.676   6.291   7.875 -0.0547 -0.0649  0.2326
   96SAPS  H13R 9538   3.705   6.185   7.867 -0.1700 -0.1165  0.4934
   96SAPS  H13S 9539   3.569   6.299   7.905  0.2388 -1.5998  1.7009
   96SAPS  C214 9540   3.764   6.336   7.989 -0.1809 -0.2039 -0.0500
   96SAPS  H14R 9541   3.838   6.413   7.960 -1.1720  1.2342  1.1856
   96SAPS  C215 9542   3.764   6.299   8.123 -1.1132  0.4205 -0.2652
   96SAPS  H15R 9543   3.854   6.328   8.180  0.8020 -2.1066 -1.9422
   96SAPS  C216 9544   3.668   6.208   8.203  0.5315  0.3755 -0.1071
   96SAPS  H16R 9545   3.724   6.146   8.277 -1.0528  0.7563  1.4532
   96SAPS  H16S 9546   3.611   6.140   8.137 -0.1018 -0.4059  1.2105
   96SAPS  C217 9547   3.562   6.283   8.287  0.2143  0.0990 -0.4878
   96SAPS  H17R 9548   3.493   6.228   8.355  3.2975 -0.4252  2.3634
   96SAPS  H17S 9549   3.505   6.335   8.207  0.5266  1.3609  0.0947
   96SAPS  C218 9550   3.608   6.396   8.380 -0.1942 -0.2702 -0.3211
   96SAPS  H18R 9551   3.674   6.468   8.326 -1.0706  0.4986 -0.3720
   96SAPS  H18S 9552   3.660   6.348   8.465 -0.5801 -0.1186  0.0005
   96SAPS  C219 9553   3.486   6.484   8.429 -0.2031 -0.5697 -0.3447
   96SAPS  H19R 9554   3.407   6.429   8.485 -0.6623  1.4156  0.9755
   96SAPS  H19S 9555   3.431   6.528   8.343  2.7792  0.5054 -1.7832
   96SAPS  C220 9556   3.538   6.595   8.508 -0.1176 -0.1427 -0.3799
   96SAPS  H20R 9557   3.571   6.562   8.608  0.7302 -0.8832 -0.9004
   96SAPS  H20S 9558   3.455   6.666   8.529 -0.6927 -1.5093  2.1101
   96SAPS  H20T 9559   3.625   6.640   8.456  0.0126 -0.2352 -0.2402
   96SAPS   C33 9560   4.104   6.251   7.314  0.2749 -0.3830  0.2744
   96SAPS   H3X 9561   4.213   6.241   7.299  0.0258 -2.4273 -0.4072
   96SAPS   H3Y 9562   4.059   6.149   7.322  1.3002 -0.9187 -0.6293
   96SAPS   C34 9563   4.073   6.342   7.433 -0.1033 -0.4442  0.8202
   96SAPS   H4X 9564   3.963   6.357   7.442 -0.1978  1.4140 -2.6552
   96SAPS   H4Y 9565   4.119   6.441   7.412  0.4335 -0.7938  0.3419
   96SAPS   C35 9566   4.127   6.291   7.571  0.3037 -0.5388  0.5160
   96SAPS   H5X 9567   4.238   6.287   7.562  0.2298 -0.8418 -0.3174
   96SAPS   H5Y 9568   4.096   6.185   7.585  0.3382 -0.6397 -0.1660
   96SAPS   C36 9569   4.085   6.391   7.679 -0.1097 -0.4383 -0.7032
   96SAPS   H6X 9570   3.975   6.409   7.685 -0.2196 -1.1544 -0.5151
   96SAPS   H6Y 9571   4.120   6.494   7.660 -0.6594 -0.1229 -0.0333
   96SAPS   C37 9572   4.126   6.351   7.823 -0.7434  0.3645  0.0354
   96SAPS   H7X 9573   4.064   6.410   7.894 -1.2062  1.8970 -1.6038
   96SAPS   H7Y 9574   4.233   6.379   7.831 -1.3877  3.3437 -1.1551
   96SAPS   C38 9575   4.111   6.201   7.862  0.1056  0.5089 -0.2899
   96SAPS   H8X 9576   4.199   6.156   7.812  0.6135  0.6533  0.4721
   96SAPS   H8Y 9577   4.020   6.160   7.811 -1.5096  1.6028  1.6778
   96SAPS   C39 9578   4.123   6.174   8.017 -0.1285 -0.4738  0.2063
   96SAPS   H9X 9579   4.135   6.064   8.029  0.1169 -0.4753 -0.0562
   96SAPS   H9Y 9580   4.023   6.200   8.057 -0.8593  0.5544 -2.1655
   96SAPS  C310 9581   4.247   6.231   8.089 -0.2979  0.2381  0.6078
   96SAPS  H10X 9582   4.239   6.341   8.103  1.4044  0.3012  1.2868
   96SAPS  H10Y 9583   4.333   6.219   8.020 -0.1771 -1.6995  1.0482
   96SAPS  C311 9584   4.279   6.158   8.224  0.0773  0.2525 -0.2628
   96SAPS  H11X 9585   4.383   6.172   8.259 -0.8531  1.9000  2.0012
   96SAPS  H11Y 9586   4.255   6.051   8.203 -2.6913  0.0376  3.4304
   96SAPS  C312 9587   4.188   6.202   8.334 -0.8177  0.1010 -0.4662
   96SAPS  H12X 9588   4.082   6.219   8.304 -1.7071 -2.0893  1.3461
   96SAPS  H12Y 9589   4.220   6.308   8.347 -1.0984  0.3527 -1.8251
   96SAPS  C313 9590   4.203   6.121   8.466 -0.3384  0.0731  0.2395
   96SAPS  H13X 9591   4.308   6.130   8.500 -0.0853 -2.5540  0.3069
   96SAPS  H13Y 9592   4.196   6.011   8.449  2.3636 -0.1644  0.4343
   96SAPS  C314 9593   4.110   6.170   8.575  0.5306 -0.8068 -0.7218
   96SAPS  H14X 9594   4.116   6.085   8.645  0.9322 -1.2698 -1.3083
   96SAPS  H14Y 9595   4.004   6.182   8.544  0.6148  2.9138  0.2400
   96SAPS  C315 9596   4.165   6.287   8.656  0.2091  0.0592  0.0523
   96SAPS  H15X 9597   4.077   6.354   8.662 -1.8604 -2.5092 -0.5398
   96SAPS  H15Y 9598   4.241   6.345   8.600 -2.1570  3.3409  0.1407
   96SAPS  C316 9599   4.200   6.236   8.805  0.2728  0.0003  1.2582
   96SAPS  H16X 9600   4.123   6.171   8.852  1.2602 -0.7203  1.9131
   96SAPS  H16Y 9601   4.204   6.332   8.860 -0.4741  1.0307 -0.4558
   96SAPS  C317 9602   4.341   6.189   8.825  0.3717 -1.0904 -0.6526
   96SAPS  H17X 9603   4.403   6.275   8.790 -0.9776 -0.0099 -0.4271
   96SAPS  H17Y 9604   4.371   6.113   8.749  2.4206 -2.6786  1.6612
   96SAPS  C318 9605   4.365   6.126   8.958 -0.4090 -0.5942 -0.5752
   96SAPS  H18X 9606   4.465   6.077   8.962 -0.3200 -0.2808  1.9332
   96SAPS  H18Y 9607   4.302   6.036   8.972  1.2535 -1.5652  0.9603
   96SAPS  H18Z 9608   4.351   6.194   9.045  0.3802 -0.5267 -0.4914
   97SAPS     N 9609   4.722   4.158   6.754 -0.0902  0.3680 -0.4033
   97SAPS   HN1 9610   4.652   4.084   6.775  0.0915  0.3143  0.0361
   97SAPS   HN2 9611   4.801   4.128   6.815 -0.5340 -0.5980 -0.2939
   97SAPS   HN3 9612   4.688   4.247   6.796  1.5981  0.5368  0.6633
   97SAPS   C12 9613   4.774   4.168   6.612 -0.5170  0.3012 -0.4474
   97SAPS  H12A 9614   4.710   4.234   6.555 -1.0656  0.6434  0.5522
   97SAPS   C13 9615   4.917   4.222   6.598  0.7034  0.4380 -0.1911
   97SAPS  O13A 9616   4.982   4.272   6.696  0.1568  0.3866 -0.3325
   97SAPS  O13B 9617   4.952   4.254   6.480  0.5083  0.1280  0.0559
   97SAPS   C11 9618   4.756   4.031   6.544 -0.0288  0.7312  0.8100
   97SAPS  H11A 9619   4.819   3.959   6.601 -0.4305 -1.0154 -0.8897
   97SAPS  H11B 9620   4.784   4.038   6.437 -0.4393  0.5984  0.6912
   97SAPS     P 9621   4.536   3.977   6.440  0.0354  0.4012 -0.1789
   97SAPS   O13 9622   4.510   4.110   6.377  0.5323 -0.1184 -0.1581
   97SAPS   O14 9623   4.586   3.868   6.356  0.3018 -0.3594 -0.0413
   97SAPS   O12 9624   4.620   3.993   6.569 -0.2082 -0.4185  0.4289
   97SAPS   O11 9625   4.402   3.927   6.510 -1.0359  0.4738 -0.6834
   97SAPS    C1 9626   4.298   4.001   6.560  0.0459 -0.0370 -0.0287
   97SAPS    HA 9627   4.273   4.091   6.499 -0.3830  0.1313  0.3917
   97SAPS    HB 9628   4.208   3.937   6.571  0.1111 -0.0085  0.7259
   97SAPS    C2 9629   4.345   4.047   6.706 -0.0342  0.4733 -0.2861
   97SAPS    HS 9630   4.450   4.086   6.701  1.0828 -2.1411  1.6894
   97SAPS   O21 9631   4.336   3.933   6.803  0.0584 -0.0182  0.4557
   97SAPS   C21 9632   4.422   3.935   6.905  0.3795  0.0524  0.2331
   97SAPS   O22 9633   4.511   4.022   6.918  0.3521 -0.3081 -0.5316
   97SAPS   C22 9634   4.394   3.821   7.011  0.3197  1.1945  0.1158
   97SAPS   H2R 9635   4.293   3.846   7.050  0.5437 -0.3608  1.7295
   97SAPS   H2S 9636   4.407   3.730   6.948 -0.5820  0.5454  0.8577
   97SAPS    C3 9637   4.251   4.170   6.752  0.2223  0.8414  0.2504
   97SAPS    HX 9638   4.143   4.143   6.753 -0.2167  2.3530 -2.3947
   97SAPS    HY 9639   4.263   4.241   6.667 -1.0642  0.5216 -0.2192
   97SAPS   O31 9640   4.293   4.225   6.880 -0.1318 -0.0538 -0.0504
   97SAPS   C31 9641   4.416   4.280   6.892  0.5271 -0.8198  0.1488
   97SAPS   O32 9642   4.493   4.305   6.798 -0.7340  0.1494  0.4999
   97SAPS   C32 9643   4.436   4.327   7.035 -1.0157 -0.2030  0.2827
   97SAPS   H2X 9644   4.525   4.273   7.072 -1.3558 -1.6126 -0.8940
   97SAPS   H2Y 9645   4.344   4.296   7.088 -0.1921 -1.2325  1.1094
   97SAPS   C23 9646   4.482   3.801   7.130 -0.2551 -0.2386  0.9354
   97SAPS   H3R 9647   4.501   3.902   7.171 -1.0186 -0.3553  1.5782
   97SAPS   H3S 9648   4.582   3.760   7.102 -0.4742 -1.8019  2.3987
   97SAPS   C24 9649   4.416   3.707   7.233  0.2746 -0.7505 -0.7391
   97SAPS   H4R 9650   4.377   3.622   7.173 -1.3032  0.0396 -0.8702
   97SAPS   H4S 9651   4.329   3.767   7.268  0.6895 -1.0234  0.8313
   97SAPS   C25 9652   4.519   3.665   7.341  0.6600  0.1775 -0.0264
   97SAPS   H5R 9653   4.585   3.580   7.320 -0.0081 -1.0098  2.4814
   97SAPS   C26 9654   4.508   3.712   7.468  0.2092 -0.0542  0.6787
   97SAPS   H6R 9655   4.580   3.673   7.540 -0.6428 -0.8547  1.0998
   97SAPS   C27 9656   4.413   3.806   7.532  0.9300 -0.4367  0.2165
   97SAPS   H7R 9657   4.358   3.861   7.453 -1.1406  2.3159  3.4200
   97SAPS   H7S 9658   4.457   3.891   7.589 -0.5596 -0.5661  1.5825
   97SAPS   C28 9659   4.323   3.720   7.625 -0.0090  0.6614 -0.1965
   97SAPS   H8R 9660   4.274   3.637   7.571  1.3911  0.6053 -1.4199
   97SAPS   C29 9661   4.322   3.734   7.754  0.4226  0.2484 -0.5288
   97SAPS   H9R 9662   4.249   3.677   7.814 -0.0706 -0.5089 -1.8311
   97SAPS  C210 9663   4.395   3.826   7.845 -0.0682 -0.5125 -0.0137
   97SAPS  H10R 9664   4.470   3.895   7.801  0.1967  0.3990  1.8199
   97SAPS  H10S 9665   4.460   3.763   7.911 -1.1007 -0.5195  1.0073
   97SAPS  C211 9666   4.310   3.902   7.939 -0.4038  0.3622  0.4889
   97SAPS  H11R 9667   4.308   4.011   7.924  0.5863  0.1345 -1.4304
   97SAPS  C212 9668   4.230   3.849   8.039 -0.0166  0.2931 -0.0603
   97SAPS  H12R 9669   4.170   3.917   8.101 -1.0499 -1.1702  0.5680
   97SAPS  C213 9670   4.210   3.705   8.080 -0.1801  0.4153  0.5785
   97SAPS  H13R 9671   4.294   3.641   8.046 -0.7820  1.5490 -3.4105
   97SAPS  H13S 9672   4.119   3.671   8.026 -0.0630 -0.1294  0.7283
   97SAPS  C214 9673   4.188   3.689   8.229  0.5363 -0.5304  0.3537
   97SAPS  H14R 9674   4.268   3.747   8.279  0.1388  1.2584 -1.0351
   97SAPS  C215 9675   4.084   3.624   8.282 -0.0408 -0.4075  0.5832
   97SAPS  H15R 9676   4.075   3.635   8.392 -1.4334 -2.8412  0.7383
   97SAPS  C216 9677   3.967   3.545   8.222  0.1845 -0.9506  0.6985
   97SAPS  H16R 9678   3.940   3.451   8.275  0.5141 -1.8527 -0.6949
   97SAPS  H16S 9679   4.000   3.518   8.119  0.5663  0.6777  0.3903
   97SAPS  C217 9680   3.846   3.636   8.216  0.2819 -0.3147 -0.3275
   97SAPS  H17R 9681   3.869   3.721   8.149 -2.0182  0.6255 -0.0017
   97SAPS  H17S 9682   3.822   3.686   8.313  2.1724  1.2912 -0.6561
   97SAPS  C218 9683   3.719   3.572   8.150  0.8937  0.4462  0.1209
   97SAPS  H18R 9684   3.675   3.496   8.217  0.0293  0.1187 -0.8127
   97SAPS  H18S 9685   3.743   3.511   8.060  2.0622 -0.9897  1.3925
   97SAPS  C219 9686   3.617   3.675   8.111 -0.0862 -0.2063  0.5077
   97SAPS  H19R 9687   3.666   3.748   8.042  1.2078  0.0956  1.6973
   97SAPS  H19S 9688   3.601   3.732   8.206 -0.0324 -0.1376  0.4773
   97SAPS  C220 9689   3.490   3.618   8.050 -0.0518  0.2805  0.3540
   97SAPS  H20R 9690   3.518   3.553   7.963 -1.1170 -0.7727  0.7941
   97SAPS  H20S 9691   3.427   3.705   8.023  0.7495  0.3565 -1.3442
   97SAPS  H20T 9692   3.440   3.545   8.117  0.3080 -1.5528 -1.2982
   97SAPS   C33 9693   4.466   4.477   7.060 -0.2624  0.5159  0.0018
   97SAPS   H3X 9694   4.366   4.526   7.064  0.0702  1.1067  1.4438
   97SAPS   H3Y 9695   4.528   4.512   6.975 -0.4170  1.7895  0.4114
   97SAPS   C34 9696   4.532   4.490   7.200 -0.2758  0.5746 -0.2635
   97SAPS   H4X 9697   4.617   4.419   7.205 -1.5000 -0.7635  2.7945
   97SAPS   H4Y 9698   4.464   4.452   7.279 -0.2739 -1.9599 -1.4377
   97SAPS   C35 9699   4.579   4.638   7.231 -0.2740  0.8455 -0.2773
   97SAPS   H5X 9700   4.492   4.695   7.192  0.1499  2.1398  0.6623
   97SAPS   H5Y 9701   4.674   4.660   7.178  0.0106  1.1233  0.3447
   97SAPS   C36 9702   4.600   4.679   7.380  0.1055 -0.2302  0.3762
   97SAPS   H6X 9703   4.604   4.789   7.392  0.7926 -0.0314 -1.5760
   97SAPS   H6Y 9704   4.695   4.635   7.418  1.6601  2.1359 -0.6668
   97SAPS   C37 9705   4.492   4.637   7.480  0.3406  0.6543  0.3744
   97SAPS   H7X 9706   4.479   4.526   7.477  1.0445  0.6067 -1.3422
   97SAPS   H7Y 9707   4.399   4.684   7.442  0.1437 -0.2349 -0.2620
   97SAPS   C38 9708   4.522   4.689   7.623 -0.3885  0.2231  0.1116
   97SAPS   H8X 9709   4.525   4.799   7.615 -2.4289  0.3175  0.3329
   97SAPS   H8Y 9710   4.628   4.660   7.638 -0.4938 -0.1629  0.1283
   97SAPS   C39 9711   4.442   4.628   7.739  0.8540 -0.1575  0.5797
   97SAPS   H9X 9712   4.456   4.518   7.742 -0.5895 -0.4670 -1.9608
   97SAPS   H9Y 9713   4.335   4.652   7.719  1.2390  0.0463 -1.3867
   97SAPS  C310 9714   4.469   4.693   7.875  0.3162 -0.1547 -0.0437
   97SAPS  H10X 9715   4.452   4.803   7.875 -0.4220 -0.2223  3.5713
   97SAPS  H10Y 9716   4.576   4.671   7.896  0.8546  2.1680 -0.2154
   97SAPS  C311 9717   4.368   4.643   7.979  0.0224 -0.0577  0.0118
   97SAPS  H11X 9718   4.262   4.660   7.953  0.1659 -1.3086 -1.4066
   97SAPS  H11Y 9719   4.400   4.699   8.070 -1.3447  1.2027 -0.2708
   97SAPS  C312 9720   4.387   4.495   8.017 -0.1349 -0.8815  0.9071
   97SAPS  H12X 9721   4.491   4.476   8.053  0.5028 -0.7496 -0.8005
   97SAPS  H12Y 9722   4.370   4.432   7.927  0.9495 -0.7529  0.5970
   97SAPS  C313 9723   4.292   4.442   8.127  0.2194 -0.4732  0.7095
   97SAPS  H13X 9724   4.317   4.334   8.132  1.7110 -0.1669  0.0154
   97SAPS  H13Y 9725   4.186   4.448   8.094  0.3140 -1.2044  0.2634
   97SAPS  C314 9726   4.315   4.498   8.270  0.0536  0.1250  0.2601
   97SAPS  H14X 9727   4.251   4.440   8.339 -0.6546  2.3649  1.5450
   97SAPS  H14Y 9728   4.283   4.604   8.281  3.0117  1.0762  0.1468
   97SAPS  C315 9729   4.468   4.474   8.328  0.4221  0.5631 -0.0692
   97SAPS  H15X 9730   4.533   4.561   8.308  2.4895 -0.6222  1.3600
   97SAPS  H15Y 9731   4.520   4.399   8.264  0.7947 -0.3707  1.3108
   97SAPS  C316 9732   4.465   4.435   8.468  0.8872 -0.2354 -0.3527
   97SAPS  H16X 9733   4.569   4.415   8.503  0.9884  0.5065 -0.2235
   97SAPS  H16Y 9734   4.415   4.339   8.494  0.4419  0.0401 -0.1931
   97SAPS  C317 9735   4.411   4.546   8.567  0.8527  0.5583  0.6504
   97SAPS  H17X 9736   4.304   4.574   8.559  0.7666  0.4688  1.5044
   97SAPS  H17Y 9737   4.472   4.637   8.551 -2.0902  2.3732 -0.6904
   97SAPS  C318 9738   4.425   4.497   8.716 -0.4943  0.6008  0.6203
   97SAPS  H18X 9739   4.389   4.393   8.726 -1.7567  0.7084 -2.5277
   97SAPS  H18Y 9740   4.365   4.560   8.785 -3.0440  0.0835 -1.0889
   97SAPS  H18Z 9741   4.527   4.513   8.758  0.4035 -1.6459 -0.6622
   98SAPS     N 9742   2.717   5.221   5.754 -0.2402  0.3894  0.1771
   98SAPS   HN1 9743   2.778   5.145   5.789 -1.8560 -0.8012  0.4644
   98SAPS   HN2 9744   2.655   5.176   5.684 -0.2906 -1.2495  1.2492
   98SAPS   HN3 9745   2.785   5.290   5.715 -1.1972  0.7782 -0.8241
   98SAPS   C12 9746   2.644   5.277   5.863  0.1973 -0.6206  0.2597
   98SAPS  H12A 9747   2.718   5.337   5.913  1.3667  0.4074 -2.5859
   98SAPS   C13 9748   2.536   5.373   5.817 -0.4075  0.3015 -0.1609
   98SAPS  O13A 9749   2.505   5.397   5.695  0.3362 -0.4046  0.0577
   98SAPS  O13B 9750   2.453   5.410   5.903  0.3102  0.1282 -0.0783
   98SAPS   C11 9751   2.593   5.172   5.962  0.2114  0.1785  0.7120
   98SAPS  H11A 9752   2.543   5.230   6.042  0.1195 -0.9551  1.4997
   98SAPS  H11B 9753   2.683   5.139   6.018  0.9099 -0.0862 -0.5354
   98SAPS     P 9754   2.527   4.917   5.990 -0.1297  0.1144 -0.3232
   98SAPS   O13 9755   2.442   4.949   6.114 -0.4083  0.5682  0.3709
   98SAPS   O14 9756   2.475   4.810   5.900  0.6103 -0.3772 -0.5545
   98SAPS   O12 9757   2.531   5.055   5.908 -0.1982  0.2738  0.7950
   98SAPS   O11 9758   2.676   4.899   6.025  0.0488  0.3752 -0.1070
   98SAPS    C1 9759   2.738   4.772   6.063  0.0002  0.3720  0.0880
   98SAPS    HA 9760   2.673   4.684   6.043 -1.8903  1.7869 -0.1536
   98SAPS    HB 9761   2.829   4.759   6.001 -1.4191 -1.7008 -1.6311
   98SAPS    C2 9762   2.773   4.784   6.219 -0.5563  0.4365 -0.1894
   98SAPS    HS 9763   2.854   4.721   6.262  0.2894  3.0028  2.1339
   98SAPS   O21 9764   2.661   4.758   6.309  0.6239  0.1065  0.1993
   98SAPS   C21 9765   2.622   4.635   6.316  0.4004 -0.1111 -0.7498
   98SAPS   O22 9766   2.686   4.544   6.261 -0.3945  0.3707 -0.4282
   98SAPS   C22 9767   2.503   4.621   6.402  0.5406 -0.3951 -0.6143
   98SAPS   H2R 9768   2.418   4.681   6.363  0.5896  0.5875  0.7553
   98SAPS   H2S 9769   2.465   4.516   6.408  0.3121 -0.6053 -4.6444
   98SAPS    C3 9770   2.818   4.929   6.250 -0.3016  0.7857 -1.2162
   98SAPS    HX 9771   2.729   4.995   6.243 -2.5071 -2.0599 -0.9837
   98SAPS    HY 9772   2.890   4.963   6.172  2.6975 -0.7792  0.7930
   98SAPS   O31 9773   2.879   4.934   6.382 -0.5732 -0.5016  0.4026
   98SAPS   C31 9774   2.816   5.003   6.480 -0.1286  0.0821 -0.0288
   98SAPS   O32 9775   2.707   5.062   6.478 -0.4478 -0.5158 -0.3534
   98SAPS   C32 9776   2.893   4.986   6.606  0.2916 -0.1478 -0.0413
   98SAPS   H2X 9777   2.874   5.078   6.665  1.3203  0.4190 -0.5791
   98SAPS   H2Y 9778   3.001   4.966   6.590 -0.0269 -2.8896  0.9790
   98SAPS   C23 9779   2.524   4.671   6.543  0.4179  0.0167 -0.2246
   98SAPS   H3R 9780   2.430   4.701   6.594  1.4928 -0.7404  2.2904
   98SAPS   H3S 9781   2.590   4.760   6.535  1.7665 -1.0121 -0.7954
   98SAPS   C24 9782   2.595   4.570   6.633  0.5997 -1.0713  0.0204
   98SAPS   H4R 9783   2.616   4.633   6.722 -1.1189 -0.5022  0.0452
   98SAPS   H4S 9784   2.698   4.554   6.595  1.2155  0.8430  0.8385
   98SAPS   C25 9785   2.522   4.443   6.689  0.4710  0.8138 -0.2673
   98SAPS   H5R 9786   2.463   4.394   6.610  0.1866  0.7094  0.0121
   98SAPS   C26 9787   2.509   4.398   6.813  0.7241  0.0867  0.4453
   98SAPS   H6R 9788   2.448   4.307   6.826  0.4720 -0.1505 -2.0243
   98SAPS   C27 9789   2.573   4.463   6.932  0.1749  0.2369 -0.1618
   98SAPS   H7R 9790   2.496   4.531   6.974 -0.4563 -1.5582  1.6864
   98SAPS   H7S 9791   2.661   4.520   6.896 -0.3848  0.2760 -1.5089
   98SAPS   C28 9792   2.626   4.363   7.034 -0.4581  0.5828  0.0815
   98SAPS   H8R 9793   2.727   4.320   7.029 -0.0599  1.6196 -0.8666
   98SAPS   C29 9794   2.561   4.312   7.139 -0.1034 -0.3322  0.4573
   98SAPS   H9R 9795   2.609   4.238   7.204  1.8445 -0.0909 -0.6659
   98SAPS  C210 9796   2.417   4.343   7.188 -0.6286 -0.5256  1.4352
   98SAPS  H10R 9797   2.366   4.414   7.120 -0.8860 -0.9237  1.2126
   98SAPS  H10S 9798   2.423   4.399   7.284  0.7898  1.6246  0.1275
   98SAPS  C211 9799   2.328   4.226   7.182  0.1748  0.3509 -0.2872
   98SAPS  H11R 9800   2.286   4.203   7.084 -0.1548 -1.1167  0.1919
   98SAPS  C212 9801   2.296   4.147   7.281 -0.4326 -0.5095  0.5443
   98SAPS  H12R 9802   2.243   4.053   7.256 -1.4197  0.4693 -1.1630
   98SAPS  C213 9803   2.344   4.155   7.422  0.0529  0.0042  0.4042
   98SAPS  H13R 9804   2.413   4.239   7.445  1.3296 -0.7830 -0.4412
   98SAPS  H13S 9805   2.391   4.060   7.456 -2.3589 -0.9603  1.1953
   98SAPS  C214 9806   2.224   4.167   7.512  0.3033 -0.0031  0.3581
   98SAPS  H14R 9807   2.125   4.148   7.467  0.6040 -1.9324  0.4559
   98SAPS  C215 9808   2.223   4.188   7.646 -0.4725 -0.0671  0.2857
   98SAPS  H15R 9809   2.125   4.188   7.695 -1.5976 -0.0178 -1.9331
   98SAPS  C216 9810   2.341   4.197   7.742 -0.1909  0.9047 -0.0310
   98SAPS  H16R 9811   2.440   4.182   7.694  0.8866  2.0630  1.7535
   98SAPS  H16S 9812   2.330   4.121   7.822  1.4323 -0.3809 -0.9988
   98SAPS  C217 9813   2.356   4.328   7.809 -0.9379 -0.2760 -0.1251
   98SAPS  H17R 9814   2.274   4.344   7.882 -1.1988 -0.7313 -0.3193
   98SAPS  H17S 9815   2.349   4.409   7.733 -0.2593 -0.7290 -0.6801
   98SAPS  C218 9816   2.496   4.353   7.872  0.3090 -0.2450  0.2459
   98SAPS  H18R 9817   2.511   4.456   7.911 -0.3485 -0.1533  0.2519
   98SAPS  H18S 9818   2.557   4.342   7.779 -0.5280  1.7399 -0.5628
   98SAPS  C219 9819   2.528   4.245   7.980  0.1670  0.2176 -0.1700
   98SAPS  H19R 9820   2.526   4.143   7.936  1.5399  0.0906  0.0489
   98SAPS  H19S 9821   2.442   4.246   8.051  1.2759 -3.0066  1.3324
   98SAPS  C220 9822   2.661   4.267   8.056  0.2873  0.1781 -0.1591
   98SAPS  H20R 9823   2.651   4.349   8.130  0.0393 -0.6141  0.6986
   98SAPS  H20S 9824   2.733   4.310   7.983  1.0401  2.3451  1.7850
   98SAPS  H20T 9825   2.691   4.169   8.098 -0.6661  0.5174  1.3533
   98SAPS   C33 9826   2.839   4.868   6.688  0.3394  0.2566 -0.2663
   98SAPS   H3X 9827   2.860   4.766   6.649 -0.2088 -0.3524  0.9955
   98SAPS   H3Y 9828   2.728   4.872   6.689  0.2660 -1.0566 -1.5155
   98SAPS   C34 9829   2.900   4.858   6.829  0.2155  0.0468 -0.0408
   98SAPS   H4X 9830   2.890   4.957   6.879 -1.0420 -1.1431  2.1363
   98SAPS   H4Y 9831   3.004   4.825   6.811 -0.3691 -1.1214 -1.4545
   98SAPS   C35 9832   2.823   4.744   6.914 -0.2950 -0.1485 -0.5409
   98SAPS   H5X 9833   2.855   4.643   6.884 -0.1897  0.2078 -1.6497
   98SAPS   H5Y 9834   2.713   4.761   6.905 -0.5753 -0.1788  2.2962
   98SAPS   C36 9835   2.865   4.752   7.060 -0.0353  0.3406 -0.1238
   98SAPS   H6X 9836   2.830   4.847   7.105  0.2568  0.6143 -0.4667
   98SAPS   H6Y 9837   2.975   4.736   7.063 -0.2954 -1.5351 -0.2609
   98SAPS   C37 9838   2.789   4.650   7.144 -0.1426  0.5398  0.3995
   98SAPS   H7X 9839   2.820   4.548   7.111 -1.8675  0.5201 -1.2727
   98SAPS   H7Y 9840   2.680   4.653   7.125  0.0358 -2.5007 -1.5383
   98SAPS   C38 9841   2.829   4.655   7.289 -0.2199 -0.5520 -0.6848
   98SAPS   H8X 9842   2.824   4.760   7.326  0.2811 -0.5257 -0.6918
   98SAPS   H8Y 9843   2.937   4.635   7.304  0.4190  1.6806 -2.0647
   98SAPS   C39 9844   2.758   4.546   7.369  0.6355 -0.4568 -0.0356
   98SAPS   H9X 9845   2.779   4.448   7.320 -0.0882  0.0507 -1.4092
   98SAPS   H9Y 9846   2.648   4.566   7.361  0.5955 -0.9689 -0.7704
   98SAPS  C310 9847   2.775   4.545   7.523 -0.1661  0.3618  0.3372
   98SAPS  H10X 9848   2.882   4.533   7.552  0.0327 -0.9540 -0.9190
   98SAPS  H10Y 9849   2.722   4.461   7.572  0.9278  0.0651  1.0471
   98SAPS  C311 9850   2.745   4.674   7.598  0.4237 -0.6146  0.1924
   98SAPS  H11X 9851   2.657   4.707   7.540  0.0049 -1.6140  0.2428
   98SAPS  H11Y 9852   2.829   4.746   7.587 -0.6563  0.4692 -0.9759
   98SAPS  C312 9853   2.734   4.652   7.750 -0.3374  0.3341 -0.1830
   98SAPS  H12X 9854   2.833   4.610   7.781 -0.9436 -2.0054 -1.3091
   98SAPS  H12Y 9855   2.654   4.579   7.775 -0.3666  0.0763 -1.0244
   98SAPS  C313 9856   2.708   4.783   7.821 -0.5890  0.2577 -0.5731
   98SAPS  H13X 9857   2.616   4.833   7.785 -0.4408 -0.5920 -2.1527
   98SAPS  H13Y 9858   2.783   4.861   7.794 -0.5276 -0.3320 -2.1425
   98SAPS  C314 9859   2.707   4.772   7.975 -0.1129 -0.0494 -0.9000
   98SAPS  H14X 9860   2.811   4.749   8.006 -0.6870 -0.1391  0.9976
   98SAPS  H14Y 9861   2.643   4.687   8.004  0.6722 -0.2988  0.1206
   98SAPS  C315 9862   2.652   4.897   8.035  0.8845  0.0857  0.8399
   98SAPS  H15X 9863   2.557   4.928   7.986  0.4096 -1.1221  0.9833
   98SAPS  H15Y 9864   2.721   4.980   8.009  0.5346  0.0437 -0.2640
   98SAPS  C316 9865   2.621   4.895   8.186 -0.4770 -0.6206 -0.2530
   98SAPS  H16X 9866   2.586   4.792   8.208 -0.1215 -1.0366 -1.5941
   98SAPS  H16Y 9867   2.536   4.963   8.212  0.2410  0.8951 -1.7514
   98SAPS  C317 9868   2.737   4.920   8.270  0.0692 -0.1813  0.2715
   98SAPS  H17X 9869   2.761   5.029   8.264  0.1586 -0.2197 -0.1084
   98SAPS  H17Y 9870   2.825   4.858   8.240 -0.6761 -0.4741 -1.3775
   98SAPS  C318 9871   2.723   4.895   8.418 -0.4086  0.1928  0.4847
   98SAPS  H18X 9872   2.630   4.930   8.468 -0.8308  0.0064 -0.1701
   98SAPS  H18Y 9873   2.810   4.945   8.465  0.0489 -1.6385  1.6309
   98SAPS  H18Z 9874   2.728   4.788   8.448 -0.2519 -0.4411 -1.7015
   99SAPS     N 9875   1.962   1.501   6.186  0.3068 -0.1856  0.8303
   99SAPS   HN1 9876   1.869   1.462   6.214  0.1671 -0.5407 -0.1035
   99SAPS   HN2 9877   2.013   1.531   6.271  0.3340  0.4060  0.6104
   99SAPS   HN3 9878   1.941   1.581   6.123  1.9113  0.5279  1.1865
   99SAPS   C12 9879   2.042   1.409   6.106  0.4898 -1.2721 -0.4028
   99SAPS  H12A 9880   2.055   1.318   6.163 -1.3296 -2.1395 -1.3696
   99SAPS   C13 9881   1.987   1.372   5.964  0.1926  0.4181 -0.2709
   99SAPS  O13A 9882   1.872   1.417   5.930  0.3536 -0.4111 -0.2498
   99SAPS  O13B 9883   2.046   1.289   5.889  0.2351  0.4367 -0.0267
   99SAPS   C11 9884   2.178   1.483   6.088 -0.3054 -0.0690 -0.3248
   99SAPS  H11A 9885   2.159   1.568   6.019  0.4179  0.5517  0.2285
   99SAPS  H11B 9886   2.248   1.418   6.032  1.8636  1.0125  1.0738
   99SAPS     P 9887   2.383   1.516   6.243  0.3042  0.2591 -0.2363
   99SAPS   O13 9888   2.407   1.374   6.261  0.0328 -0.2514 -0.0073
   99SAPS   O14 9889   2.471   1.586   6.149 -0.1826 -0.2362 -0.4947
   99SAPS   O12 9890   2.227   1.538   6.211  0.1768 -0.5843 -0.0102
   99SAPS   O11 9891   2.394   1.576   6.388 -0.0159 -0.2368  0.5141
   99SAPS    C1 9892   2.369   1.483   6.497  0.0080  0.3497 -0.3226
   99SAPS    HA 9893   2.271   1.434   6.485  1.3530 -2.6028  0.3150
   99SAPS    HB 9894   2.441   1.398   6.505  2.1632  2.0966 -0.5578
   99SAPS    C2 9895   2.363   1.565   6.631 -0.2381  0.6298  0.6151
   99SAPS    HS 9896   2.460   1.559   6.683 -1.0809 -0.9656  2.0460
   99SAPS   O21 9897   2.263   1.504   6.704 -0.0699 -0.3491  0.1999
   99SAPS   C21 9898   2.259   1.516   6.833  0.0172 -1.2934 -0.1587
   99SAPS   O22 9899   2.344   1.573   6.903 -0.4614 -0.1002 -0.2513
   99SAPS   C22 9900   2.147   1.433   6.887  0.5456  0.4701 -0.0793
   99SAPS   H2R 9901   2.053   1.491   6.874  0.6768  1.3784  2.6069
   99SAPS   H2S 9902   2.125   1.341   6.829 -1.0165 -0.1171  1.3894
   99SAPS    C3 9903   2.325   1.719   6.605  0.5479 -0.1697  0.7096
   99SAPS    HX 9904   2.224   1.732   6.561  0.5056  0.0590  0.8748
   99SAPS    HY 9905   2.387   1.761   6.524 -1.2275  0.4401 -0.3684
   99SAPS   O31 9906   2.326   1.800   6.728  0.2471  0.0055  0.3144
   99SAPS   C31 9907   2.451   1.851   6.751  0.0221  0.3466  0.3741
   99SAPS   O32 9908   2.549   1.825   6.677 -0.2262  0.7035  0.2463
   99SAPS   C32 9909   2.461   1.907   6.893  0.2275  0.3701  0.5248
   99SAPS   H2X 9910   2.355   1.927   6.921 -0.3083  0.4152 -1.4143
   99SAPS   H2Y 9911   2.517   2.000   6.868  2.3318 -1.3652 -1.4484
   99SAPS   C23 9912   2.157   1.384   7.036 -0.3640 -0.4464  0.0829
   99SAPS   H3R 9913   2.127   1.471   7.099  2.4550 -0.3015  1.3012
   99SAPS   H3S 9914   2.260   1.353   7.065 -0.5544 -2.3795 -1.2182
   99SAPS   C24 9915   2.075   1.262   7.065 -0.0988 -0.3445 -0.1486
   99SAPS   H4R 9916   2.109   1.173   7.006 -1.6193  0.7239 -2.7428
   99SAPS   H4S 9917   1.971   1.288   7.035 -0.5576 -1.0854  0.7900
   99SAPS   C25 9918   2.085   1.245   7.214 -0.2413 -0.9171 -0.4667
   99SAPS   H5R 9919   2.162   1.301   7.269 -1.9819 -0.0628  1.1628
   99SAPS   C26 9920   2.022   1.156   7.287  0.4203 -0.1947  0.1753
   99SAPS   H6R 9921   2.036   1.147   7.396 -2.3678  0.0772  0.5959
   99SAPS   C27 9922   1.924   1.058   7.223  0.3993  0.8497  0.7176
   99SAPS   H7R 9923   1.969   0.957   7.235  0.2635  0.8870  1.6008
   99SAPS   H7S 9924   1.917   1.064   7.112  0.0724 -1.3882  0.5976
   99SAPS   C28 9925   1.783   1.064   7.277 -0.4601 -0.4019  0.1313
   99SAPS   H8R 9926   1.705   1.086   7.202 -1.3777  0.3822  1.2972
   99SAPS   C29 9927   1.742   1.021   7.405  0.0121 -0.7001  0.4441
   99SAPS   H9R 9928   1.633   1.016   7.420 -0.5055  2.4954 -1.6669
   99SAPS  C210 9929   1.843   0.974   7.512  0.3641  0.1102  0.2932
   99SAPS  H10R 9930   1.914   1.050   7.549  0.4579 -0.1815  0.7177
   99SAPS  H10S 9931   1.916   0.900   7.471 -1.7786 -1.4033 -0.9019
   99SAPS  C211 9932   1.778   0.907   7.633  0.0659 -0.6615  0.0788
   99SAPS  H11R 9933   1.761   0.800   7.614  0.8301 -0.8841  0.6162
   99SAPS  C212 9934   1.746   0.955   7.755  1.0158 -0.0966 -0.1273
   99SAPS  H12R 9935   1.695   0.889   7.827  0.8802 -1.1935 -1.2174
   99SAPS  C213 9936   1.764   1.104   7.792 -0.6110  0.0243 -0.2918
   99SAPS  H13R 9937   1.846   1.149   7.733 -0.7727  3.1719  1.7212
   99SAPS  H13S 9938   1.809   1.109   7.894 -0.0086  3.0646 -0.6635
   99SAPS  C214 9939   1.640   1.189   7.763 -0.5451  0.1722 -0.2387
   99SAPS  H14R 9940   1.598   1.179   7.662 -2.0606  0.3188  0.3537
   99SAPS  C215 9941   1.584   1.281   7.853 -0.0343  0.8149  0.1406
   99SAPS  H15R 9942   1.488   1.329   7.829 -0.6606 -1.3028 -1.7790
   99SAPS  C216 9943   1.640   1.311   7.988 -0.3573  0.6543 -0.2804
   99SAPS  H16R 9944   1.647   1.420   8.004 -0.2700  0.5392  0.4884
   99SAPS  H16S 9945   1.742   1.283   8.021 -1.3556 -1.6790  0.9731
   99SAPS  C217 9946   1.534   1.269   8.091 -0.6615 -0.1509 -0.7861
   99SAPS  H17R 9947   1.544   1.160   8.111  1.8134  0.3320  0.7481
   99SAPS  H17S 9948   1.433   1.290   8.049 -1.3296  0.0755  0.9139
   99SAPS  C218 9949   1.558   1.333   8.234  0.2472 -0.1835 -0.2151
   99SAPS  H18R 9950   1.660   1.313   8.275  0.3981  1.6702  0.3398
   99SAPS  H18S 9951   1.482   1.290   8.302  0.2295 -2.2938 -1.5235
   99SAPS  C219 9952   1.528   1.486   8.250 -0.0026 -0.7471  0.6956
   99SAPS  H19R 9953   1.436   1.515   8.195 -1.0884 -2.1890  1.7264
   99SAPS  H19S 9954   1.624   1.535   8.221  1.1586 -1.9937  2.3699
   99SAPS  C220 9955   1.508   1.534   8.397 -0.2755  0.4913 -0.1572
   99SAPS  H20R 9956   1.435   1.466   8.446 -1.0197  2.6008  1.7335
   99SAPS  H20S 9957   1.465   1.635   8.410 -1.8242 -0.2677  0.8582
   99SAPS  H20T 9958   1.601   1.505   8.452 -1.1658 -0.8118  0.7064
   99SAPS   C33 9959   2.545   1.816   6.980  0.3727  0.1981 -0.1328
   99SAPS   H3X 9960   2.647   1.800   6.940  0.1330 -0.5196 -0.4526
   99SAPS   H3Y 9961   2.507   1.712   6.986 -0.2637  0.4264 -0.1811
   99SAPS   C34 9962   2.566   1.870   7.122  0.3423  0.4334 -0.3340
   99SAPS   H4X 9963   2.618   1.790   7.179  0.5026 -1.4779 -3.1072
   99SAPS   H4Y 9964   2.473   1.891   7.180  1.4164 -2.0246  2.3963
   99SAPS   C35 9965   2.659   1.994   7.116 -0.2786 -0.4075 -0.6453
   99SAPS   H5X 9966   2.624   2.068   7.041 -0.3934  0.3369  0.1343
   99SAPS   H5Y 9967   2.758   1.957   7.082 -0.2561 -1.1639  0.2231
   99SAPS   C36 9968   2.661   2.073   7.247  0.0506  0.7220 -0.5277
   99SAPS   H6X 9969   2.558   2.106   7.275 -0.2117  0.7827 -1.5490
   99SAPS   H6Y 9970   2.716   2.166   7.222  1.2244 -0.1794 -1.3353
   99SAPS   C37 9971   2.717   2.002   7.376  0.2953 -0.7156  0.4968
   99SAPS   H7X 9972   2.823   1.977   7.353  1.0281  1.4406  1.3768
   99SAPS   H7Y 9973   2.664   1.905   7.374  1.4104 -1.3308  0.5807
   99SAPS   C38 9974   2.692   2.078   7.503  0.1025  0.1391 -0.5888
   99SAPS   H8X 9975   2.592   2.127   7.493  0.1149  0.2611 -0.1409
   99SAPS   H8Y 9976   2.770   2.157   7.516  1.1955 -1.1325  0.6705
   99SAPS   C39 9977   2.698   1.987   7.630  0.0079 -0.0925  0.7299
   99SAPS   H9X 9978   2.728   2.041   7.722  1.4326 -0.9549  0.7805
   99SAPS   H9Y 9979   2.769   1.903   7.619  1.2100  0.9879  0.1276
   99SAPS  C310 9980   2.564   1.915   7.657 -0.7983  0.1732 -0.4224
   99SAPS  H10X 9981   2.550   1.855   7.564  0.6515  0.1967 -0.6593
   99SAPS  H10Y 9982   2.488   1.995   7.663 -1.0064 -0.0135 -0.5339
   99SAPS  C311 9983   2.562   1.819   7.771  0.0979 -0.1034  0.1793
   99SAPS  H11X 9984   2.646   1.747   7.766  0.0377 -0.2393  1.0410
   99SAPS  H11Y 9985   2.467   1.763   7.759 -1.4213  1.5043  3.7067
   99SAPS  C312 9986   2.543   1.883   7.909  0.0768  0.0771 -0.6549
   99SAPS  H12X 9987   2.448   1.941   7.901  0.4328  0.7987  0.2691
   99SAPS  H12Y 9988   2.607   1.973   7.913 -4.6140  3.5816  0.8162
   99SAPS  C313 9989   2.554   1.796   8.037  0.0523  0.5500 -0.4847
   99SAPS  H13X 9990   2.643   1.733   8.014 -0.6577 -1.1079  1.1953
   99SAPS  H13Y 9991   2.476   1.717   8.041  0.6812 -0.0252  0.4939
   99SAPS  C314 9992   2.575   1.855   8.180  0.8272  0.4088 -0.3864
   99SAPS  H14X 9993   2.675   1.904   8.178  2.1571 -2.1035  0.6549
   99SAPS  H14Y 9994   2.587   1.774   8.256 -1.8823  0.1120 -0.2483
   99SAPS  C315 9995   2.463   1.949   8.227 -0.7372 -0.1614  0.4367
   99SAPS  H15X 9996   2.362   1.914   8.196 -0.4529  1.4248 -2.4351
   99SAPS  H15Y 9997   2.476   2.047   8.176 -0.4054 -0.6504 -0.4311
   99SAPS  C316 9998   2.470   1.980   8.374 -0.1454  0.5122  0.5361
   99SAPS  H16X 9999   2.573   1.975   8.415 -0.7770 -2.0333  1.9468
   99SAPS  H16Y10000   2.423   1.898   8.431  1.3219 -0.3156  0.5938
   99SAPS  C31710001   2.387   2.110   8.410  0.4708 -0.8060  0.0245
   99SAPS  H17X10002   2.288   2.087   8.366 -0.7041  1.7980  1.2240
   99SAPS  H17Y10003   2.429   2.194   8.350 -0.1330  0.4742  1.3806
   99SAPS  C31810004   2.385   2.143   8.559  0.8879 -0.0873 -0.4940
   99SAPS  H18X10005   2.352   2.055   8.618  3.5054 -1.0414 -0.3566
   99SAPS  H18Y10006   2.313   2.225   8.581 -0.3407 -0.6664 -2.2512
   99SAPS  H18Z10007   2.490   2.163   8.591  0.0365  1.7540  1.2498
  100SAPS     N10008   4.745   3.408   6.248  0.1532 -0.5645 -0.6601
  100SAPS   HN110009   4.846   3.427   6.232  0.0755  1.1143  0.6053
  100SAPS   HN210010   4.703   3.498   6.278  1.2336  1.5964 -5.2206
  100SAPS   HN310011   4.740   3.337   6.323 -0.4781 -0.4206 -0.5694
  100SAPS   C1210012   4.681   3.351   6.128 -0.3103 -0.1056  0.6416
  100SAPS  H12A10013   4.693   3.427   6.052  0.2282  0.9718  1.7882
  100SAPS   C1310014   4.730   3.219   6.072 -0.1359 -0.1572  0.0155
  100SAPS  O13A10015   4.824   3.164   6.131 -0.0944  0.4034 -0.1588
  100SAPS  O13B10016   4.680   3.179   5.965 -0.0361  0.5747  0.0449
  100SAPS   C1110017   4.525   3.342   6.151  0.1643 -0.4332 -0.1791
  100SAPS  H11A10018   4.515   3.250   6.213 -0.1591  0.2548  0.7999
  100SAPS  H11B10019   4.470   3.333   6.054  1.4048 -0.9468 -0.8486
  100SAPS     P10020   4.334   3.472   6.249  0.0457 -0.2658  0.0532
  100SAPS   O1310021   4.286   3.599   6.202 -0.7061  0.0792  0.4598
  100SAPS   O1410022   4.263   3.352   6.204  0.0233  0.2507 -0.0955
  100SAPS   O1210023   4.485   3.458   6.214  0.3553  0.1972 -0.4851
  100SAPS   O1110024   4.332   3.473   6.406  0.2131  0.0745  0.2727
  100SAPS    C110025   4.376   3.594   6.477  0.7676  0.3533  0.4888
  100SAPS    HA10026   4.441   3.658   6.413  1.0003 -1.3063 -0.9697
  100SAPS    HB10027   4.281   3.649   6.498  0.9285 -0.3917  3.3400
  100SAPS    C210028   4.454   3.547   6.601 -0.3223 -0.1260  0.0036
  100SAPS    HS10029   4.546   3.502   6.559  0.2829  0.2778  0.8960
  100SAPS   O2110030   4.369   3.465   6.679 -0.2080  0.6030  0.6918
  100SAPS   C2110031   4.415   3.367   6.754 -0.0667 -0.4678  0.5321
  100SAPS   O2210032   4.535   3.341   6.780 -0.2501 -0.0764  0.5724
  100SAPS   C2210033   4.296   3.294   6.813  0.4571 -0.0850  0.4323
  100SAPS   H2R10034   4.240   3.254   6.726  0.7051 -0.3697  0.4024
  100SAPS   H2S10035   4.339   3.210   6.871 -0.1190 -0.0677  0.8867
  100SAPS    C310036   4.497   3.666   6.687  0.0493 -0.0727  0.1085
  100SAPS    HX10037   4.408   3.714   6.734 -0.6031  1.1237 -2.2514
  100SAPS    HY10038   4.540   3.742   6.619 -0.6008 -2.1170 -2.6875
  100SAPS   O3110039   4.580   3.628   6.790 -0.4912  0.1873 -0.1130
  100SAPS   C3110040   4.711   3.625   6.761  0.1913 -0.7885  0.1920
  100SAPS   O3210041   4.767   3.669   6.663 -0.0017  0.7052  0.5787
  100SAPS   C3210042   4.769   3.549   6.876 -0.3258 -0.1563 -0.3390
  100SAPS   H2X10043   4.784   3.444   6.843 -0.5330 -0.2305 -0.2000
  100SAPS   H2Y10044   4.718   3.558   6.974  0.9518 -0.4040  0.3551
  100SAPS   C2310045   4.210   3.392   6.894  0.0408 -0.2752  0.6271
  100SAPS   H3R10046   4.198   3.491   6.844 -1.4455 -1.1796 -0.8215
  100SAPS   H3S10047   4.260   3.414   6.991 -0.3487 -0.9767  0.9913
  100SAPS   C2410048   4.067   3.337   6.913  0.9976  0.3482  0.6046
  100SAPS   H4R10049   4.045   3.320   6.805 -0.4344  1.5166  0.6913
  100SAPS   H4S10050   4.018   3.427   6.958 -0.7512 -0.0397 -0.4889
  100SAPS   C2510051   4.066   3.209   6.995 -0.3294 -0.1386  0.1736
  100SAPS   H5R10052   4.117   3.124   6.947  1.9482  2.0000 -1.3197
  100SAPS   C2610053   4.034   3.203   7.125 -0.5909 -0.1801 -0.2325
  100SAPS   H6R10054   4.049   3.105   7.172 -2.0120 -0.1814  0.2402
  100SAPS   C2710055   3.991   3.314   7.229 -0.5855  0.2181 -0.0745
  100SAPS   H7R10056   3.882   3.315   7.249 -0.5742  0.8541 -0.0448
  100SAPS   H7S10057   4.007   3.413   7.182  1.8370 -0.5368 -0.9198
  100SAPS   C2810058   4.078   3.329   7.358  0.3561  0.8463 -0.1257
  100SAPS   H8R10059   4.186   3.324   7.338  0.0898 -0.9583 -1.1757
  100SAPS   C2910060   4.034   3.362   7.484  0.1040 -0.1912  0.4321
  100SAPS   H9R10061   4.102   3.343   7.568  0.4134 -3.8482 -0.5681
  100SAPS  C21010062   3.893   3.384   7.529 -0.0209 -0.3110  0.5725
  100SAPS  H10R10063   3.832   3.418   7.443  1.0215 -2.0004 -0.8686
  100SAPS  H10S10064   3.882   3.478   7.587 -0.6191  0.5526 -0.9247
  100SAPS  C21110065   3.822   3.281   7.608  0.4687  1.1138  0.5175
  100SAPS  H11R10066   3.748   3.223   7.552 -1.0203  2.4793  1.0450
  100SAPS  C21210067   3.851   3.241   7.736  0.0035 -0.6869 -0.7084
  100SAPS  H12R10068   3.792   3.161   7.782 -0.8606  0.7438  0.6941
  100SAPS  C21310069   3.949   3.315   7.827  0.4192 -0.2451 -0.2870
  100SAPS  H13R10070   3.898   3.343   7.922  3.4669 -0.1988  1.4156
  100SAPS  H13S10071   3.986   3.416   7.798 -0.4223  0.0305 -0.4030
  100SAPS  C21410072   4.073   3.230   7.862 -0.9072 -0.2532 -0.4607
  100SAPS  H14R10073   4.154   3.259   7.794 -2.1461  0.8221 -1.5060
  100SAPS  C21510074   4.092   3.136   7.960 -0.3555  0.3599 -0.4248
  100SAPS  H15R10075   4.190   3.087   7.969 -0.4670  0.0445 -0.8898
  100SAPS  C21610076   3.994   3.092   8.067  0.2893 -0.2831  0.4096
  100SAPS  H16R10077   3.894   3.132   8.041  1.2925  2.9570  1.3421
  100SAPS  H16S10078   4.033   3.130   8.164  0.7467 -2.4210  1.1017
  100SAPS  C21710079   3.984   2.935   8.091  0.1499 -0.2815  0.4331
  100SAPS  H17R10080   3.904   2.929   8.167 -0.3481 -0.4299 -0.1052
  100SAPS  H17S10081   4.076   2.895   8.140  0.8356  0.1698 -0.4655
  100SAPS  C21810082   3.945   2.841   7.975 -0.6543 -0.4395 -0.8523
  100SAPS  H18R10083   4.026   2.824   7.901 -1.6883 -0.3439 -2.0207
  100SAPS  H18S10084   3.870   2.894   7.913  0.3883  2.7884  0.5406
  100SAPS  C21910085   3.882   2.712   8.027 -0.3348  0.4813 -0.3493
  100SAPS  H19R10086   3.959   2.663   8.090 -1.0933  0.0115  0.2106
  100SAPS  H19S10087   3.856   2.646   7.942 -0.5204  2.4365 -1.8651
  100SAPS  C22010088   3.755   2.733   8.107 -0.1588  0.5741  0.2828
  100SAPS  H20R10089   3.694   2.641   8.121  1.9465 -0.8509  0.3519
  100SAPS  H20S10090   3.697   2.806   8.048 -0.5067 -1.5259 -2.0396
  100SAPS  H20T10091   3.767   2.773   8.210  0.5313  2.1398 -0.3983
  100SAPS   C3310092   4.912   3.607   6.902 -0.4546  0.1631  0.0634
  100SAPS   H3X10093   4.900   3.711   6.941 -1.1518 -0.4596  1.5903
  100SAPS   H3Y10094   4.987   3.601   6.820  0.4777  0.9110  0.8436
  100SAPS   C3410095   4.983   3.539   7.026 -1.2834  0.6061 -0.8806
  100SAPS   H4X10096   5.089   3.570   7.029 -1.3043  0.6533 -0.6569
  100SAPS   H4Y10097   4.989   3.431   7.001 -3.7006  0.0569  0.6808
  100SAPS   C3510098   4.939   3.580   7.178  0.0544 -0.1003  0.0123
  100SAPS   H5X10099   4.828   3.579   7.183  0.0319 -0.8894 -0.5202
  100SAPS   H5Y10100   4.980   3.682   7.194  1.0607 -0.3597 -0.8583
  100SAPS   C3610101   5.015   3.499   7.285  0.1439  0.3383 -0.0930
  100SAPS   H6X10102   5.125   3.504   7.269  0.1530  1.0999  0.1788
  100SAPS   H6Y10103   4.987   3.392   7.284 -1.7260  0.7965 -1.3598
  100SAPS   C3710104   4.990   3.552   7.423  0.1433  0.3474 -0.1395
  100SAPS   H7X10105   4.884   3.585   7.434  0.4649  1.5352 -0.5659
  100SAPS   H7Y10106   5.045   3.648   7.436  3.3500 -1.3586 -0.7189
  100SAPS   C3810107   5.038   3.452   7.537  0.4995 -0.0599  0.7530
  100SAPS   H8X10108   5.145   3.433   7.511  1.0839  2.5400  1.0419
  100SAPS   H8Y10109   4.980   3.360   7.518  0.4420  0.3913 -1.4306
  100SAPS   C3910110   5.014   3.502   7.687 -0.1425 -0.7750 -0.5620
  100SAPS   H9X10111   5.036   3.418   7.756  1.8529 -0.0694 -0.2815
  100SAPS   H9Y10112   4.908   3.534   7.697  0.3204  0.0196  2.3851
  100SAPS  C31010113   5.104   3.625   7.728 -0.1850  0.9534 -0.1382
  100SAPS  H10X10114   5.063   3.674   7.819  0.4915  0.7358  0.2860
  100SAPS  H10Y10115   5.091   3.698   7.645  0.0658  1.0467 -0.0928
  100SAPS  C31110116   5.247   3.583   7.748 -0.4511  0.0416  0.3444
  100SAPS  H11X10117   5.316   3.670   7.750  3.4164 -2.7622 -2.2936
  100SAPS  H11Y10118   5.291   3.522   7.666  2.2566  1.5309  0.6135
  100SAPS  C31210119   5.270   3.509   7.877  0.1149 -0.1248 -0.2386
  100SAPS  H12X10120   5.377   3.492   7.902  0.2178  3.4767  2.0996
  100SAPS  H12Y10121   5.196   3.426   7.877 -0.8001  0.6757  0.9932
  100SAPS  C31310122   5.223   3.599   7.999 -0.8160  0.1110 -0.9012
  100SAPS  H13X10123   5.113   3.590   8.006 -1.2192  3.7075 -1.1832
  100SAPS  H13Y10124   5.239   3.708   7.983 -0.5819  0.0357 -1.2047
  100SAPS  C31410125   5.290   3.546   8.130 -0.3311 -0.4026  0.4475
  100SAPS  H14X10126   5.401   3.550   8.118 -0.1637 -0.6299  1.8738
  100SAPS  H14Y10127   5.275   3.436   8.132  4.5589 -1.1611  1.8612
  100SAPS  C31510128   5.237   3.621   8.255  0.3312 -0.3214 -0.4866
  100SAPS  H15X10129   5.129   3.596   8.250  0.3790 -0.4849 -0.7122
  100SAPS  H15Y10130   5.259   3.726   8.228 -0.1716 -0.6762 -2.3745
  100SAPS  C31610131   5.306   3.582   8.390 -0.0364  0.5983  0.4362
  100SAPS  H16X10132   5.250   3.636   8.470  1.2114 -1.1992  2.5786
  100SAPS  H16Y10133   5.411   3.617   8.401 -0.1685  1.1189  0.0442
  100SAPS  C31710134   5.291   3.442   8.431 -0.1178  0.3372  0.6986
  100SAPS  H17X10135   5.338   3.384   8.349  1.2886 -0.3512  1.9652
  100SAPS  H17Y10136   5.180   3.428   8.436 -0.1860  0.4310 -0.5361
  100SAPS  C31810137   5.344   3.403   8.564 -0.4717  0.8817 -0.1898
  100SAPS  H18X10138   5.292   3.438   8.656 -1.7325 -1.9941  0.2700
  100SAPS  H18Y10139   5.447   3.444   8.569  1.8873 -4.7279  1.4570
  100SAPS  H18Z10140   5.348   3.292   8.575  1.5673  0.9292 -0.4264
  101OSM      N10141   3.655   4.576  10.715  0.1418 -0.5246 -0.1478
  101OSM    C1510142   3.573   4.692  10.659  0.3273 -1.0887 -0.6249
  101OSM   H15A10143   3.560   4.774  10.727 -1.3979 -0.2462 -1.9526
  101OSM   H15B10144   3.472   4.662  10.635  0.3347 -1.9248  0.3543
  101OSM   H15C10145   3.609   4.727  10.563 -3.4160  1.8272 -1.0275
  101OSM    C1410146   3.592   4.527  10.838  0.7531 -0.1426 -0.3101
  101OSM   H14A10147   3.488   4.510  10.811  1.0221  0.8244 -2.0151
  101OSM   H14B10148   3.576   4.591  10.923  0.7517 -1.9580  1.0897
  101OSM   H14C10149   3.626   4.429  10.869 -0.0705 -0.8985 -1.7157
  101OSM    C1310150   3.652   4.471  10.616  0.2575 -0.4940  0.0991
  101OSM   H13A10151   3.708   4.492  10.527 -0.2248 -0.7781 -0.2784
  101OSM   H13B10152   3.553   4.453  10.576  0.1677  0.9350 -0.3437
  101OSM   H13C10153   3.689   4.379  10.659 -2.3258 -0.9608  1.4376
  101OSM    C1210154   3.796   4.616  10.741  0.8748  0.3377 -0.2391
  101OSM   H12A10155   3.789   4.709  10.795 -2.3886 -0.1493  0.2692
  101OSM   H12B10156   3.856   4.636  10.654  0.2790  0.3326 -0.6524
  101OSM    C1110157   3.890   4.529  10.829 -0.5994 -0.3005 -0.0348
  101OSM   H11A10158   3.847   4.520  10.931  1.5543  1.0888  1.0247
  101OSM   H11B10159   3.985   4.585  10.841  0.1088 -1.8447  1.8201
  101OSM      P10160   3.901   4.269  10.810 -0.1207 -0.5275 -0.4434
  101OSM    O1310161   3.972   4.268  10.942  0.1675 -0.0157  0.1857
  101OSM    O1410162   3.757   4.227  10.814  0.2060 -0.1473  0.5019
  101OSM    O1110163   3.981   4.195  10.694 -0.5823  0.5318  0.1275
  101OSM    O1210164   3.917   4.412  10.754  0.0551  0.2096  0.4654
  101OSM    C1S10165   3.923   4.177  10.567 -0.2218  0.0121 -0.0445
  101OSM    H1S10166   3.832   4.240  10.558  0.1399  1.1768  3.3898
  101OSM    H1T10167   3.893   4.070  10.565  1.2719 -0.3952 -3.3169
  101OSM     NF10168   3.935   4.225  10.336  0.3658  0.8656 -0.4150
  101OSM    HNF10169   3.941   4.155  10.266 -0.5001 -0.1085  0.4575
  101OSM    C2S10170   4.016   4.218  10.456  0.3587 -0.0070  0.0983
  101OSM    H2S10171   4.057   4.321  10.462  0.2845 -0.0612  1.6226
  101OSM    C3S10172   4.134   4.120  10.455  0.1761  0.3495  0.1319
  101OSM    H3S10173   4.087   4.020  10.446  2.0799 -0.6898  1.3322
  101OSM     O310174   4.219   4.115  10.565 -0.0357 -0.0048 -0.5830
  101OSM    HO310175   4.177   4.169  10.632 -0.8952 -1.9692  0.4844
  101OSM    C4S10176   4.213   4.147  10.331 -0.5023  0.4019  0.4806
  101OSM    H4S10177   4.174   4.089  10.246 -3.4506  0.2849  1.8613
  101OSM    C5S10178   4.315   4.234  10.308 -1.2779  0.3363  0.4042
  101OSM    H5S10179   4.343   4.307  10.385 -0.1714  1.5320 -1.0892
  101OSM    C6S10180   4.384   4.255  10.171 -0.2139  0.1934  0.1008
  101OSM    H6S10181   4.487   4.215  10.178  0.1621  1.3286  1.2338
  101OSM    H6T10182   4.385   4.364  10.146 -1.7718 -0.0476 -1.0936
  101OSM    C7S10183   4.318   4.191  10.043  0.5533 -1.2911 -0.7505
  101OSM    H7S10184   4.212   4.224  10.041  1.4454  1.7029 -0.4298
  101OSM    H7T10185   4.312   4.080  10.051  1.0622 -1.1685  1.6023
  101OSM    C8S10186   4.392   4.224   9.914  0.6240  0.1056 -0.0933
  101OSM    H8S10187   4.483   4.160   9.918  0.3026 -0.3082  0.7596
  101OSM    H8T10188   4.419   4.331   9.906  1.1468  0.0879  1.4030
  101OSM    C9S10189   4.314   4.182   9.796  0.0631  0.3017  0.3038
  101OSM    H9S10190   4.222   4.244   9.797  0.3812  0.7766  0.8081
  101OSM    H9T10191   4.281   4.079   9.824 -0.8120  0.5957  0.3859
  101OSM   C10S10192   4.390   4.182   9.662 -0.4613  0.2280 -0.5492
  101OSM   H10S10193   4.485   4.129   9.684 -1.7103 -0.6491  3.0570
  101OSM   H10T10194   4.423   4.286   9.642  0.6460  0.1550  0.8382
  101OSM   C11S10195   4.307   4.130   9.545  0.6238 -0.3308  0.0652
  101OSM   H11S10196   4.209   4.182   9.542  1.8443  1.9086 -2.7355
  101OSM   H11T10197   4.282   4.024   9.566  1.1574 -0.8990 -2.0632
  101OSM   C12S10198   4.376   4.143   9.411  0.2446 -0.1889 -0.2544
  101OSM   H12S10199   4.475   4.092   9.415  0.0465 -0.5579  0.0309
  101OSM   H12T10200   4.398   4.251   9.397 -0.0957  0.0270  0.8290
  101OSM   C13S10201   4.294   4.095   9.296 -0.0619 -0.5044  0.1038
  101OSM   H13S10202   4.188   4.111   9.327 -0.0656 -1.2865  0.5171
  101OSM   H13T10203   4.294   3.984   9.292  1.1192 -0.4354 -2.7280
  101OSM   C14S10204   4.332   4.163   9.155 -0.1529 -0.1557 -0.7193
  101OSM   H14S10205   4.433   4.120   9.137 -0.6844 -1.3012 -1.0152
  101OSM   H14T10206   4.331   4.274   9.160 -1.0688 -0.2446  2.0478
  101OSM   C15S10207   4.252   4.120   9.031  0.3733 -0.4794 -0.3568
  101OSM   H15S10208   4.304   4.173   8.948  0.5358  1.2156  0.8062
  101OSM   H15T10209   4.142   4.139   9.035 -0.0523 -2.7706 -0.3937
  101OSM   C16S10210   4.256   3.973   8.997  0.0680  0.8183  0.4266
  101OSM   H16S10211   4.209   3.911   9.076 -1.0672  0.0471 -0.8278
  101OSM   H16T10212   4.362   3.942   8.983 -0.7122 -1.0553 -1.7592
  101OSM   C17S10213   4.207   3.938   8.853 -0.6184 -0.2284 -0.2564
  101OSM   H17S10214   4.261   4.010   8.787 -1.1809  0.6863  0.2816
  101OSM   H17T10215   4.099   3.964   8.861 -0.2007  1.0707  1.3764
  101OSM   C18S10216   4.238   3.797   8.802 -0.0376 -0.5477  0.0255
  101OSM   H18S10217   4.179   3.776   8.711  0.1031  2.0444 -0.7020
  101OSM   H18T10218   4.193   3.729   8.877  0.6781  0.4693  1.4014
  101OSM   H18U10219   4.349   3.784   8.800  0.3207  2.2385 -2.3910
  101OSM    C1F10220   3.848   4.322  10.314  0.0740  0.1970 -0.8279
  101OSM     OF10221   3.831   4.413  10.397 -0.3880  0.2574 -0.0034
  101OSM    C2F10222   3.759   4.324  10.183  0.0789  0.1352 -0.2676
  101OSM    H2F10223   3.657   4.320  10.225  0.0668 -2.0333 -0.4748
  101OSM    H2G10224   3.780   4.236  10.119  0.6549 -0.0851  0.2181
  101OSM    C3F10225   3.771   4.451  10.099 -0.0893  0.0423  0.2488
  101OSM    H3F10226   3.878   4.454  10.069 -0.6525 -2.8124 -2.2451
  101OSM    H3G10227   3.741   4.525  10.177  1.0354 -0.1430  0.8773
  101OSM    C4F10228   3.682   4.448   9.975  0.1258 -0.0241 -0.4693
  101OSM    H4F10229   3.575   4.450  10.004 -0.0742  0.5400 -1.2448
  101OSM    H4G10230   3.702   4.350   9.926 -0.5325  0.2490 -1.2769
  101OSM    C5F10231   3.714   4.564   9.875 -0.3793  0.7047  0.1281
  101OSM    H5F10232   3.823   4.557   9.856 -0.5106  2.5636 -1.4576
  101OSM    H5G10233   3.704   4.664   9.923  1.5582  0.4362  1.1298
  101OSM    C6F10234   3.639   4.541   9.738  0.0135 -0.5810  0.0843
  101OSM    H6F10235   3.533   4.514   9.756  0.5718 -1.9329  1.4704
  101OSM    H6G10236   3.689   4.457   9.685 -0.5286 -0.5187 -0.5371
  101OSM    C7F10237   3.654   4.666   9.654  1.5359  0.1871 -0.4521
  101OSM    H7F10238   3.764   4.676   9.642  1.5810  2.6857  1.5845
  101OSM    H7G10239   3.623   4.752   9.717 -3.0788 -2.7152  1.4762
  101OSM    C8F10240   3.597   4.676   9.511  0.8670 -0.5029  0.0012
  101OSM    H8F10241   3.616   4.781   9.480 -3.1050  0.4816  0.6535
  101OSM    H8G10242   3.488   4.662   9.518  0.3844  2.9138  0.3211
  101OSM    C9F10243   3.663   4.580   9.413  0.5912  0.8484  0.2897
  101OSM    H9F10244   3.713   4.495   9.462 -0.0274 -0.3213 -1.0898
  101OSM   C10F10245   3.648   4.585   9.284  0.0098 -0.2478  0.0204
  101OSM   H10F10246   3.714   4.519   9.224  0.5945  1.2059 -0.9796
  101OSM   C11F10247   3.559   4.679   9.202  0.5052 -0.2055 -0.3497
  101OSM   H11F10248   3.553   4.783   9.241 -1.1573  0.0475 -1.2435
  101OSM   H11G10249   3.457   4.635   9.206  0.1759  0.5082 -0.8104
  101OSM   C12F10250   3.599   4.692   9.057  0.6868 -0.1574 -0.3425
  101OSM   H12F10251   3.619   4.599   8.999 -0.3326  0.1037 -1.1257
  101OSM   H12G10252   3.698   4.742   9.049  0.7898 -0.1939  0.6139
  101OSM   C13F10253   3.491   4.781   8.997  0.1137 -0.8689  0.6012
  101OSM   H13F10254   3.483   4.879   9.048  1.8559  0.7782 -2.1545
  101OSM   H13G10255   3.392   4.732   9.009 -0.8133  1.0813  1.1130
  101OSM   C14F10256   3.523   4.807   8.849  0.2676  0.0808  0.2672
  101OSM   H14F10257   3.433   4.856   8.806 -0.0339  0.7237  1.6007
  101OSM   H14G10258   3.544   4.706   8.808 -4.4879 -0.3771 -1.3118
  101OSM   C15F10259   3.655   4.894   8.838  0.0109  0.0943 -0.4425
  101OSM   H15F10260   3.751   4.851   8.873  0.9065  1.4092 -1.2302
  101OSM   H15G10261   3.632   4.982   8.901 -1.8610  0.8172 -2.0651
  101OSM   C16F10262   3.674   4.947   8.693 -0.3304 -0.4162  0.7874
  101OSM   H16F10263   3.577   4.977   8.646  0.5648  0.8726 -0.2812
  101OSM   H16G10264   3.725   4.869   8.633 -1.3265 -0.3556 -0.1483
  101OSM   C17F10265   3.769   5.065   8.674 -0.1687  0.4495 -0.6175
  101OSM   H17F10266   3.871   5.034   8.704 -0.8657 -0.9182  0.4424
  101OSM   H17G10267   3.727   5.147   8.736 -1.9974  0.2244 -1.5260
  101OSM   C18F10268   3.773   5.117   8.533  0.0549 -0.3852 -0.5317
  101OSM   H18F10269   3.677   5.161   8.500  0.1576  0.6916  0.5519
  101OSM   H18G10270   3.801   5.031   8.469  1.0438  0.6454 -1.5299
  101OSM   H18H10271   3.844   5.203   8.533  0.4843 -0.7331  0.2483
  102OSM      N10272   3.909   3.843  10.908 -0.2099  0.6846 -0.1094
  102OSM    C1510273   3.763   3.881  10.883 -0.0348  0.2602  0.0838
  102OSM   H15A10274   3.702   3.859  10.969  0.2927 -1.5154 -0.1115
  102OSM   H15B10275   3.719   3.836  10.795  1.4447  0.4660 -0.7745
  102OSM   H15C10276   3.750   3.988  10.874 -0.4042  0.2888  0.9686
  102OSM    C1410277   4.003   3.921  10.825  0.3771  0.1544  0.2846
  102OSM   H14A10278   3.988   4.025  10.850  0.6935  1.1755 -3.4895
  102OSM   H14B10279   3.984   3.921  10.718 -2.6435  0.7635  0.7694
  102OSM   H14C10280   4.109   3.908  10.839  0.3070 -0.7699 -0.0109
  102OSM    C1310281   3.939   3.870  11.050 -0.1078  0.1534  0.1076
  102OSM   H13A10282   4.042   3.850  11.078 -0.0470  1.3493  0.7580
  102OSM   H13B10283   3.884   3.803  11.114  1.3326  0.4184  1.6468
  102OSM   H13C10284   3.913   3.970  11.080 -5.4504 -0.8291 -0.8482
  102OSM    C1210285   3.928   3.699  10.875 -0.0643 -0.3318  0.2731
  102OSM   H12A10286   3.915   3.642  10.966  3.1655 -1.6539 -0.0341
  102OSM   H12B10287   4.033   3.685  10.855  0.2388 -2.6012  3.0659
  102OSM    C1110288   3.846   3.632  10.768 -0.1399  0.4244 -0.3824
  102OSM   H11A10289   3.890   3.539  10.726 -0.4737 -0.1759  0.5749
  102OSM   H11B10290   3.846   3.691  10.674  2.5987  2.3279  0.7564
  102OSM      P10291   3.631   3.479  10.821  0.1001 -0.5321 -0.0182
  102OSM    O1310292   3.716   3.381  10.896  0.1036 -0.3951 -0.0273
  102OSM    O1410293   3.495   3.502  10.877 -0.4193 -0.0262 -0.6323
  102OSM    O1110294   3.613   3.421  10.680  0.3134  0.0859 -0.3946
  102OSM    O1210295   3.707   3.613  10.802  0.0840  0.7462 -0.3088
  102OSM    C1S10296   3.515   3.486  10.590 -0.1176  0.4400  0.1578
  102OSM    H1S10297   3.524   3.596  10.592  0.7420  0.4151 -1.4643
  102OSM    H1T10298   3.410   3.465  10.621 -0.0022 -1.2987 -0.5764
  102OSM     NF10299   3.483   3.531  10.348 -0.6959 -0.3971 -0.4348
  102OSM    HNF10300   3.396   3.514  10.303 -0.2390  0.8614 -1.8265
  102OSM    C2S10301   3.526   3.435  10.445  0.0425 -0.1260  0.1648
  102OSM    H2S10302   3.633   3.422  10.416  0.5697  2.1734  1.0457
  102OSM    C3S10303   3.455   3.296  10.438 -0.0369  0.0585  0.0887
  102OSM    H3S10304   3.346   3.305  10.457 -0.2704 -1.3076 -0.5722
  102OSM     O310305   3.486   3.203  10.544 -0.2880 -0.1619 -0.2443
  102OSM    HO310306   3.521   3.248  10.622 -0.4147  1.9956 -1.3939
  102OSM    C4S10307   3.486   3.227  10.306 -0.5604  0.1532 -0.0658
  102OSM    H4S10308   3.586   3.186  10.287 -0.0293  2.1069 -1.6322
  102OSM    C5S10309   3.397   3.208  10.202 -0.7051  0.2013 -0.0933
  102OSM    H5S10310   3.292   3.231  10.224 -0.1263  1.0648  1.8205
  102OSM    C6S10311   3.429   3.149  10.069  0.2250 -0.2957 -0.0728
  102OSM    H6S10312   3.523   3.089  10.072  0.3786  0.0001  0.9545
  102OSM    H6T10313   3.453   3.226   9.993 -2.2511 -0.1231 -0.7494
  102OSM    C7S10314   3.312   3.070  10.025 -0.8542 -0.2042 -0.5459
  102OSM    H7S10315   3.211   3.115  10.024 -1.2785 -1.0823  1.1680
  102OSM    H7T10316   3.304   2.982  10.092 -3.4663  0.3373 -0.1153
  102OSM    C8S10317   3.326   3.000   9.885  0.5964  0.2914  0.0799
  102OSM    H8S10318   3.232   2.942   9.874  0.3398  0.9622 -1.4115
  102OSM    H8T10319   3.414   2.932   9.879 -0.3788 -0.8817 -1.0578
  102OSM    C9S10320   3.317   3.090   9.765  0.6439  1.2687  0.0943
  102OSM    H9S10321   3.408   3.152   9.755  1.2491  0.5089  0.8117
  102OSM    H9T10322   3.236   3.165   9.774  1.4318  2.0076  1.2443
  102OSM   C10S10323   3.271   3.009   9.637  0.6293 -0.0565  0.0161
  102OSM   H10S10324   3.188   2.942   9.668 -0.7985  0.8290 -1.8179
  102OSM   H10T10325   3.351   2.949   9.589 -0.0393 -0.4274 -0.6479
  102OSM   C11S10326   3.235   3.109   9.524 -0.4253 -0.3062  0.0462
  102OSM   H11S10327   3.322   3.177   9.518  1.0064 -2.0535  0.6131
  102OSM   H11T10328   3.143   3.154   9.568  0.4528 -0.7395  2.4218
  102OSM   C12S10329   3.201   3.036   9.387  0.9032 -0.5431  0.1616
  102OSM   H12S10330   3.129   2.956   9.414  0.0040 -0.8406 -2.9288
  102OSM   H12T10331   3.298   2.992   9.356  0.5527 -0.4866 -1.0462
  102OSM   C13S10332   3.134   3.120   9.279  0.3207  0.2138 -0.0978
  102OSM   H13S10333   3.191   3.214   9.264  0.4716  0.1117 -0.1581
  102OSM   H13T10334   3.035   3.154   9.317  1.0610  0.3890  1.6961
  102OSM   C14S10335   3.123   3.047   9.149 -0.4628  0.7148  0.6349
  102OSM   H14S10336   3.030   2.987   9.162 -0.4524  1.0417  2.2591
  102OSM   H14T10337   3.211   2.981   9.131 -2.6302 -2.1782  0.2379
  102OSM   C15S10338   3.096   3.138   9.027 -0.7336 -0.3806  0.4681
  102OSM   H15S10339   3.116   3.093   8.927 -2.6297 -3.8390  1.5505
  102OSM   H15T10340   3.173   3.217   9.038 -0.6108 -0.6878  2.0033
  102OSM   C16S10341   2.955   3.205   9.030 -0.3157 -0.0321 -0.5053
  102OSM   H16S10342   2.899   3.209   9.126 -0.2747 -1.2365 -0.4154
  102OSM   H16T10343   2.890   3.146   8.961  0.0907 -4.6151  2.7662
  102OSM   C17S10344   2.946   3.342   8.981 -0.0345  0.3776  0.0858
  102OSM   H17S10345   2.928   3.355   8.872 -0.3664  2.7798  0.3926
  102OSM   H17T10346   3.048   3.385   8.991  0.8674 -1.5595 -0.5023
  102OSM   C18S10347   2.860   3.430   9.056 -0.5503  0.3015 -0.3605
  102OSM   H18S10348   2.874   3.533   9.016 -0.2178  0.4785  0.2105
  102OSM   H18T10349   2.866   3.442   9.166  0.7180  3.3155 -0.7040
  102OSM   H18U10350   2.759   3.392   9.028 -0.9799  0.8301  0.4404
  102OSM    C1F10351   3.558   3.639  10.315  0.3072  0.2072  0.2744
  102OSM     OF10352   3.663   3.665  10.369  0.4122 -0.3223 -0.5015
  102OSM    C2F10353   3.502   3.724  10.211  0.4925 -1.1918 -0.0212
  102OSM    H2F10354   3.413   3.773  10.254  0.2574 -2.3751  0.8756
  102OSM    H2G10355   3.476   3.672  10.116  1.0848  0.2206 -0.9713
  102OSM    C3F10356   3.604   3.840  10.185  0.1804  0.1321  0.9990
  102OSM    H3F10357   3.698   3.792  10.151 -0.4238  0.2139 -0.8293
  102OSM    H3G10358   3.628   3.893  10.280  2.7358 -1.0067  1.0377
  102OSM    C4F10359   3.558   3.945  10.081 -0.0749  0.1157 -0.0136
  102OSM    H4F10360   3.546   3.899   9.981 -3.2343  1.5781 -0.3495
  102OSM    H4G10361   3.650   4.007  10.074  0.6949 -1.0318 -0.2798
  102OSM    C5F10362   3.437   4.033  10.117  0.2200  0.1154 -0.5280
  102OSM    H5F10363   3.349   3.966  10.110  0.6896 -0.7029  1.1878
  102OSM    H5G10364   3.419   4.116  10.045 -3.1376  1.1765  1.4559
  102OSM    C6F10365   3.445   4.103  10.258  0.0041 -0.1338 -0.2037
  102OSM    H6F10366   3.543   4.148  10.282 -0.6674  1.3935 -0.2105
  102OSM    H6G10367   3.428   4.033  10.342 -0.7785 -0.9609 -1.0420
  102OSM    C7F10368   3.345   4.222  10.268  0.4016 -0.6218 -0.0795
  102OSM    H7F10369   3.238   4.194  10.280  0.3693 -0.4425  0.0402
  102OSM    H7G10370   3.354   4.266  10.167 -1.2575 -1.3209 -0.5493
  102OSM    C8F10371   3.392   4.327  10.376  0.1448 -1.0095 -0.0582
  102OSM    H8F10372   3.500   4.351  10.362 -0.5943  2.2720 -0.5165
  102OSM    H8G10373   3.379   4.270  10.470  1.1047 -0.4700  0.4082
  102OSM    C9F10374   3.306   4.455  10.370 -0.3725 -0.5541 -0.2791
  102OSM    H9F10375   3.209   4.440  10.420 -0.7958  1.2317 -0.5547
  102OSM   C10F10376   3.348   4.582  10.332 -0.0884 -0.2340 -0.6068
  102OSM   H10F10377   3.270   4.660  10.330  1.0103  0.8583 -1.1846
  102OSM   C11F10378   3.480   4.617  10.275  0.1457 -0.9927  0.3764
  102OSM   H11F10379   3.533   4.527  10.236  0.7581  0.2531 -1.7859
  102OSM   H11G10380   3.551   4.654  10.352  0.1301 -1.0348  0.4113
  102OSM   C12F10381   3.480   4.743  10.179  0.0879  1.1664  0.3592
  102OSM   H12F10382   3.582   4.773  10.151  0.2506  0.6659  0.4025
  102OSM   H12G10383   3.438   4.835  10.225  0.5109  0.8682  1.3601
  102OSM   C13F10384   3.422   4.715  10.044 -1.0622 -0.1265  1.1200
  102OSM   H13F10385   3.322   4.674  10.069 -0.5790 -0.5502  2.3854
  102OSM   H13G10386   3.483   4.642   9.985 -1.2580 -0.5528  1.4419
  102OSM   C14F10387   3.425   4.838   9.947 -0.2693  0.4556 -0.0800
  102OSM   H14F10388   3.523   4.867   9.904 -0.1823  2.4547  1.4105
  102OSM   H14G10389   3.388   4.924  10.007  0.9524  1.3591 -0.6297
  102OSM   C15F10390   3.326   4.810   9.836  0.7078  0.4646 -0.7319
  102OSM   H15F10391   3.221   4.781   9.859  1.0612 -1.2511 -1.2200
  102OSM   H15G10392   3.356   4.730   9.766  0.7507  1.4218 -1.8283
  102OSM   C16F10393   3.307   4.937   9.741 -0.0355  0.9038  0.1235
  102OSM   H16F10394   3.267   4.899   9.644  1.9957  0.7038 -0.6602
  102OSM   H16G10395   3.409   4.978   9.729  0.1061  0.3674 -0.5474
  102OSM   C17F10396   3.208   5.046   9.800 -0.3407  0.4713  0.2016
  102OSM   H17F10397   3.266   5.138   9.827 -2.9871  2.0656  0.6222
  102OSM   H17G10398   3.151   4.997   9.881  1.0305 -2.1963 -0.4090
  102OSM   C18F10399   3.115   5.085   9.690 -0.3673 -0.9392  0.2973
  102OSM   H18F10400   3.045   5.002   9.668 -1.4481 -0.9054  3.4167
  102OSM   H18G10401   3.180   5.112   9.603  0.5278  2.6522  1.9584
  102OSM   H18H10402   3.071   5.180   9.726  0.4820 -0.4041 -0.0379
  103OSM      N10403   5.018   6.348  11.285  1.0915 -0.4880  0.2559
  103OSM    C1510404   4.939   6.472  11.304  0.1688 -0.0534  0.8091
  103OSM   H15A10405   5.000   6.561  11.294 -2.5806  2.2664  3.3927
  103OSM   H15B10406   4.895   6.478  11.403 -2.8688 -3.3602 -0.2176
  103OSM   H15C10407   4.855   6.467  11.235 -0.1969 -0.8257  1.3032
  103OSM    C1410408   5.128   6.331  11.379 -0.1647  0.1114 -0.1287
  103OSM   H14A10409   5.190   6.419  11.387 -1.8373  1.0233  3.7934
  103OSM   H14B10410   5.193   6.250  11.349 -1.6390 -1.8911  1.9472
  103OSM   H14C10411   5.105   6.310  11.482 -3.0431 -4.1998 -1.4875
  103OSM    C1310412   4.922   6.231  11.292  0.0433  0.6891 -0.0125
  103OSM   H13A10413   4.852   6.250  11.372 -1.1238 -1.8634 -0.4003
  103OSM   H13B10414   4.982   6.142  11.302  1.7241  1.5320 -2.1962
  103OSM   H13C10415   4.871   6.230  11.197 -0.4174  1.4352  0.2162
  103OSM    C1210416   5.080   6.339  11.146  0.5897  0.1263 -0.1806
  103OSM   H12A10417   5.137   6.248  11.141  1.6166  0.3719  4.6067
  103OSM   H12B10418   5.152   6.418  11.132 -1.4046  1.6039 -2.4736
  103OSM    C1110419   4.990   6.338  11.019  0.1504  0.2309  0.0112
  103OSM   H11A10420   5.045   6.362  10.925  0.3835  2.8861  0.7850
  103OSM   H11B10421   4.920   6.424  11.027 -0.1114 -0.0681  1.0848
  103OSM      P10422   4.954   6.097  10.945 -0.1697  0.3737  0.0916
  103OSM    O1310423   5.092   6.063  11.003  0.1157 -0.2530  0.3493
  103OSM    O1410424   4.847   5.984  10.954  0.0697  0.1620  0.1228
  103OSM    O1110425   4.969   6.134  10.793  0.0936 -0.1694  0.1520
  103OSM    O1210426   4.899   6.229  11.004  0.0253 -0.1216 -0.4408
  103OSM    C1S10427   4.850   6.146  10.708  0.4851  0.4471  0.3980
  103OSM    H1S10428   4.788   6.232  10.742 -1.6488 -0.8175 -0.2059
  103OSM    H1T10429   4.787   6.055  10.719  0.9929  0.1321  0.7789
  103OSM     NF10430   4.767   6.195  10.485  0.0281  0.0754  0.1265
  103OSM    HNF10431   4.737   6.110  10.442 -0.0136  0.0409  0.2227
  103OSM    C2S10432   4.889   6.165  10.559 -0.2748  0.2348 -0.0404
  103OSM    H2S10433   4.965   6.245  10.557  0.2141 -0.2189  0.2314
  103OSM    C3S10434   4.959   6.032  10.514 -0.8471  0.1453  0.3976
  103OSM    H3S10435   4.888   5.951  10.539 -1.0223  0.2023  0.0893
  103OSM     O310436   5.084   6.002  10.578  0.2272 -0.0307  0.4068
  103OSM    HO310437   5.079   6.065  10.651 -0.4307  1.8277 -1.1970
  103OSM    C4S10438   4.982   6.027  10.367  0.1408  0.2099 -0.3743
  103OSM    H4S10439   4.896   5.980  10.318 -0.0947 -1.6178  1.7282
  103OSM    C5S10440   5.086   6.073  10.297 -0.0245  0.1095 -0.0575
  103OSM    H5S10441   5.162   6.120  10.362 -0.1605  1.2424 -0.7116
  103OSM    C6S10442   5.121   6.072  10.150 -0.4476  0.3206  0.4563
  103OSM    H6S10443   5.225   6.035  10.153 -0.8944 -1.1128 -0.9453
  103OSM    H6T10444   5.121   6.177  10.115 -1.9803 -0.9193 -3.6448
  103OSM    C7S10445   5.034   5.982  10.057 -0.0402  0.0321 -0.5097
  103OSM    H7S10446   4.929   6.019  10.064 -0.6302 -1.7326  0.1408
  103OSM    H7T10447   5.031   5.879  10.097 -1.0341  0.4646  0.5652
  103OSM    C8S10448   5.077   5.986   9.911  0.1705 -0.1342  0.1408
  103OSM    H8S10449   5.078   5.879   9.880  2.1900  0.0499 -0.5495
  103OSM    H8T10450   5.183   6.018   9.904  0.1329  0.4758  1.9958
  103OSM    C9S10451   4.991   6.078   9.822  0.1314 -0.4059 -0.6495
  103OSM    H9S10452   5.003   6.177   9.871 -0.6635 -1.2720  1.4007
  103OSM    H9T10453   4.885   6.050   9.841  0.0921  0.6814  0.9003
  103OSM   C10S10454   5.023   6.089   9.671 -0.3796 -0.9689 -0.2798
  103OSM   H10S10455   5.133   6.086   9.655 -0.3188 -0.8116  0.1167
  103OSM   H10T10456   4.977   6.181   9.628 -1.0584 -0.1645  2.1046
  103OSM   C11S10457   4.957   5.973   9.593 -0.0965  0.5636  0.6115
  103OSM   H11S10458   4.849   5.958   9.617 -0.3111 -0.0912 -0.7101
  103OSM   H11T10459   4.998   5.875   9.625  0.8290  0.7640  0.0430
  103OSM   C12S10460   4.981   5.982   9.441  0.3242  0.2538  0.1159
  103OSM   H12S10461   5.090   5.998   9.423  0.4080  1.0882  1.3183
  103OSM   H12T10462   4.940   6.070   9.386 -1.8608 -1.1774 -0.6026
  103OSM   C13S10463   4.928   5.865   9.363 -0.3861  0.2961  0.1572
  103OSM   H13S10464   4.819   5.861   9.382 -0.7144  0.1944 -1.5877
  103OSM   H13T10465   4.970   5.764   9.381 -2.2949 -1.2435 -3.3922
  103OSM   C14S10466   4.951   5.896   9.208 -0.2197  0.6297 -0.4079
  103OSM   H14S10467   5.060   5.916   9.198  0.0424  0.1487  1.2556
  103OSM   H14T10468   4.900   5.994   9.193 -1.6317  0.3001  2.0242
  103OSM   C15S10469   4.887   5.788   9.121  0.6229 -0.2442 -0.2406
  103OSM   H15S10470   4.787   5.759   9.157 -1.1197  3.3902 -1.8739
  103OSM   H15T10471   4.951   5.698   9.110 -0.1987 -1.1064  1.8547
  103OSM   C16S10472   4.861   5.837   8.975 -0.4999  0.0493  0.6109
  103OSM   H16S10473   4.955   5.878   8.932 -1.1967  1.8228  0.7189
  103OSM   H16T10474   4.793   5.925   8.978  1.0492  1.3692 -0.9973
  103OSM   C17S10475   4.810   5.735   8.878 -0.8731  0.0193  0.1796
  103OSM   H17S10476   4.737   5.670   8.931 -1.5110 -1.0778 -1.9977
  103OSM   H17T10477   4.896   5.682   8.834  1.3159  2.0150  1.9038
  103OSM   C18S10478   4.749   5.788   8.748 -0.3275 -0.4351  0.3671
  103OSM   H18S10479   4.656   5.846   8.766  0.7316  1.3653  0.0667
  103OSM   H18T10480   4.717   5.707   8.678  1.1505 -1.5559  0.9515
  103OSM   H18U10481   4.826   5.850   8.698 -1.2080  0.0911 -0.3480
  103OSM    C1F10482   4.698   6.308  10.512  0.3278  0.6660  0.2081
  103OSM     OF10483   4.758   6.409  10.547  0.6042  0.1011 -0.2118
  103OSM    C2F10484   4.544   6.303  10.517 -0.2433  0.1913  0.0167
  103OSM    H2F10485   4.512   6.381  10.590  0.9305  0.3225  0.4067
  103OSM    H2G10486   4.524   6.198  10.547 -2.7554  1.1408  1.8303
  103OSM    C3F10487   4.480   6.345  10.384 -0.3339  0.1647 -0.6220
  103OSM    H3F10488   4.369   6.344  10.394 -0.2422  2.3716  1.2411
  103OSM    H3G10489   4.509   6.274  10.304 -0.8263 -0.0802 -0.5837
  103OSM    C4F10490   4.507   6.490  10.341  0.4170 -0.1403 -0.0307
  103OSM    H4F10491   4.617   6.505  10.333  0.4269  0.8761  1.7979
  103OSM    H4G10492   4.471   6.556  10.423 -1.7594 -1.7924  0.3930
  103OSM    C5F10493   4.429   6.525  10.208  0.3030  0.1728 -0.4356
  103OSM    H5F10494   4.318   6.523  10.213  0.3722 -0.3827  0.9728
  103OSM    H5G10495   4.453   6.447  10.133  1.2586 -0.0023  0.0439
  103OSM    C6F10496   4.471   6.656  10.153 -0.2034  0.0267 -1.0122
  103OSM    H6F10497   4.581   6.645  10.160 -0.4354 -0.7621  2.3099
  103OSM    H6G10498   4.439   6.748  10.205  2.7574  0.7781 -0.4343
  103OSM    C7F10499   4.432   6.670  10.007 -0.5391  0.4698  0.2144
  103OSM    H7F10500   4.324   6.645   9.994 -0.7669  0.9194  1.1494
  103OSM    H7G10501   4.500   6.597   9.958 -0.5025  1.4170 -1.1730
  103OSM    C8F10502   4.447   6.812   9.952  0.5053 -0.2467 -0.5125
  103OSM    H8F10503   4.528   6.853  10.016 -0.3636 -1.0454  1.1099
  103OSM    H8G10504   4.356   6.869   9.982  0.4888 -0.5396  0.0068
  103OSM    C9F10505   4.459   6.821   9.797  0.0071  1.0362  0.5952
  103OSM    H9F10506   4.518   6.903   9.754 -0.2812  0.0714 -1.7452
  103OSM   C10F10507   4.396   6.740   9.709 -0.2305  0.0198 -0.0146
  103OSM   H10F10508   4.396   6.758   9.600  0.8209 -0.2240 -0.0525
  103OSM   C11F10509   4.306   6.622   9.726 -0.4027  0.8449 -0.0913
  103OSM   H11F10510   4.204   6.662   9.749  0.1257  2.0354  0.2360
  103OSM   H11G10511   4.331   6.554   9.810 -0.3380  1.7920  0.6731
  103OSM   C12F10512   4.304   6.543   9.591  0.1995  0.1681 -0.0106
  103OSM   H12F10513   4.393   6.477   9.578 -0.0294  0.1658 -1.6065
  103OSM   H12G10514   4.307   6.612   9.504 -0.4152  1.5276  1.0282
  103OSM   C13F10515   4.184   6.455   9.575 -0.4482  0.1269 -0.2606
  103OSM   H13F10516   4.203   6.353   9.534 -0.3591  0.2521 -0.5362
  103OSM   H13G10517   4.158   6.437   9.681  0.3584  3.1792  0.4954
  103OSM   C14F10518   4.077   6.521   9.489  0.1717 -0.1073  0.3367
  103OSM   H14F10519   4.062   6.629   9.513  0.1097 -0.0644  0.1062
  103OSM   H14G10520   3.978   6.477   9.513 -0.0081 -0.4695 -1.0143
  103OSM   C15F10521   4.080   6.486   9.339 -0.3583 -0.4092  0.0643
  103OSM   H15F10522   3.976   6.490   9.302  0.2423  3.1197 -1.4779
  103OSM   H15G10523   4.129   6.386   9.333  2.9906  1.1578 -0.0118
  103OSM   C16F10524   4.143   6.588   9.242  0.8160 -0.3295  0.9018
  103OSM   H16F10525   4.250   6.591   9.271  0.5024  0.9942  1.9612
  103OSM   H16G10526   4.094   6.686   9.260 -2.1967 -1.1922 -2.0091
  103OSM   C17F10527   4.140   6.528   9.097  0.3073 -0.3455  0.8665
  103OSM   H17F10528   4.044   6.473   9.105  0.3860 -0.3759  1.6876
  103OSM   H17G10529   4.227   6.461   9.084  0.1695 -0.1194 -1.4937
  103OSM   C18F10530   4.136   6.616   8.968  0.3402 -0.2461  0.0271
  103OSM   H18F10531   4.050   6.684   8.986  0.0872 -0.7961  0.9500
  103OSM   H18G10532   4.108   6.557   8.878  1.0448  0.1134 -0.4211
  103OSM   H18H10533   4.231   6.672   8.956  1.2349 -1.9972 -1.1857
  104OSM      N10534   2.321   5.579  10.816 -0.1856 -0.1523  0.3050
  104OSM    C1510535   2.378   5.557  10.951  0.3334  0.2783  0.8605
  104OSM   H15A10536   2.323   5.478  11.001 -1.0499 -0.0805 -1.1374
  104OSM   H15B10537   2.377   5.651  11.004  1.0933  0.1777  1.0587
  104OSM   H15C10538   2.479   5.520  10.945  0.0349 -0.2452 -1.3545
  104OSM    C1410539   2.182   5.648  10.833  0.2216 -0.2752  0.0453
  104OSM   H14A10540   2.201   5.738  10.890  1.0796  0.2726 -1.0797
  104OSM   H14B10541   2.109   5.583  10.880 -0.6787  0.5200 -0.2380
  104OSM   H14C10542   2.140   5.673  10.737  2.1096 -0.1576 -0.7655
  104OSM    C1310543   2.412   5.668  10.740 -0.2283  0.2662  0.1567
  104OSM   H13A10544   2.369   5.698  10.646 -0.3435 -2.5705 -0.7245
  104OSM   H13B10545   2.503   5.614  10.718 -0.5714 -0.5222  0.6807
  104OSM   H13C10546   2.439   5.761  10.789 -0.4442 -0.3803  1.5103
  104OSM    C1210547   2.309   5.459  10.735  0.4970 -0.7637  0.2085
  104OSM   H12A10548   2.252   5.378  10.778 -1.5056 -0.0512 -0.9876
  104OSM   H12B10549   2.404   5.410  10.725 -0.0472 -2.3514  2.2617
  104OSM    C1110550   2.251   5.476  10.591  0.0494  0.1059 -0.5681
  104OSM   H11A10551   2.280   5.387  10.531  1.5289 -1.7031  2.7154
  104OSM   H11B10552   2.285   5.558  10.524 -0.1709 -1.7424 -3.0493
  104OSM      P10553   2.004   5.398  10.540  0.1692 -0.2957  0.0925
  104OSM    O1310554   2.064   5.261  10.549  0.6812  0.3618  0.3762
  104OSM    O1410555   1.879   5.415  10.618  0.3542 -0.0954 -0.0572
  104OSM    O1110556   1.977   5.452  10.394  0.3669  0.2572  0.3803
  104OSM    O1210557   2.105   5.500  10.590  0.5488 -0.4217 -0.0157
  104OSM    C1S10558   2.048   5.569  10.348  0.7571  0.4457 -0.4899
  104OSM    H1S10559   2.158   5.552  10.347  0.9912  1.9161 -1.1553
  104OSM    H1T10560   2.022   5.659  10.409 -1.2240 -0.2034 -0.3351
  104OSM     NF10561   2.069   5.744  10.166  0.1857  0.0012 -0.3570
  104OSM    HNF10562   1.998   5.813  10.170  0.3741  0.2471 -1.1642
  104OSM    C2S10563   2.014   5.606  10.203 -0.5051 -0.3439  0.0988
  104OSM    H2S10564   2.069   5.536  10.138 -1.2770  1.2105 -2.3101
  104OSM    C3S10565   1.861   5.592  10.163 -0.6411  0.4925 -0.1781
  104OSM    H3S10566   1.810   5.661  10.234  2.2333  1.0681  1.4585
  104OSM     O310567   1.808   5.463  10.194 -0.4971  0.1692 -0.4604
  104OSM    HO310568   1.854   5.445  10.277 -3.1243  0.8698  1.2096
  104OSM    C4S10569   1.835   5.639  10.017  0.0107 -0.6222  0.1710
  104OSM    H4S10570   1.767   5.724  10.001 -0.6233 -1.4851 -1.8652
  104OSM    C5S10571   1.873   5.582   9.902  0.1340 -0.3164  0.4425
  104OSM    H5S10572   1.927   5.486   9.904  0.7616 -0.0119 -1.3973
  104OSM    C6S10573   1.831   5.633   9.766  0.0483  0.0289  0.5330
  104OSM    H6S10574   1.786   5.735   9.772  1.3346  0.7796 -1.9921
  104OSM    H6T10575   1.755   5.573   9.711 -0.3997  2.3217 -1.4833
  104OSM    C7S10576   1.953   5.653   9.683 -0.3462 -0.2505  0.0740
  104OSM    H7S10577   2.015   5.561   9.677  2.4897  1.6455 -0.8655
  104OSM    H7T10578   2.018   5.728   9.734 -1.2480 -0.2426  1.2369
  104OSM    C8S10579   1.914   5.718   9.546 -0.0589 -0.3312 -0.4452
  104OSM    H8S10580   1.857   5.809   9.575  0.6141  0.7191 -2.2780
  104OSM    H8T10581   1.836   5.645   9.517 -0.3442  0.6574 -2.2555
  104OSM    C9S10582   2.027   5.727   9.448  0.2177  0.5862  0.1464
  104OSM    H9S10583   2.076   5.632   9.417  1.3663  1.5957 -1.1890
  104OSM    H9T10584   2.102   5.778   9.510  0.6639  0.4083 -0.2433
  104OSM   C10S10585   1.987   5.815   9.331  0.6237 -0.1033  0.4689
  104OSM   H10S10586   2.073   5.832   9.263 -0.3762  0.6689 -0.6226
  104OSM   H10T10587   1.963   5.918   9.367  0.3714  0.6233 -1.7296
  104OSM   C11S10588   1.878   5.754   9.241 -0.1970 -0.2395  0.4470
  104OSM   H11S10589   1.784   5.751   9.300 -0.6511 -0.2558 -0.2778
  104OSM   H11T10590   1.922   5.655   9.216  1.4321  1.0475 -2.0385
  104OSM   C12S10591   1.858   5.838   9.113  0.0770 -0.2735 -0.4342
  104OSM   H12S10592   1.926   5.802   9.033  0.6147 -0.2749  0.0238
  104OSM   H12T10593   1.852   5.945   9.143 -1.2350 -0.4584  0.0015
  104OSM   C13S10594   1.712   5.811   9.065  0.2732  0.2590  0.4921
  104OSM   H13S10595   1.639   5.860   9.133  2.1221  1.7947  1.4211
  104OSM   H13T10596   1.694   5.703   9.083  1.4723  0.3719  2.5530
  104OSM   C14S10597   1.703   5.842   8.911  0.5701 -0.5319 -0.0141
  104OSM   H14S10598   1.786   5.806   8.847  0.1359 -0.0016 -0.8902
  104OSM   H14T10599   1.702   5.953   8.899 -0.9504 -0.4345  0.8967
  104OSM   C15S10600   1.567   5.783   8.851 -0.2058 -0.0947  0.1198
  104OSM   H15S10601   1.569   5.672   8.859  2.9033 -0.0497  0.7960
  104OSM   H15T10602   1.557   5.799   8.742  1.9631 -0.4081 -0.1514
  104OSM   C16S10603   1.446   5.861   8.900 -0.3210  0.6764 -0.5848
  104OSM   H16S10604   1.451   5.962   8.855  1.8483 -0.3537 -2.7608
  104OSM   H16T10605   1.453   5.884   9.008  0.2485  1.2965 -0.7540
  104OSM   C17S10606   1.310   5.785   8.890  0.0590  0.1834  0.1390
  104OSM   H17S10607   1.304   5.726   8.796  1.0460  0.7079 -0.2489
  104OSM   H17T10608   1.226   5.858   8.887  0.1927  0.2827 -2.6022
  104OSM   C18S10609   1.294   5.688   9.013  0.4692 -0.7774 -0.3238
  104OSM   H18S10610   1.313   5.739   9.110  1.0338 -1.3675 -0.1187
  104OSM   H18T10611   1.381   5.618   9.013  0.2326 -1.0779  0.1777
  104OSM   H18U10612   1.195   5.638   9.017  0.8530 -1.4774  0.8446
  104OSM    C1F10613   2.198   5.768  10.174  0.7430  0.4108  1.3417
  104OSM     OF10614   2.283   5.685  10.203 -0.2255  0.0280 -0.5044
  104OSM    C2F10615   2.240   5.911  10.163  0.2127  0.3961  0.1367
  104OSM    H2F10616   2.350   5.898  10.169 -0.0254 -2.2102 -0.6300
  104OSM    H2G10617   2.207   5.972  10.250  0.2628 -0.4590  0.7582
  104OSM    C3F10618   2.173   5.977  10.046 -0.7588  0.3342 -0.1423
  104OSM    H3F10619   2.190   6.087  10.049 -0.7697  0.3449 -0.4520
  104OSM    H3G10620   2.064   5.960  10.040 -0.6420  0.0811 -1.7903
  104OSM    C4F10621   2.234   5.930   9.910 -0.0598 -0.5972 -0.9965
  104OSM    H4F10622   2.221   5.821   9.895 -0.1380 -0.5804 -1.0542
  104OSM    H4G10623   2.339   5.965   9.901 -0.2636  0.7446  1.3589
  104OSM    C5F10624   2.158   6.001   9.794  0.0974  0.2489  0.3168
  104OSM    H5F10625   2.134   6.106   9.821  0.1511  0.6929 -1.3530
  104OSM    H5G10626   2.054   5.960   9.791  1.1251 -2.3543 -2.0984
  104OSM    C6F10627   2.237   6.005   9.657 -0.2977  0.2182 -0.0625
  104OSM    H6F10628   2.250   5.901   9.620 -0.3784  0.2926 -0.2992
  104OSM    H6G10629   2.340   6.047   9.660 -0.0260 -0.3477 -1.0908
  104OSM    C7F10630   2.178   6.088   9.551  0.3401 -0.9115 -0.5844
  104OSM    H7F10631   2.170   6.189   9.597  1.8941 -1.7242  1.5565
  104OSM    H7G10632   2.078   6.044   9.528 -0.2350 -1.5180  2.7256
  104OSM    C8F10633   2.268   6.096   9.426 -0.4254  0.0476  0.0369
  104OSM    H8F10634   2.256   5.996   9.378 -0.3472  0.3162 -0.5530
  104OSM    H8G10635   2.375   6.103   9.455 -0.5342  2.5272 -0.0494
  104OSM    C9F10636   2.223   6.215   9.341 -0.5235  0.2197  0.5334
  104OSM    H9F10637   2.114   6.229   9.340 -0.4441  0.9071 -1.5398
  104OSM   C10F10638   2.300   6.295   9.258 -0.3625  0.2674  0.1339
  104OSM   H10F10639   2.250   6.383   9.215  1.9393  0.1887 -2.8642
  104OSM   C11F10640   2.450   6.276   9.223 -0.2654 -0.8489 -0.6390
  104OSM   H11F10641   2.479   6.172   9.200  1.3079 -0.4121 -0.6531
  104OSM   H11G10642   2.520   6.315   9.299 -2.9957  0.8350  1.1019
  104OSM   C12F10643   2.476   6.337   9.086 -0.5331 -0.3074 -1.0550
  104OSM   H12F10644   2.579   6.355   9.049  0.1844  1.9708  1.8442
  104OSM   H12G10645   2.441   6.443   9.091 -1.3627 -0.5908 -0.6699
  104OSM   C13F10646   2.399   6.280   8.971 -0.3182  0.3230  0.7256
  104OSM   H13F10647   2.296   6.322   8.965  0.0729  1.0002 -1.7420
  104OSM   H13G10648   2.381   6.171   8.977 -3.2983  0.8348  1.7244
  104OSM   C14F10649   2.468   6.298   8.834 -0.2230  0.4115 -0.2655
  104OSM   H14F10650   2.413   6.244   8.754  0.9459  1.7844 -2.0167
  104OSM   H14G10651   2.569   6.257   8.851 -0.2817  1.3755  2.7923
  104OSM   C15F10652   2.488   6.449   8.802 -0.1910 -0.3693 -0.0069
  104OSM   H15F10653   2.557   6.498   8.874 -0.0804  0.3334 -0.5784
  104OSM   H15G10654   2.395   6.494   8.842 -0.8264 -0.4538 -1.3441
  104OSM   C16F10655   2.527   6.478   8.654  0.4393  0.5120  0.0573
  104OSM   H16F10656   2.510   6.587   8.641 -0.7885  0.4694  1.2332
  104OSM   H16G10657   2.454   6.425   8.589  0.7828 -1.5793  1.3395
  104OSM   C17F10658   2.667   6.417   8.612 -0.2918  0.9763 -0.1470
  104OSM   H17F10659   2.668   6.312   8.648  0.3626  0.8053 -0.6507
  104OSM   H17G10660   2.733   6.486   8.670 -0.9025  0.9641  0.5698
  104OSM   C18F10661   2.704   6.433   8.467 -0.3034  0.2531 -0.7634
  104OSM   H18F10662   2.625   6.392   8.400 -1.3473  1.1617 -0.1056
  104OSM   H18G10663   2.796   6.373   8.450  0.1495  0.9375 -0.7280
  104OSM   H18H10664   2.719   6.540   8.441  0.7884  0.2086 -0.3526
  105OSM      N10665   1.218   4.969  10.637 -0.1752 -0.1073  0.5168
  105OSM    C1510666   1.293   4.966  10.763 -0.1083 -0.4255  0.7778
  105OSM   H15A10667   1.293   5.059  10.817  1.8673  0.3575 -0.5109
  105OSM   H15B10668   1.396   4.939  10.749 -0.4738 -0.9886 -0.9960
  105OSM   H15C10669   1.249   4.891  10.828  3.3977 -1.3670  2.1416
  105OSM    C1410670   1.270   4.861  10.547 -0.4006  0.2141 -0.9801
  105OSM   H14A10671   1.377   4.869  10.528 -0.0518  1.1503  1.2762
  105OSM   H14B10672   1.225   4.871  10.449  0.3885  1.1827 -1.2536
  105OSM   H14C10673   1.239   4.764  10.583  0.4622  1.1867  2.5629
  105OSM    C1310674   1.072   4.946  10.660  0.1369  0.3352  0.2906
  105OSM   H13A10675   1.009   4.953  10.572 -0.6077  2.2738  0.9533
  105OSM   H13B10676   1.026   5.026  10.717 -1.5639  0.4557 -1.1860
  105OSM   H13C10677   1.053   4.850  10.706  1.1689  0.7343  1.5721
  105OSM    C1210678   1.250   5.103  10.569  0.3349  0.0809  0.0625
  105OSM   H12A10679   1.193   5.107  10.478  0.0934 -0.7431  0.1808
  105OSM   H12B10680   1.355   5.115  10.549  0.5317  0.7664  1.4231
  105OSM    C1110681   1.217   5.237  10.644 -0.1430 -0.3749 -0.9142
  105OSM   H11A10682   1.114   5.232  10.686 -0.3744  0.3749 -1.3921
  105OSM   H11B10683   1.208   5.322  10.574  0.2842  1.3625  1.0815
  105OSM      P10684   1.461   5.323  10.712  0.0872 -0.0852 -0.4964
  105OSM    O1310685   1.486   5.472  10.714 -0.3426 -0.0899 -0.6425
  105OSM    O1410686   1.541   5.239  10.804  0.0769 -0.0948 -0.2274
  105OSM    O1110687   1.477   5.274  10.561 -0.3102 -0.5044 -0.2530
  105OSM    O1210688   1.318   5.283  10.741  0.3285  0.2537 -0.2576
  105OSM    C1S10689   1.601   5.274  10.499  0.0868  0.6517 -0.3598
  105OSM    H1S10690   1.671   5.198  10.541 -1.1465 -0.0581  0.4411
  105OSM    H1T10691   1.650   5.373  10.501  0.1676  0.6052  0.1128
  105OSM     NF10692   1.705   5.229  10.288  0.3171 -0.0857 -0.5321
  105OSM    HNF10693   1.745   5.313  10.254  0.1970 -0.5892 -1.9365
  105OSM    C2S10694   1.570   5.242  10.350 -0.0702 -0.1767  0.2122
  105OSM    H2S10695   1.517   5.145  10.350  2.2515 -1.4858 -0.7105
  105OSM    C3S10696   1.485   5.349  10.277 -0.4797  0.9137 -1.0484
  105OSM    H3S10697   1.536   5.448  10.271  0.9824  0.2324 -0.0193
  105OSM     O310698   1.361   5.380  10.343  0.7273 -0.2192 -0.5895
  105OSM    HO310699   1.372   5.340  10.429 -0.3541  2.8747  1.0555
  105OSM    C4S10700   1.460   5.291  10.142  0.0983  0.1729  0.3329
  105OSM    H4S10701   1.386   5.209  10.137  1.2517 -0.8566 -0.1342
  105OSM    C5S10702   1.513   5.352  10.033  0.1410  0.4579  0.6739
  105OSM    H5S10703   1.571   5.445  10.044 -0.6772  1.0613 -0.1193
  105OSM    C6S10704   1.482   5.307   9.893  0.4148  0.5957  0.2730
  105OSM    H6S10705   1.375   5.287   9.872  0.7620  1.0988 -2.1272
  105OSM    H6T10706   1.539   5.213   9.878 -2.3222 -0.8402 -1.5159
  105OSM    C7S10707   1.534   5.414   9.805  0.0588 -0.1409  0.2728
  105OSM    H7S10708   1.645   5.418   9.814  0.0080 -0.9233  1.3149
  105OSM    H7T10709   1.497   5.513   9.840  0.4434 -0.5696  1.9654
  105OSM    C8S10710   1.476   5.400   9.660  0.8192  0.1963 -0.5202
  105OSM    H8S10711   1.367   5.389   9.675  0.4880  4.1979  0.3941
  105OSM    H8T10712   1.513   5.308   9.608  0.4515 -0.6459  0.6871
  105OSM    C9S10713   1.515   5.520   9.561 -0.4263  1.0821  0.2695
  105OSM    H9S10714   1.625   5.530   9.550 -0.5400  1.1604 -0.8679
  105OSM    H9T10715   1.471   5.611   9.608 -1.5685  0.8535 -0.3477
  105OSM   C10S10716   1.453   5.503   9.423 -0.0409  0.0186  0.3700
  105OSM   H10S10717   1.455   5.606   9.383  0.8967  0.6371  1.9426
  105OSM   H10T10718   1.348   5.466   9.422 -0.0262 -0.0194  0.1864
  105OSM   C11S10719   1.529   5.400   9.335  0.6211  0.2648 -0.2182
  105OSM   H11S10720   1.508   5.300   9.378 -1.1554  0.8098  0.2310
  105OSM   H11T10721   1.636   5.423   9.353  0.2336  1.3370  0.8282
  105OSM   C12S10722   1.501   5.421   9.187 -0.1177  0.3203 -0.1763
  105OSM   H12S10723   1.512   5.529   9.166  0.0769  0.6578  1.5970
  105OSM   H12T10724   1.396   5.398   9.161  0.4203  0.4712 -2.5773
  105OSM   C13S10725   1.597   5.331   9.110 -0.0499 -0.0176 -0.7796
  105OSM   H13S10726   1.589   5.226   9.146 -2.7008  0.3073 -0.2834
  105OSM   H13T10727   1.699   5.372   9.125  1.3547 -3.1381 -1.4069
  105OSM   C14S10728   1.556   5.322   8.962 -0.6443  0.2169 -1.0600
  105OSM   H14S10729   1.528   5.424   8.928  1.0249  1.4054  1.0199
  105OSM   H14T10730   1.466   5.257   8.958 -1.8613  1.8252 -0.2344
  105OSM   C15S10731   1.661   5.268   8.866  0.0256 -0.0760 -0.7573
  105OSM   H15S10732   1.715   5.180   8.907  0.5670  0.0203 -1.2533
  105OSM   H15T10733   1.744   5.342   8.860  0.7823 -0.9309 -0.9737
  105OSM   C16S10734   1.594   5.250   8.732  0.4629 -0.4579 -0.3176
  105OSM   H16S10735   1.549   5.346   8.698 -0.5472  0.6641  3.9229
  105OSM   H16T10736   1.498   5.195   8.737  1.5779 -2.4607 -0.6073
  105OSM   C17S10737   1.683   5.205   8.614 -1.0841 -0.4439 -0.3209
  105OSM   H17S10738   1.767   5.278   8.604 -0.4832 -0.9932  0.6121
  105OSM   H17T10739   1.628   5.199   8.518 -1.7159  0.6624 -0.0353
  105OSM   C18S10740   1.746   5.065   8.632  1.3867  0.1901  0.0492
  105OSM   H18S10741   1.680   4.984   8.595  0.9179  1.4343 -1.9017
  105OSM   H18T10742   1.752   5.052   8.742 -0.5919 -0.2037  0.1185
  105OSM   H18U10743   1.847   5.064   8.586  0.3564 -1.7578 -2.2738
  105OSM    C1F10744   1.786   5.122  10.302 -1.0170  0.4469 -0.1845
  105OSM     OF10745   1.752   5.010  10.344 -0.2411  0.6375  0.5233
  105OSM    C2F10746   1.924   5.141  10.256 -0.0111  0.2338  0.2790
  105OSM    H2F10747   1.978   5.106  10.347 -0.6145 -0.6543  0.2903
  105OSM    H2G10748   1.943   5.251  10.249 -1.6929  0.4041 -2.3934
  105OSM    C3F10749   1.963   5.037  10.145  0.3903 -0.6311  0.7411
  105OSM    H3F10750   1.937   4.934  10.175 -0.7004 -0.5295  0.1773
  105OSM    H3G10751   2.073   5.044  10.144  0.3162  0.7062 -0.5252
  105OSM    C4F10752   1.894   5.049  10.010  0.1129  0.3455  0.0091
  105OSM    H4F10753   1.784   5.062  10.018  0.0783  0.3365 -0.4270
  105OSM    H4G10754   1.907   4.945   9.972 -1.3056  0.3474 -0.5224
  105OSM    C5F10755   1.952   5.149   9.914 -0.1502  0.0816  0.0436
  105OSM    H5F10756   2.063   5.161   9.907 -0.2752  1.0316 -0.3770
  105OSM    H5G10757   1.916   5.247   9.951  3.1072  1.5087 -0.3877
  105OSM    C6F10758   1.882   5.136   9.784  0.6599  0.5538  0.7607
  105OSM    H6F10759   1.775   5.155   9.808 -0.2416 -3.3891  0.2886
  105OSM    H6G10760   1.886   5.029   9.755  1.6259  1.1014 -1.2176
  105OSM    C7F10761   1.936   5.229   9.677  0.7739 -0.0260 -0.2568
  105OSM    H7F10762   2.028   5.181   9.636  0.9706 -1.2168  1.5285
  105OSM    H7G10763   1.963   5.324   9.728 -1.6130 -0.6069  2.1851
  105OSM    C8F10764   1.827   5.264   9.568  0.8536  0.0824  0.5384
  105OSM    H8F10765   1.747   5.318   9.623 -0.5160 -0.6197 -0.7282
  105OSM    H8G10766   1.796   5.169   9.521 -0.1967  1.6039 -1.9467
  105OSM    C9F10767   1.894   5.355   9.464 -0.2103 -0.2476  0.3674
  105OSM    H9F10768   1.914   5.460   9.490  0.4957 -0.2510 -0.1576
  105OSM   C10F10769   1.925   5.324   9.337  0.4805  0.4833  0.5669
  105OSM   H10F10770   1.994   5.381   9.274 -0.0903  3.0633  2.2144
  105OSM   C11F10771   1.913   5.185   9.276  0.1486  0.7285  0.1045
  105OSM   H11F10772   1.808   5.162   9.251  0.4908 -1.0760  0.2318
  105OSM   H11G10773   1.947   5.105   9.345 -0.0595  0.0488 -0.5781
  105OSM   C12F10774   1.998   5.165   9.147 -0.1387 -0.0284 -0.1274
  105OSM   H12F10775   2.107   5.184   9.158  0.5215 -2.8050 -1.4068
  105OSM   H12G10776   1.956   5.246   9.085 -1.5212 -0.2206  0.5345
  105OSM   C13F10777   1.968   5.037   9.062 -0.1285 -0.8347  0.6868
  105OSM   H13F10778   1.862   5.010   9.044 -0.5589  0.5357  1.1870
  105OSM   H13G10779   2.022   4.949   9.105  0.3753 -0.1078  1.5468
  105OSM   C14F10780   2.026   5.051   8.920 -0.1199  0.4066  0.2623
  105OSM   H14F10781   2.117   5.115   8.923  1.4559 -1.7088 -0.8709
  105OSM   H14G10782   1.954   5.106   8.856  0.0722  1.5807  1.0372
  105OSM   C15F10783   2.072   4.922   8.849  0.3439 -0.3281  0.4006
  105OSM   H15F10784   1.992   4.846   8.857  1.2167 -1.2602  0.3014
  105OSM   H15G10785   2.154   4.874   8.908  1.7983  2.1739  0.5103
  105OSM   C16F10786   2.125   4.949   8.713 -0.0314 -0.0846 -0.4031
  105OSM   H16F10787   2.220   5.005   8.702 -1.2036  2.3462  1.4054
  105OSM   H16G10788   2.045   5.000   8.656 -0.9838 -0.9889  0.1112
  105OSM   C17F10789   2.132   4.813   8.638  0.6946 -0.1837  0.1245
  105OSM   H17F10790   2.193   4.733   8.687  0.3483  0.3133  1.3962
  105OSM   H17G10791   2.190   4.833   8.546  1.5990  1.3049  0.9983
  105OSM   C18F10792   2.009   4.737   8.596 -0.1159 -0.2258 -0.2290
  105OSM   H18F10793   1.949   4.699   8.681 -1.3333 -1.0652 -1.4384
  105OSM   H18G10794   2.035   4.648   8.535  1.1232  0.6982 -1.0637
  105OSM   H18H10795   1.934   4.792   8.535 -2.3712 -1.5896  1.2223
  106OSM      N10796   2.732   3.712  10.770  1.1359  0.0188  0.6549
  106OSM    C1510797   2.695   3.706  10.913 -0.2273  0.0751 -0.2645
  106OSM   H15A10798   2.598   3.660  10.924  0.6176 -1.6143  0.2762
  106OSM   H15B10799   2.694   3.809  10.944 -1.8161 -0.0725  0.2522
  106OSM   H15C10800   2.778   3.655  10.959 -0.5209 -0.4819 -0.3494
  106OSM    C1410801   2.609   3.773  10.692 -0.8206 -0.4153  0.1992
  106OSM   H14A10802   2.625   3.761  10.586 -2.1857 -3.3113  0.2784
  106OSM   H14B10803   2.594   3.878  10.713  2.5062  0.0753  0.4047
  106OSM   H14C10804   2.522   3.713  10.714 -1.7986  1.5674  1.9119
  106OSM    C1310805   2.857   3.782  10.730 -0.2394  0.8227 -0.2150
  106OSM   H13A10806   2.841   3.819  10.629 -0.8055  2.2342  0.3822
  106OSM   H13B10807   2.945   3.721  10.742 -0.2305  0.6324 -1.1668
  106OSM   H13C10808   2.871   3.871  10.790 -1.1927 -1.2021  3.1061
  106OSM    C1210809   2.737   3.562  10.725  0.2506  0.4141 -0.8439
  106OSM   H12A10810   2.742   3.559  10.617  0.7687  0.0427 -0.8122
  106OSM   H12B10811   2.642   3.515  10.746  1.8575 -1.9651  1.4234
  106OSM    C1110812   2.849   3.466  10.788  0.0100  0.4484  0.7833
  106OSM   H11A10813   2.840   3.370  10.731 -0.2767  1.7486 -1.4389
  106OSM   H11B10814   2.812   3.455  10.892 -3.5589 -0.9114 -0.5351
  106OSM      P10815   3.062   3.494  10.652  0.1946 -0.1908 -0.1424
  106OSM    O1310816   3.118   3.623  10.608 -0.1893 -0.1484 -0.1167
  106OSM    O1410817   3.154   3.378  10.668 -0.0797 -0.4608  0.3387
  106OSM    O1110818   2.945   3.461  10.547 -0.4306  0.0194  0.2455
  106OSM    O1210819   2.978   3.522  10.774  0.2003 -0.2122 -0.0161
  106OSM    C1S10820   2.985   3.495  10.408  0.7564 -0.8099  0.1552
  106OSM    H1S10821   3.069   3.565  10.387 -0.8310  0.8811 -0.7461
  106OSM    H1T10822   2.901   3.557  10.368  1.3886 -0.0457 -0.0065
  106OSM     NF10823   3.044   3.400  10.172 -0.3908  0.0569 -0.1089
  106OSM    HNF10824   2.983   3.369  10.100  0.4364 -0.1969 -0.7120
  106OSM    C2S10825   3.006   3.372  10.311  0.0470 -0.0696  0.4242
  106OSM    H2S10826   3.092   3.313  10.351  0.0952 -0.6383 -0.5094
  106OSM    C3S10827   2.879   3.279  10.312  1.3764 -0.0174 -0.7695
  106OSM    H3S10828   2.810   3.355  10.270  0.7925  0.4595  0.9798
  106OSM     O310829   2.814   3.257  10.437 -0.1568 -0.6972 -0.1245
  106OSM    HO310830   2.863   3.320  10.492  1.6054 -1.1226 -1.1585
  106OSM    C4S10831   2.894   3.154  10.249  0.6469  0.2382 -0.2601
  106OSM    H4S10832   2.981   3.092  10.272 -0.1992 -1.1537 -0.7532
  106OSM    C5S10833   2.795   3.106  10.167  0.3389  0.0370  0.3790
  106OSM    H5S10834   2.704   3.168  10.163 -0.6574 -1.2879  1.8966
  106OSM    C6S10835   2.789   2.987  10.085  0.0252  0.2793  0.2897
  106OSM    H6S10836   2.717   2.913  10.126  0.4209  0.9442  2.2102
  106OSM    H6T10837   2.890   2.941  10.077 -0.3346 -0.5117  0.2546
  106OSM    C7S10838   2.751   3.012   9.947  0.0341 -0.4652  0.8514
  106OSM    H7S10839   2.647   3.043   9.925  0.5386  0.4913 -0.2753
  106OSM    H7T10840   2.761   2.914   9.895  0.3567  1.3574 -2.7190
  106OSM    C8S10841   2.858   3.095   9.861  0.8344 -0.5624 -0.1450
  106OSM    H8S10842   2.953   3.051   9.897  1.7108  1.3249 -0.1017
  106OSM    H8T10843   2.852   3.204   9.883 -1.6427 -0.7749  0.3784
  106OSM    C9S10844   2.852   3.078   9.708 -1.2456 -0.7254  0.2416
  106OSM    H9S10845   2.887   2.973   9.695  1.7069  0.1688  0.5055
  106OSM    H9T10846   2.939   3.136   9.669  1.5245 -2.6838  3.1988
  106OSM   C10S10847   2.730   3.108   9.628 -0.0501  0.5450  0.6433
  106OSM   H10S10848   2.688   3.208   9.654 -0.4976  0.6093 -0.2955
  106OSM   H10T10849   2.656   3.033   9.662  0.3508  0.1734  0.6914
  106OSM   C11S10850   2.755   3.114   9.478 -0.0771  0.3212 -0.1306
  106OSM   H11S10851   2.847   3.068   9.436  1.3973  2.0421  1.1321
  106OSM   H11T10852   2.760   3.220   9.447 -0.6962  1.0434  2.1198
  106OSM   C12S10853   2.643   3.037   9.398 -0.5359 -0.1995  0.2653
  106OSM   H12S10854   2.544   3.079   9.427 -1.4319 -1.9682 -0.2120
  106OSM   H12T10855   2.643   2.933   9.436 -1.0881 -0.9125 -1.6441
  106OSM   C13S10856   2.647   3.059   9.238 -0.0552 -0.3994  0.5506
  106OSM   H13S10857   2.746   3.016   9.212  0.2842  1.6365 -1.7755
  106OSM   H13T10858   2.663   3.167   9.216  0.4488 -0.5271  0.2902
  106OSM   C14S10859   2.521   2.997   9.166  0.9350 -0.2891  0.3194
  106OSM   H14S10860   2.436   3.031   9.229 -0.1044 -0.6529 -0.8625
  106OSM   H14T10861   2.528   2.886   9.172  1.7913 -0.1913  1.2218
  106OSM   C15S10862   2.510   3.052   9.020  0.4225 -0.2468 -0.6125
  106OSM   H15S10863   2.583   2.994   8.959 -0.9447 -1.7865 -0.8287
  106OSM   H15T10864   2.535   3.160   9.027  0.9829 -0.4402  0.4547
  106OSM   C16S10865   2.370   3.030   8.961  0.2108 -0.1533 -0.0800
  106OSM   H16S10866   2.294   3.077   9.027  0.6195 -1.5409  1.4129
  106OSM   H16T10867   2.351   2.922   8.974  1.4482 -0.6596 -2.1397
  106OSM   C17S10868   2.350   3.062   8.815 -0.2930 -0.4113 -0.6753
  106OSM   H17S10869   2.380   3.167   8.796  0.9939 -0.2364  2.0945
  106OSM   H17T10870   2.242   3.048   8.793 -0.0126 -1.3963 -1.4839
  106OSM   C18S10871   2.432   2.992   8.715 -1.1506  0.0871  0.1420
  106OSM   H18S10872   2.536   3.011   8.752 -1.3473 -0.9967  1.3004
  106OSM   H18T10873   2.414   3.037   8.616 -1.3762 -0.0381  0.1244
  106OSM   H18U10874   2.411   2.883   8.708  0.2291 -0.2049  0.2279
  106OSM    C1F10875   3.151   3.468  10.125  0.4078 -0.1561  0.6260
  106OSM     OF10876   3.246   3.519  10.195  0.6817  1.0881 -0.1440
  106OSM    C2F10877   3.159   3.473   9.980 -0.0586 -0.3228 -0.4407
  106OSM    H2F10878   3.064   3.459   9.924 -0.2507  0.3477 -0.2883
  106OSM    H2G10879   3.226   3.389   9.950  0.1754 -0.2605 -0.0956
  106OSM    C3F10880   3.246   3.590   9.930 -0.1925  0.3053 -0.1961
  106OSM    H3F10881   3.354   3.571   9.947 -0.1852  0.7983  0.3052
  106OSM    H3G10882   3.216   3.690   9.967  1.2680  0.8114 -0.3528
  106OSM    C4F10883   3.241   3.599   9.775  0.2058  0.5787  1.1292
  106OSM    H4F10884   3.135   3.618   9.748  0.6840 -1.2899 -2.2898
  106OSM    H4G10885   3.282   3.510   9.722 -0.9029  0.2226  0.8657
  106OSM    C5F10886   3.323   3.723   9.728 -0.0570  0.6125  0.2899
  106OSM    H5F10887   3.427   3.688   9.710 -0.8793 -0.7085 -1.9667
  106OSM    H5G10888   3.313   3.807   9.801  1.0673  0.4998  0.5880
  106OSM    C6F10889   3.258   3.775   9.594  0.2486 -0.4426 -0.0285
  106OSM    H6F10890   3.156   3.812   9.616  0.4632 -0.2497  0.6401
  106OSM    H6G10891   3.247   3.687   9.527  2.8252 -1.3594  0.6777
  106OSM    C7F10892   3.345   3.891   9.541 -0.6334 -1.0475 -0.0035
  106OSM    H7F10893   3.324   3.914   9.434 -0.4321  3.0484  0.7766
  106OSM    H7G10894   3.454   3.867   9.548 -0.0802  0.8845 -1.5898
  106OSM    C8F10895   3.318   4.022   9.617 -0.7271 -0.9852  0.3934
  106OSM    H8F10896   3.354   4.006   9.721 -1.8246 -2.8806  0.4877
  106OSM    H8G10897   3.209   4.042   9.620 -0.7947 -0.7854 -2.1812
  106OSM    C9F10898   3.383   4.148   9.567  0.8347  0.0601  0.6183
  106OSM    H9F10899   3.477   4.185   9.611  0.6550  1.0472  0.2020
  106OSM   C10F10900   3.337   4.229   9.465  0.2546  0.7382  0.6995
  106OSM   H10F10901   3.405   4.311   9.439 -0.3177  1.6838  2.0869
  106OSM   C11F10902   3.215   4.198   9.377  0.1002 -0.4060 -0.7154
  106OSM   H11F10903   3.151   4.289   9.376  2.3736  1.3125  1.4091
  106OSM   H11G10904   3.159   4.111   9.415  1.7896 -1.0297  0.4308
  106OSM   C12F10905   3.265   4.163   9.234  0.7962 -0.1726  0.6831
  106OSM   H12F10906   3.184   4.109   9.182  0.1235  3.0009 -1.6775
  106OSM   H12G10907   3.352   4.094   9.225 -0.2195 -1.4955  0.9303
  106OSM   C13F10908   3.282   4.292   9.150  0.5941 -0.1754  0.6812
  106OSM   H13F10909   3.356   4.355   9.203  0.2083  1.9045 -1.1596
  106OSM   H13G10910   3.190   4.355   9.145 -0.2994 -1.4113  1.3911
  106OSM   C14F10911   3.336   4.264   9.004  0.2452  0.2235 -1.0096
  106OSM   H14F10912   3.436   4.215   9.006 -0.2529 -0.7559  0.7961
  106OSM   H14G10913   3.344   4.365   8.959 -2.2423  2.3076  2.9381
  106OSM   C15F10914   3.237   4.186   8.913  0.0099  0.2507  1.0413
  106OSM   H15F10915   3.137   4.222   8.945 -1.0424  1.2960 -3.1517
  106OSM   H15G10916   3.246   4.078   8.940 -0.4793 -0.0693 -0.0215
  106OSM   C16F10917   3.265   4.205   8.763 -0.4413  0.2767 -0.1080
  106OSM   H16F10918   3.183   4.155   8.707  0.5810  0.5299 -1.8505
  106OSM   H16G10919   3.361   4.157   8.735 -1.5748 -1.4278 -1.1614
  106OSM   C17F10920   3.261   4.351   8.706  0.3628  0.4384 -0.1423
  106OSM   H17F10921   3.301   4.339   8.603 -0.7962 -1.2956 -0.4137
  106OSM   H17G10922   3.314   4.418   8.777  0.3329 -1.5428  1.8328
  106OSM   C18F10923   3.118   4.397   8.692 -0.0603 -0.1987 -0.0528
  106OSM   H18F10924   3.054   4.332   8.628  0.5268 -0.2915 -0.5584
  106OSM   H18G10925   3.114   4.498   8.646 -0.6416  0.5691  1.6502
  106OSM   H18H10926   3.081   4.401   8.796  1.0624 -2.6373  0.4760
  107OSM      N10927   3.982   1.225  11.172  0.9643  0.4330  0.2164
  107OSM    C1510928   3.909   1.096  11.159  1.4441  0.5270 -0.5079
  107OSM   H15A10929   3.904   1.060  11.057  2.5361  2.4735 -1.2855
  107OSM   H15B10930   3.809   1.105  11.199  0.8682 -0.2367 -1.7487
  107OSM   H15C10931   3.956   1.020  11.220 -0.2770 -0.4660 -0.3983
  107OSM    C1410932   3.954   1.286  11.305  0.2088 -0.2451 -0.0781
  107OSM   H14A10933   3.949   1.216  11.387  0.7941  0.4279  0.5287
  107OSM   H14B10934   3.851   1.318  11.301  0.2898 -0.2472 -3.0101
  107OSM   H14C10935   4.018   1.371  11.321  0.6537 -0.1957 -1.9537
  107OSM    C1310936   4.127   1.199  11.146  0.6718 -0.2226 -0.1336
  107OSM   H13A10937   4.167   1.124  11.212  3.8115  1.0243 -0.5502
  107OSM   H13B10938   4.186   1.286  11.171 -0.1151  0.4775 -0.6733
  107OSM   H13C10939   4.143   1.169  11.044 -2.0740  1.7170 -1.1997
  107OSM    C1210940   3.942   1.323  11.069  1.0528  0.3016  0.0067
  107OSM   H12A10941   3.986   1.420  11.083  0.9811 -0.0593  3.1490
  107OSM   H12B10942   3.838   1.345  11.092  1.5702 -0.1763  2.9579
  107OSM    C1110943   3.948   1.280  10.922 -0.2894  0.2707 -0.1848
  107OSM   H11A10944   4.052   1.277  10.884 -0.0485  1.6938  0.3416
  107OSM   H11B10945   3.899   1.366  10.871  1.0400  1.1488  0.0020
  107OSM      P10946   3.721   1.150  10.876 -0.3104  0.6366 -0.0243
  107OSM    O1310947   3.656   1.025  10.925 -0.5245 -0.6918 -0.1838
  107OSM    O1410948   3.671   1.276  10.937 -0.4228 -0.5085 -0.3707
  107OSM    O1110949   3.711   1.159  10.715 -0.9082  0.2051  0.1819
  107OSM    O1210950   3.881   1.154  10.890  0.2036 -0.2514 -0.0492
  107OSM    C1S10951   3.788   1.055  10.641 -0.7070 -0.7597 -0.4214
  107OSM    H1S10952   3.737   0.957  10.654 -1.0199 -0.5517 -0.0569
  107OSM    H1T10953   3.895   1.040  10.667 -0.0734  2.7721 -0.8042
  107OSM     NF10954   3.836   0.989  10.396 -0.2589  0.0774 -0.1464
  107OSM    HNF10955   3.923   0.994  10.348 -1.2137  0.9303 -1.8089
  107OSM    C2S10956   3.799   1.102  10.490 -0.4956 -1.3977 -0.4026
  107OSM    H2S10957   3.699   1.132  10.452 -0.9170  1.8998  3.1195
  107OSM    C3S10958   3.895   1.225  10.478  0.1291 -0.5925  0.7383
  107OSM    H3S10959   3.999   1.191  10.497 -0.0703 -3.0040 -2.1711
  107OSM     O310960   3.864   1.331  10.569  0.4075  0.1491  0.4854
  107OSM    HO310961   3.811   1.278  10.629 -0.1333  0.4363  0.2593
  107OSM    C4S10962   3.883   1.287  10.337  0.3850  0.5620 -0.5445
  107OSM    H4S10963   3.789   1.339  10.310 -0.0563 -0.6445 -1.3414
  107OSM    C5S10964   3.981   1.290  10.250  0.7842  0.2520  0.4834
  107OSM    H5S10965   4.083   1.252  10.270  0.0850 -1.8146  0.3138
  107OSM    C6S10966   3.976   1.347  10.111  0.1702  0.0506 -0.2497
  107OSM    H6S10967   4.071   1.394  10.076 -0.3017  0.0429 -1.6030
  107OSM    H6T10968   3.893   1.422  10.100  0.1581 -0.1744 -1.9669
  107OSM    C7S10969   3.931   1.250   9.997  0.3575 -0.5985  0.0658
  107OSM    H7S10970   3.852   1.177  10.021 -0.3574  0.1509  0.0240
  107OSM    H7T10971   4.026   1.197   9.976  0.7293  1.0540 -2.6433
  107OSM    C8S10972   3.889   1.333   9.874 -0.8450 -0.2330 -0.3102
  107OSM    H8S10973   3.959   1.414   9.844 -0.8905 -0.9302 -2.3667
  107OSM    H8T10974   3.800   1.391   9.908 -0.4027  1.2118 -1.5883
  107OSM    C9S10975   3.860   1.249   9.748 -0.5545  0.0414  0.2459
  107OSM    H9S10976   3.765   1.195   9.769 -1.0401 -0.1269 -2.2094
  107OSM    H9T10977   3.938   1.172   9.732 -0.3509  0.5183 -1.1397
  107OSM   C10S10978   3.845   1.327   9.615  0.1476 -0.3280  0.1230
  107OSM   H10S10979   3.935   1.384   9.586  0.1384  0.2115  1.1243
  107OSM   H10T10980   3.775   1.408   9.645  1.0282  0.5240 -0.0893
  107OSM   C11S10981   3.790   1.248   9.493 -0.0155 -0.1621 -0.3224
  107OSM   H11S10982   3.700   1.190   9.523  0.7456 -1.7246 -0.9705
  107OSM   H11T10983   3.870   1.179   9.458 -1.1050 -0.9481 -1.2782
  107OSM   C12S10984   3.735   1.339   9.378  0.7407  0.6019  0.1443
  107OSM   H12S10985   3.820   1.402   9.342  1.5166 -0.4336  0.1537
  107OSM   H12T10986   3.665   1.416   9.418  1.5053  1.4982 -0.2264
  107OSM   C13S10987   3.666   1.272   9.264  0.6797  0.1002 -0.3635
  107OSM   H13S10988   3.588   1.196   9.288  0.1974  1.1141  1.2769
  107OSM   H13T10989   3.747   1.212   9.216 -0.2157 -2.9990  1.8209
  107OSM   C14S10990   3.610   1.368   9.160  0.2772  0.4816  0.1693
  107OSM   H14S10991   3.680   1.452   9.143  0.3947  0.1370 -1.0308
  107OSM   H14T10992   3.518   1.424   9.190  0.3110  0.7049 -0.1504
  107OSM   C15S10993   3.578   1.307   9.024  0.4272  0.5133 -0.0733
  107OSM   H15S10994   3.506   1.225   9.048 -0.1997  1.0799  0.0000
  107OSM   H15T10995   3.667   1.264   8.973 -0.9115 -2.5078 -0.0096
  107OSM   C16S10996   3.506   1.399   8.922  0.1408  0.0614  0.3891
  107OSM   H16S10997   3.576   1.479   8.890 -0.1095  0.2970  0.4345
  107OSM   H16T10998   3.412   1.444   8.962  0.2747  0.2208  0.5243
  107OSM   C17S10999   3.472   1.324   8.793  0.0124  0.1870  0.6427
  107OSM   H17S11000   3.385   1.261   8.822 -1.7002  1.6672 -1.1304
  107OSM   H17T11001   3.559   1.264   8.758  1.5999  1.8804  1.5696
  107OSM   C18S11002   3.433   1.421   8.677  0.6627 -0.3547 -0.0004
  107OSM   H18S11003   3.509   1.495   8.644 -0.5402  0.8452 -0.1257
  107OSM   H18T11004   3.338   1.470   8.708  1.4017  1.0910  0.0247
  107OSM   H18U11005   3.408   1.356   8.590  2.3542  1.5828 -1.9972
  107OSM    C1F11006   3.753   0.888  10.376 -0.3431  0.0430  0.2276
  107OSM     OF11007   3.642   0.894  10.423 -0.0824  0.2188 -0.4881
  107OSM    C2F11008   3.787   0.772  10.299 -0.7886 -0.4566 -0.5354
  107OSM    H2F11009   3.714   0.755  10.216 -0.9419  1.3315 -0.7821
  107OSM    H2G11010   3.802   0.688  10.370  0.6153  2.1237  2.3029
  107OSM    C3F11011   3.924   0.794  10.226  0.0030 -1.1084  0.3070
  107OSM    H3F11012   3.997   0.803  10.309  1.2306  0.1568 -0.8826
  107OSM    H3G11013   3.918   0.892  10.174 -0.6496 -1.9669 -1.2628
  107OSM    C4F11014   3.960   0.677  10.128  0.3475 -0.0545  0.4926
  107OSM    H4F11015   3.947   0.583  10.185  0.4529  1.0121  2.3373
  107OSM    H4G11016   4.065   0.677  10.094 -0.2569 -0.1382 -1.4626
  107OSM    C5F11017   3.886   0.673   9.999  0.2037  0.4345  0.4108
  107OSM    H5F11018   3.895   0.770   9.946  0.1188  0.5375  0.5862
  107OSM    H5G11019   3.778   0.664  10.022 -0.1380 -2.2504 -1.8603
  107OSM    C6F11020   3.917   0.552   9.912  0.0363 -0.1296 -0.0359
  107OSM    H6F11021   3.902   0.458   9.970 -2.7681  0.2325 -0.0849
  107OSM    H6G11022   4.023   0.543   9.879  0.6638 -0.4212  1.9915
  107OSM    C7F11023   3.825   0.533   9.791 -0.1749  0.2226  0.2154
  107OSM    H7F11024   3.724   0.562   9.826 -1.0139 -0.9828 -1.1599
  107OSM    H7G11025   3.813   0.423   9.774 -0.0707 -0.0863  2.0791
  107OSM    C8F11026   3.858   0.601   9.660 -0.2151 -0.0878 -0.3872
  107OSM    H8F11027   3.776   0.567   9.593  0.8844 -0.1870 -1.6970
  107OSM    H8G11028   3.948   0.552   9.617  1.6972  1.8513  1.2582
  107OSM    C9F11029   3.869   0.749   9.684  0.0322  0.2250  0.0387
  107OSM    H9F11030   3.949   0.775   9.755 -1.9527  0.1464  2.3653
  107OSM   C10F11031   3.797   0.848   9.620 -0.4017 -0.2868 -0.1772
  107OSM   H10F11032   3.820   0.950   9.654  1.4157 -0.1361 -1.7752
  107OSM   C11F11033   3.698   0.830   9.514 -0.8157 -0.0553  0.0886
  107OSM   H11F11034   3.607   0.882   9.548 -0.6082 -0.5110  1.3541
  107OSM   H11G11035   3.667   0.726   9.491  2.6836 -0.8429 -1.5175
  107OSM   C12F11036   3.757   0.881   9.387 -0.1315  0.3651  0.1113
  107OSM   H12F11037   3.847   0.818   9.368  1.8178  2.6687  1.4148
  107OSM   H12G11038   3.797   0.985   9.383  1.1143 -0.1574 -1.6215
  107OSM   C13F11039   3.668   0.858   9.260  0.0646  0.3052  0.2354
  107OSM   H13F11040   3.566   0.897   9.281  0.2435  0.4955  0.7565
  107OSM   H13G11041   3.662   0.748   9.249  1.3224  0.0311  2.1156
  107OSM   C14F11042   3.728   0.911   9.129 -0.1523  0.1000 -0.0072
  107OSM   H14F11043   3.817   0.850   9.101  0.4139  1.5778 -1.5116
  107OSM   H14G11044   3.765   1.011   9.159  0.7411 -0.1681 -0.2159
  107OSM   C15F11045   3.630   0.925   9.013 -0.4840  0.1687 -0.3386
  107OSM   H15F11046   3.666   1.004   8.944 -1.5977  0.0239 -1.0844
  107OSM   H15G11047   3.526   0.948   9.043 -0.5716  0.5445 -0.9222
  107OSM   C16F11048   3.626   0.793   8.924 -0.4221 -0.3528  0.6008
  107OSM   H16F11049   3.595   0.710   8.992 -0.7252 -1.9725 -1.4639
  107OSM   H16G11050   3.733   0.785   8.897 -0.0355  3.1931  0.8952
  107OSM   C17F11051   3.534   0.795   8.796 -0.3714  0.3015  0.3552
  107OSM   H17F11052   3.538   0.898   8.755 -3.0231  0.5065  0.5551
  107OSM   H17G11053   3.436   0.766   8.840 -0.0780  1.8764  2.0920
  107OSM   C18F11054   3.577   0.698   8.686 -0.2772  0.7545  0.0845
  107OSM   H18F11055   3.679   0.730   8.654 -0.0981 -0.0066 -0.1136
  107OSM   H18G11056   3.506   0.701   8.601 -1.8666 -1.4162  1.2789
  107OSM   H18H11057   3.583   0.594   8.724  1.0174  0.6084 -0.4722
  108OSM      N11058   0.581   4.392  10.984 -0.2776 -0.0620  0.4101
  108OSM    C1511059   0.546   4.537  11.015  0.1897 -0.1254  0.3429
  108OSM   H15A11060   0.628   4.579  11.072  1.2326 -1.2684 -0.2925
  108OSM   H15B11061   0.470   4.534  11.091  0.2970 -1.0069  0.4144
  108OSM   H15C11062   0.519   4.601  10.932 -0.7156 -1.4019 -0.3560
  108OSM    C1411063   0.624   4.308  11.099  0.4922 -0.2933  0.4464
  108OSM   H14A11064   0.696   4.359  11.160  1.7589 -1.5719  0.0556
  108OSM   H14B11065   0.656   4.208  11.071  0.1088 -1.5318  4.2413
  108OSM   H14C11066   0.535   4.292  11.157 -0.0077  1.9749  0.3404
  108OSM    C1311067   0.462   4.332  10.910  0.1156  0.3204 -0.3503
  108OSM   H13A11068   0.411   4.401  10.843  0.1480  0.0094 -0.6924
  108OSM   H13B11069   0.397   4.294  10.987  0.4572 -0.9610 -0.6867
  108OSM   H13C11070   0.497   4.248  10.852 -2.6119 -0.7142 -0.6023
  108OSM    C1211071   0.704   4.390  10.889 -0.0991  0.4882 -0.0002
  108OSM   H12A11072   0.679   4.457  10.808 -1.7423 -0.8296 -0.6170
  108OSM   H12B11073   0.714   4.287  10.858  0.1174  0.7777 -0.9242
  108OSM    C1111074   0.846   4.443  10.935 -0.2824  0.0877 -0.1719
  108OSM   H11A11075   0.917   4.443  10.850  0.0065  3.0766  0.0215
  108OSM   H11B11076   0.889   4.379  11.016  1.0166  3.8897  2.2773
  108OSM      P11077   0.847   4.700  10.887 -0.2383  0.0868  0.2514
  108OSM    O1311078   0.785   4.815  10.951 -0.4501 -0.3547  0.1957
  108OSM    O1411079   0.989   4.715  10.840  0.1214 -0.2097 -0.9020
  108OSM    O1111080   0.747   4.659  10.765 -0.2016 -0.2983 -0.5243
  108OSM    O1211081   0.835   4.574  10.989  0.0753  0.3571  0.2102
  108OSM    C1S11082   0.722   4.767  10.675 -0.2120 -0.4176 -0.0344
  108OSM    H1S11083   0.813   4.811  10.629  0.5066 -1.5790  0.2603
  108OSM    H1T11084   0.678   4.855  10.727 -0.4175 -0.6264  0.1463
  108OSM     NF11085   0.618   4.828  10.453  0.3905 -0.1119 -0.2452
  108OSM    HNF11086   0.532   4.878  10.442  0.7886  0.4966 -0.6608
  108OSM    C2S11087   0.618   4.733  10.564  0.2295  0.4191  0.0733
  108OSM    H2S11088   0.642   4.638  10.511  0.8658  1.3033 -1.2354
  108OSM    C3S11089   0.476   4.713  10.622 -0.3713 -0.0464  0.2499
  108OSM    H3S11090   0.436   4.810  10.658  0.8389  1.1014 -1.4143
  108OSM     O311091   0.472   4.608  10.722  0.3237 -0.1358  0.0956
  108OSM    HO311092   0.562   4.581  10.738  0.0572 -0.2990  1.3494
  108OSM    C4S11093   0.379   4.673  10.514  0.4894  0.4203  0.9302
  108OSM    H4S11094   0.409   4.579  10.465  0.7898  0.3974  1.1577
  108OSM    C5S11095   0.271   4.740  10.464 -0.3502 -0.1796  0.3156
  108OSM    H5S11096   0.234   4.829  10.517  0.0243  0.4528 -0.4889
  108OSM    C6S11097   0.185   4.689  10.349  0.2688 -0.5563  0.1760
  108OSM    H6S11098   0.084   4.661  10.387 -1.1030  1.0891 -2.1535
  108OSM    H6T11099   0.224   4.599  10.299  0.2884 -0.5048  0.0992
  108OSM    C7S11100   0.169   4.796  10.248  0.1219  0.0215 -0.1844
  108OSM    H7S11101   0.262   4.844  10.209  0.1596  0.8017  0.8495
  108OSM    H7T11102   0.116   4.882  10.294 -0.6781 -1.3178  1.4552
  108OSM    C8S11103   0.084   4.748  10.127 -0.0935  0.4587  0.4721
  108OSM    H8S11104  -0.003   4.816  10.119 -0.2196  0.3028  0.5201
  108OSM    H8T11105   0.043   4.647  10.151 -0.3625  0.3213 -0.5277
  108OSM    C9S11106   0.165   4.746  10.000 -0.2331  0.4100  0.0244
  108OSM    H9S11107   0.241   4.665   9.998 -1.7437 -1.0556 -3.7873
  108OSM    H9T11108   0.235   4.831   9.991 -0.6768  0.7869  0.0821
  108OSM   C10S11109   0.079   4.720   9.873 -0.8488 -0.2997 -0.0098
  108OSM   H10S11110  -0.007   4.790   9.869 -1.4765 -1.0248  0.4970
  108OSM   H10T11111   0.040   4.616   9.888 -0.0563 -0.2796  2.4066
  108OSM   C11S11112   0.153   4.721   9.739  0.2462  0.4968  0.8568
  108OSM   H11S11113   0.240   4.652   9.743 -1.3409 -1.5735  0.1616
  108OSM   H11T11114   0.195   4.825   9.743 -1.1295  1.0055  2.8623
  108OSM   C12S11115   0.062   4.718   9.622 -0.1736 -0.3636  0.5044
  108OSM   H12S11116  -0.014   4.798   9.633  2.2949  2.1464 -0.0210
  108OSM   H12T11117   0.007   4.623   9.612 -1.1676  0.0422  1.9853
  108OSM   C13S11118   0.146   4.748   9.487  0.0938 -0.1162  0.1853
  108OSM   H13S11119   0.215   4.661   9.485  0.0988 -0.1264  0.7106
  108OSM   H13T11120   0.197   4.844   9.512 -1.8671  0.8903  0.3470
  108OSM   C14S11121   0.065   4.762   9.363 -0.5119 -0.1765 -0.1321
  108OSM   H14S11122   0.004   4.855   9.364 -1.0547 -0.5443  1.3858
  108OSM   H14T11123  -0.008   4.680   9.350  0.1235 -0.4432 -2.3569
  108OSM   C15S11124   0.147   4.765   9.234  0.3686  0.1761 -0.1636
  108OSM   H15S11125   0.209   4.673   9.240 -1.4516 -1.0972 -0.4639
  108OSM   H15T11126   0.211   4.855   9.224 -0.2147  0.5485 -0.5958
  108OSM   C16S11127   0.057   4.752   9.107 -0.5936  0.1106  0.1895
  108OSM   H16S11128   0.103   4.813   9.026  2.0392 -1.5352  0.3680
  108OSM   H16T11129  -0.048   4.778   9.129 -0.9823  0.3685 -1.8827
  108OSM   C17S11130   0.065   4.613   9.039  0.0551 -0.3094 -0.1839
  108OSM   H17S11131   0.048   4.534   9.115  1.8524  0.8768  1.5001
  108OSM   H17T11132   0.165   4.591   8.996  0.3658 -0.3821  0.5514
  108OSM   C18S11133  -0.035   4.599   8.923  0.1600  0.2184 -0.0213
  108OSM   H18S11134  -0.005   4.511   8.863  0.3806  0.7135 -0.6368
  108OSM   H18T11135  -0.029   4.693   8.865 -0.2703  0.9061  1.0372
  108OSM   H18U11136  -0.136   4.593   8.970 -0.4417  3.0037 -0.8896
  108OSM    C1F11137   0.725   4.852  10.374 -0.2357  0.0737  0.2913
  108OSM     OF11138   0.834   4.788  10.387 -0.3589  0.1820  0.1600
  108OSM    C2F11139   0.711   4.959  10.267  0.1462  0.5266  0.3094
  108OSM    H2F11140   0.774   5.046  10.295  0.8305 -0.0452  0.5347
  108OSM    H2G11141   0.606   4.996  10.265  0.2753  0.8709 -0.1381
  108OSM    C3F11142   0.748   4.900  10.132  0.5100  0.3850 -0.3538
  108OSM    H3F11143   0.684   4.813  10.104  1.0591 -0.1928  0.1634
  108OSM    H3G11144   0.853   4.866  10.143  1.0516  1.4603 -2.0522
  108OSM    C4F11145   0.749   5.004  10.022  0.0523 -0.7504 -0.3589
  108OSM    H4F11146   0.786   4.957   9.929 -1.1544  1.0800 -1.7855
  108OSM    H4G11147   0.819   5.088  10.036  0.0310 -0.7453 -0.2794
  108OSM    C5F11148   0.610   5.055   9.984 -0.1532  0.1859 -0.0468
  108OSM    H5F11149   0.572   5.103  10.077 -1.9636 -2.1013  0.4463
  108OSM    H5G11150   0.548   4.966   9.957  0.0798 -0.1992  0.6756
  108OSM    C6F11151   0.624   5.146   9.864 -0.3878 -0.7611 -0.0437
  108OSM    H6F11152   0.673   5.239   9.901 -3.4313  1.2629 -0.9301
  108OSM    H6G11153   0.526   5.192   9.841 -0.6279 -0.1840  2.0517
  108OSM    C7F11154   0.693   5.074   9.741 -0.0132  0.6030 -0.3317
  108OSM    H7F11155   0.650   4.972   9.744 -0.8523  1.0162  3.7706
  108OSM    H7G11156   0.802   5.070   9.763 -0.4617  1.9263  2.3423
  108OSM    C8F11157   0.643   5.149   9.612 -0.2033  0.0534 -0.2677
  108OSM    H8F11158   0.659   5.257   9.632  3.4128 -0.5851  0.6922
  108OSM    H8G11159   0.532   5.145   9.615 -0.2260  0.8437  0.0631
  108OSM    C9F11160   0.708   5.111   9.475 -0.0380  0.2746 -0.0375
  108OSM    H9F11161   0.799   5.167   9.447 -0.0636  0.8336  0.9709
  108OSM   C10F11162   0.657   5.016   9.394  0.5297  0.2077 -0.8403
  108OSM   H10F11163   0.689   5.011   9.289  3.4742  2.1179 -0.0872
  108OSM   C11F11164   0.544   4.924   9.423  0.7017  0.6226  0.3813
  108OSM   H11F11165   0.457   4.949   9.358  0.8983  1.9985  0.6252
  108OSM   H11G11166   0.492   4.943   9.520 -0.5256  0.5558 -0.2673
  108OSM   C12F11167   0.567   4.773   9.410  0.3544  0.2430  0.0573
  108OSM   H12F11168   0.641   4.766   9.328 -0.1634  2.1804 -0.6023
  108OSM   H12G11169   0.473   4.718   9.390  1.0348 -1.1974  0.7499
  108OSM   C13F11170   0.642   4.719   9.531  0.0889  0.5343 -0.8857
  108OSM   H13F11171   0.724   4.783   9.573 -0.0678  0.5024 -0.5298
  108OSM   H13G11172   0.706   4.636   9.494  1.6221  1.3073 -0.0199
  108OSM   C14F11173   0.545   4.685   9.650  0.6430 -0.7416  0.1179
  108OSM   H14F11174   0.475   4.613   9.601  2.5992 -1.9168 -1.0447
  108OSM   H14G11175   0.490   4.776   9.682  2.0410  0.1023  0.1353
  108OSM   C15F11176   0.607   4.622   9.769 -0.5482  0.6309  0.0174
  108OSM   H15F11177   0.698   4.683   9.791  0.7564 -0.4996 -2.0234
  108OSM   H15G11178   0.650   4.522   9.748 -2.2410  0.0601 -0.8016
  108OSM   C16F11179   0.521   4.627   9.905  0.3875  0.4777  0.0345
  108OSM   H16F11180   0.420   4.580   9.897 -0.7707  2.6620  1.1145
  108OSM   H16G11181   0.485   4.729   9.933 -1.5455  0.0182 -0.6668
  108OSM   C17F11182   0.595   4.573  10.021 -0.0082 -0.8282 -0.5818
  108OSM   H17F11183   0.692   4.625  10.036 -0.6379  0.1011  0.4555
  108OSM   H17G11184   0.611   4.466   9.998 -1.6159 -1.7348  2.2609
  108OSM   C18F11185   0.525   4.580  10.156  0.0824 -0.1847  0.6502
  108OSM   H18F11186   0.582   4.548  10.246 -2.1018 -0.2364  2.0572
  108OSM   H18G11187   0.437   4.512  10.151  0.0703 -0.0261 -1.5512
  108OSM   H18H11188   0.487   4.682  10.174  0.7178 -0.1431  1.7773
  109OSM      N11189   1.530   5.788  10.483 -0.0537 -0.1168  0.2998
  109OSM    C1511190   1.427   5.679  10.466  0.0628 -0.1279 -0.3436
  109OSM   H15A11191   1.442   5.597  10.534  3.1721  1.5761  1.1123
  109OSM   H15B11192   1.425   5.643  10.364 -0.7963  0.1956 -0.4528
  109OSM   H15C11193   1.325   5.707  10.487  0.9363  2.7454  0.1512
  109OSM    C1411194   1.539   5.814  10.625  0.2008 -0.0896  1.7079
  109OSM   H14A11195   1.622   5.879  10.649 -0.2680  0.6812  1.2692
  109OSM   H14B11196   1.550   5.729  10.691  0.7227 -0.0095  1.7298
  109OSM   H14C11197   1.451   5.865  10.661  0.2089  1.0798  0.1105
  109OSM    C1311198   1.671   5.738  10.444  0.8130  0.0450 -0.7851
  109OSM   H13A11199   1.745   5.816  10.435  0.4036  0.5841  0.4619
  109OSM   H13B11200   1.661   5.693  10.347  0.1534 -2.6503  0.4812
  109OSM   H13C11201   1.704   5.662  10.515  1.3184  0.3934 -0.6429
  109OSM    C1211202   1.498   5.915  10.402 -0.1913 -0.2182 -0.1058
  109OSM   H12A11203   1.524   5.899  10.298  0.5500 -0.2651  0.0779
  109OSM   H12B11204   1.568   5.991  10.434 -2.4163  0.8976  2.1869
  109OSM    C1111205   1.360   5.975  10.403  0.8178  0.3044  0.3577
  109OSM   H11A11206   1.286   5.907  10.355 -0.5759  1.8185  0.3038
  109OSM   H11B11207   1.363   6.063  10.336  0.9370  1.0353  1.3161
  109OSM      P11208   1.307   6.165  10.587 -0.0535  0.6085 -0.1142
  109OSM    O1311209   1.174   6.198  10.639 -0.2122 -0.2505 -0.4533
  109OSM    O1411210   1.424   6.182  10.678 -0.2286  0.0914 -0.1358
  109OSM    O1111211   1.334   6.253  10.458  0.9618  0.7235 -0.0398
  109OSM    O1211212   1.307   6.010  10.539  0.1543  0.3709  0.5247
  109OSM    C1S11213   1.465   6.298  10.429 -0.0192  0.4431 -0.1342
  109OSM    H1S11214   1.540   6.218  10.448  0.8002  1.2816  0.2436
  109OSM    H1T11215   1.483   6.386  10.494  2.6159  0.4606 -0.8375
  109OSM     NF11216   1.620   6.373  10.250 -0.3303 -0.5116 -0.0687
  109OSM    HNF11217   1.659   6.464  10.264  0.5540 -0.9962  0.7392
  109OSM    C2S11218   1.485   6.337  10.280  0.1996  0.1140  0.7338
  109OSM    H2S11219   1.461   6.248  10.219  0.5351  0.5078  0.0219
  109OSM    C3S11220   1.382   6.454  10.245 -0.1652 -0.0624  0.8762
  109OSM    H3S11221   1.405   6.540  10.312  0.9545  1.3033 -1.2029
  109OSM     O311222   1.243   6.435  10.281  0.3693 -0.0531 -0.3500
  109OSM    HO311223   1.243   6.348  10.322 -1.9625 -0.5541 -1.3103
  109OSM    C4S11224   1.383   6.489  10.094 -0.3884 -0.2901 -0.7333
  109OSM    H4S11225   1.334   6.412  10.032 -0.9049 -3.0146  2.8954
  109OSM    C5S11226   1.412   6.613  10.040 -0.1397 -0.5386  0.1264
  109OSM    H5S11227   1.434   6.691  10.114 -1.8957 -1.0931  1.2713
  109OSM    C6S11228   1.395   6.639   9.891 -0.1410 -0.2289  0.2180
  109OSM    H6S11229   1.473   6.592   9.829  0.8918 -0.7562  1.8977
  109OSM    H6T11230   1.393   6.749   9.873  0.3853 -0.0199  1.4258
  109OSM    C7S11231   1.273   6.572   9.835 -0.1780  0.5797  0.0610
  109OSM    H7S11232   1.189   6.588   9.906 -0.2179 -0.0258  0.1531
  109OSM    H7T11233   1.286   6.462   9.830 -0.2012  0.5615  0.3729
  109OSM    C8S11234   1.231   6.633   9.697  0.0371  0.4858 -0.0268
  109OSM    H8S11235   1.214   6.742   9.710 -1.3378  0.4629 -1.4700
  109OSM    H8T11236   1.135   6.585   9.666  0.3181  0.2249 -0.4915
  109OSM    C9S11237   1.327   6.618   9.579 -0.8737 -0.0473  0.1077
  109OSM    H9S11238   1.354   6.511   9.567  1.6617  0.7519 -1.6163
  109OSM    H9T11239   1.424   6.665   9.605  0.7540 -2.9110 -0.7193
  109OSM   C10S11240   1.279   6.685   9.451  0.1007 -0.3391  0.2318
  109OSM   H10S11241   1.193   6.753   9.469  0.6493  0.6407 -0.7818
  109OSM   H10T11242   1.222   6.607   9.396 -2.8317  1.8534  0.0033
  109OSM   C11S11243   1.382   6.768   9.382 -0.7127 -0.5151 -0.7101
  109OSM   H11S11244   1.461   6.702   9.339  0.2778 -1.5190  2.5394
  109OSM   H11T11245   1.427   6.837   9.456 -2.0867 -0.8180  0.4330
  109OSM   C12S11246   1.338   6.872   9.274 -0.4263  0.5054 -0.9136
  109OSM   H12S11247   1.325   6.971   9.322  0.0607  0.3157 -0.3852
  109OSM   H12T11248   1.239   6.831   9.245 -0.4178 -0.9843  1.0957
  109OSM   C13S11249   1.444   6.889   9.163  0.2228 -0.2387 -0.5490
  109OSM   H13S11250   1.549   6.881   9.198 -0.4318  0.3131  1.6454
  109OSM   H13T11251   1.426   6.989   9.117  0.5889  0.8306  1.5694
  109OSM   C14S11252   1.422   6.781   9.058 -0.3293 -0.3266 -0.3261
  109OSM   H14S11253   1.317   6.779   9.020  0.3472  0.0744 -2.2520
  109OSM   H14T11254   1.459   6.684   9.097  0.5186  0.4084  0.7304
  109OSM   C15S11255   1.502   6.814   8.927  0.5786  0.0501 -0.1063
  109OSM   H15S11256   1.510   6.728   8.857  2.0401 -0.6363  0.8823
  109OSM   H15T11257   1.605   6.816   8.970  0.4433  0.5875  0.1957
  109OSM   C16S11258   1.470   6.946   8.860 -0.4516  0.1116  0.5603
  109OSM   H16S11259   1.479   7.041   8.917 -0.3016  1.1332 -1.1208
  109OSM   H16T11260   1.364   6.948   8.830 -0.7604  1.9394  1.6608
  109OSM   C17S11261   1.558   6.959   8.743 -0.4417 -0.7582  0.3739
  109OSM   H17S11262   1.531   6.875   8.675 -2.4870 -0.2973  0.5953
  109OSM   H17T11263   1.665   6.944   8.768 -1.0966 -1.8361  2.6667
  109OSM   C18S11264   1.550   7.107   8.681  0.4277  0.5910  0.5456
  109OSM   H18S11265   1.604   7.100   8.585 -2.9832 -0.7800 -1.3728
  109OSM   H18T11266   1.602   7.172   8.755  0.5311  0.7866  0.3023
  109OSM   H18U11267   1.441   7.131   8.677 -0.4661 -2.6547  3.0793
  109OSM    C1F11268   1.717   6.274  10.243  0.2246 -0.1458  0.4936
  109OSM     OF11269   1.690   6.153  10.249 -0.2937 -0.3436  1.0165
  109OSM    C2F11270   1.860   6.318  10.212  0.2860  0.5884 -0.6143
  109OSM    H2F11271   1.927   6.259  10.277 -1.2055  0.7531  1.1230
  109OSM    H2G11272   1.867   6.427  10.232 -1.3490  0.6102 -0.0766
  109OSM    C3F11273   1.912   6.297  10.064  0.3438  0.7582 -0.4609
  109OSM    H3F11274   1.881   6.193  10.038 -0.5482  0.8442  0.2442
  109OSM    H3G11275   2.023   6.304  10.071  0.4513  3.1898 -3.6785
  109OSM    C4F11276   1.865   6.403   9.965  0.5284  0.2713 -0.3474
  109OSM    H4F11277   1.908   6.500   9.997  0.2742  0.4416 -0.5233
  109OSM    H4G11278   1.755   6.418   9.964  0.6845  1.6417  1.7630
  109OSM    C5F11279   1.912   6.359   9.824 -0.3826 -0.1478  0.0429
  109OSM    H5F11280   1.867   6.262   9.792 -2.9368  1.1432 -0.4496
  109OSM    H5G11281   2.021   6.348   9.837 -0.4228  0.2339  0.6916
  109OSM    C6F11282   1.884   6.463   9.718  0.0736  0.4448  0.6431
  109OSM    H6F11283   1.905   6.563   9.761  0.1272  0.2149  1.1496
  109OSM    H6G11284   1.775   6.450   9.699  0.6005 -1.3221 -1.4721
  109OSM    C7F11285   1.972   6.428   9.591 -0.1017  0.2051  0.3809
  109OSM    H7F11286   1.936   6.334   9.546 -1.1353  0.2810  1.0187
  109OSM    H7G11287   2.078   6.434   9.624  0.2583 -0.9727 -0.5253
  109OSM    C8F11288   1.974   6.535   9.478 -0.6924  0.5200  0.5947
  109OSM    H8F11289   2.050   6.497   9.406 -0.3537 -0.0011  1.2314
  109OSM    H8G11290   2.008   6.631   9.521 -0.0748  1.5032 -1.9616
  109OSM    C9F11291   1.840   6.558   9.412  0.1387  0.7664  0.2152
  109OSM    H9F11292   1.749   6.518   9.460  0.4122  1.2919  1.2096
  109OSM   C10F11293   1.832   6.612   9.286  0.1499  0.1156  0.4348
  109OSM   H10F11294   1.737   6.635   9.236  1.3326  2.3278 -0.8829
  109OSM   C11F11295   1.951   6.669   9.205  0.6529  0.3176  0.0485
  109OSM   H11F11296   2.039   6.613   9.242  0.9172  1.7926  1.7121
  109OSM   H11G11297   1.949   6.778   9.223 -1.0470  0.4969 -1.1248
  109OSM   C12F11298   1.950   6.641   9.056 -0.1163 -0.4507  0.1043
  109OSM   H12F11299   2.054   6.671   9.031 -0.6195 -0.5960 -2.3494
  109OSM   H12G11300   1.880   6.711   9.005  0.9371 -0.1666 -0.9475
  109OSM   C13F11301   1.911   6.493   9.027  0.6303 -0.7549 -0.4443
  109OSM   H13F11302   1.801   6.484   9.027  0.2748  2.9629  0.7805
  109OSM   H13G11303   1.950   6.427   9.107 -0.5219 -1.0515 -0.1234
  109OSM   C14F11304   1.956   6.429   8.898  1.0835 -0.0982 -0.4208
  109OSM   H14F11305   2.056   6.459   8.862  0.2303 -0.6437 -3.3505
  109OSM   H14G11306   1.887   6.466   8.819 -0.5471 -2.6045 -0.1970
  109OSM   C15F11307   1.943   6.280   8.906  0.1614  0.0915  0.1598
  109OSM   H15F11308   1.836   6.251   8.908  0.0353 -0.2026 -4.7580
  109OSM   H15G11309   2.005   6.248   8.992  0.0822 -1.3904 -0.3247
  109OSM   C16F11310   2.014   6.209   8.786 -0.4533 -0.2392 -0.1014
  109OSM   H16F11311   2.120   6.240   8.772 -0.4518 -1.0943 -2.2193
  109OSM   H16G11312   1.961   6.241   8.694 -1.0635 -0.7194  0.0853
  109OSM   C17F11313   2.026   6.062   8.799  0.1727  0.1256 -0.9601
  109OSM   H17F11314   1.929   6.011   8.819  1.6091 -1.7300  1.4788
  109OSM   H17G11315   2.088   6.034   8.886 -2.9593  2.1655  2.1048
  109OSM   C18F11316   2.088   5.992   8.681 -0.0917 -0.3762 -0.2260
  109OSM   H18F11317   2.029   5.995   8.588  2.5341  2.3964 -1.9170
  109OSM   H18G11318   2.123   5.887   8.686 -1.0824 -0.8035 -1.9380
  109OSM   H18H11319   2.187   6.038   8.658  0.9316 -0.4269  3.7205
  110OSM      N11320   3.124   5.604  10.785  0.0771  0.4297 -0.1699
  110OSM    C1511321   3.246   5.617  10.874 -0.2723  0.1162  0.0325
  110OSM   H15A11322   3.326   5.555  10.835  0.5885  1.3205 -0.1405
  110OSM   H15B11323   3.223   5.591  10.976  1.5631 -2.2068 -0.0989
  110OSM   H15C11324   3.272   5.721  10.875 -0.0140  0.0424  2.0385
  110OSM    C1411325   3.019   5.685  10.854 -0.3987  0.9741  0.1490
  110OSM   H14A11326   2.926   5.687  10.799  0.5849 -1.6611 -1.7430
  110OSM   H14B11327   3.059   5.783  10.872 -1.2074  1.5667 -1.1969
  110OSM   H14C11328   3.004   5.637  10.949 -1.7591 -0.7453 -0.8895
  110OSM    C1311329   3.162   5.651  10.655  0.0741 -0.2329  0.9776
  110OSM   H13A11330   3.183   5.757  10.652 -0.1860 -0.1858  0.7841
  110OSM   H13B11331   3.082   5.640  10.584 -0.5175 -0.1995  1.6411
  110OSM   H13C11332   3.246   5.598  10.611 -0.4570 -1.6758  1.6741
  110OSM    C1211333   3.088   5.452  10.769  0.0589 -0.7974 -0.3707
  110OSM   H12A11334   3.073   5.405  10.866  0.3761  1.8651  1.0158
  110OSM   H12B11335   3.171   5.394  10.731  0.0667 -1.0594  0.0410
  110OSM    C1111336   2.967   5.412  10.690  0.6456 -0.1447 -0.4353
  110OSM   H11A11337   2.970   5.303  10.672  0.6964  0.1381 -2.2586
  110OSM   H11B11338   2.968   5.474  10.597  0.3665  2.6968  1.3781
  110OSM      P11339   2.712   5.442  10.710 -0.1926 -0.1738 -0.9710
  110OSM    O1311340   2.613   5.386  10.798  0.4604  0.4518  0.3173
  110OSM    O1411341   2.699   5.578  10.656  0.0464 -0.1828  0.0590
  110OSM    O1111342   2.724   5.340  10.592 -0.2615 -0.2021 -0.8242
  110OSM    O1211343   2.855   5.435  10.778 -0.0936 -0.1010 -0.5179
  110OSM    C1S11344   2.616   5.273  10.533  0.1469  0.1902  0.4412
  110OSM    H1S11345   2.518   5.320  10.555  1.1124  0.1419  5.5702
  110OSM    H1T11346   2.604   5.170  10.574 -1.2044 -0.3754 -1.3283
  110OSM     NF11347   2.517   5.216  10.319 -0.5883  0.2849 -0.1761
  110OSM    HNF11348   2.521   5.120  10.292  0.3095  0.5160 -0.8761
  110OSM    C2S11349   2.645   5.267  10.382 -0.3614 -0.0693  0.4989
  110OSM    H2S11350   2.675   5.365  10.339  1.9188 -0.7631  0.4252
  110OSM    C3S11351   2.769   5.184  10.355 -0.0679 -0.3484 -0.0508
  110OSM    H3S11352   2.750   5.080  10.389 -0.7166 -0.2161 -0.0107
  110OSM     O311353   2.890   5.228  10.411  0.3183  0.0464 -0.6035
  110OSM    HO311354   2.860   5.292  10.477 -0.0945  0.3067 -1.0404
  110OSM    C4S11355   2.786   5.169  10.206  0.1593  0.1096 -0.3120
  110OSM    H4S11356   2.771   5.066  10.171  0.1802  1.0083 -3.0813
  110OSM    C5S11357   2.824   5.263  10.119  0.4341 -0.5595  1.1031
  110OSM    H5S11358   2.874   5.351  10.164  0.3287 -0.9815  2.0594
  110OSM    C6S11359   2.845   5.233   9.976  0.1223  0.1851 -0.1351
  110OSM    H6S11360   2.925   5.158   9.960  1.4981  1.6403 -0.2102
  110OSM    H6T11361   2.862   5.324   9.914  0.8876 -1.8871 -3.0175
  110OSM    C7S11362   2.720   5.181   9.908  0.1053 -0.5538  0.9187
  110OSM    H7S11363   2.635   5.247   9.937  1.0571  1.1671 -0.1102
  110OSM    H7T11364   2.701   5.081   9.953 -1.0491 -2.3305 -3.2035
  110OSM    C8S11365   2.730   5.143   9.759  0.4518 -0.4669 -0.2943
  110OSM    H8S11366   2.627   5.113   9.732  0.7890 -0.5230 -1.5146
  110OSM    H8T11367   2.799   5.058   9.741  0.0593 -0.6755 -0.8159
  110OSM    C9S11368   2.763   5.277   9.680 -0.1054  0.6223  0.1288
  110OSM    H9S11369   2.865   5.313   9.706  0.2199 -1.7683  2.4416
  110OSM    H9T11370   2.695   5.360   9.707  2.1787  2.3290  0.8357
  110OSM   C10S11371   2.752   5.250   9.527  0.7949  0.0705  0.6689
  110OSM   H10S11372   2.751   5.350   9.479 -1.2127 -0.2622 -0.0493
  110OSM   H10T11373   2.650   5.211   9.507  0.4691  1.5657 -0.6287
  110OSM   C11S11374   2.859   5.166   9.468  0.5490  0.0526  0.3239
  110OSM   H11S11375   2.887   5.082   9.536 -1.0754 -1.5235 -0.9214
  110OSM   H11T11376   2.952   5.226   9.471 -0.0789  1.0308  0.1654
  110OSM   C12S11377   2.813   5.122   9.330  0.6233 -0.0735 -0.1135
  110OSM   H12S11378   2.764   5.208   9.279 -1.1302 -1.2497 -0.4697
  110OSM   H12T11379   2.735   5.042   9.332 -0.0738  0.6045  0.5868
  110OSM   C13S11380   2.927   5.056   9.257 -0.4396  0.0985 -0.0822
  110OSM   H13S11381   2.959   4.963   9.308  1.4783  0.1509 -1.1549
  110OSM   H13T11382   3.007   5.132   9.268 -2.2744  2.2433 -1.0772
  110OSM   C14S11383   2.910   5.025   9.115  0.0588 -0.5351  0.1091
  110OSM   H14S11384   2.891   5.119   9.059  1.0900 -1.5776 -2.1073
  110OSM   H14T11385   2.811   4.974   9.106  0.1125 -0.5782 -0.2799
  110OSM   C15S11386   3.016   4.938   9.051 -0.7018 -0.3506  0.1820
  110OSM   H15S11387   3.014   4.836   9.094  3.2591 -1.3751 -1.8828
  110OSM   H15T11388   3.119   4.966   9.081 -0.2561 -2.3847  0.6022
  110OSM   C16S11389   3.011   4.916   8.896 -0.2381 -0.0257  0.5449
  110OSM   H16S11390   3.114   4.896   8.859 -0.4538  2.2271 -1.4083
  110OSM   H16T11391   2.987   5.006   8.835 -1.7970 -0.0281  1.1185
  110OSM   C17S11392   2.914   4.807   8.846 -0.2155  0.3002  0.2022
  110OSM   H17S11393   2.811   4.847   8.855 -0.9126 -0.7971 -2.5008
  110OSM   H17T11394   2.939   4.715   8.902 -2.5887 -1.4587 -1.5505
  110OSM   C18S11395   2.930   4.781   8.700  0.2161 -0.1990 -0.6377
  110OSM   H18S11396   3.020   4.720   8.678  0.1767 -0.1974 -0.8027
  110OSM   H18T11397   2.934   4.876   8.642 -0.9329  0.0153 -0.3596
  110OSM   H18U11398   2.839   4.734   8.659 -1.3432 -0.7331  3.2454
  110OSM    C1F11399   2.411   5.296  10.311 -1.4416  0.1374 -0.2280
  110OSM     OF11400   2.417   5.412  10.352 -0.3511  0.5164  0.1527
  110OSM    C2F11401   2.289   5.227  10.240 -0.2918  0.7688 -0.5377
  110OSM    H2F11402   2.200   5.221  10.306  0.2663  0.5382  0.2049
  110OSM    H2G11403   2.318   5.121  10.223  3.3223  1.8938 -1.9975
  110OSM    C3F11404   2.258   5.313  10.119  0.1981  0.0052 -0.8319
  110OSM    H3F11405   2.219   5.409  10.158 -1.2738 -1.0329  0.3763
  110OSM    H3G11406   2.173   5.260  10.070 -0.1442  1.1833 -1.5134
  110OSM    C4F11407   2.375   5.332  10.019  0.6451 -0.2078  0.3022
  110OSM    H4F11408   2.424   5.235   9.997 -1.9914 -1.3792 -0.6532
  110OSM    H4G11409   2.451   5.405  10.056  1.0559  1.4879 -3.6196
  110OSM    C5F11410   2.322   5.394   9.888  0.1583 -0.5813 -0.3473
  110OSM    H5F11411   2.274   5.488   9.920 -0.0561 -1.4690  2.0566
  110OSM    H5G11412   2.245   5.327   9.844 -0.6768 -0.4687  0.9183
  110OSM    C6F11413   2.436   5.401   9.780 -0.2323 -0.3376  0.4507
  110OSM    H6F11414   2.436   5.296   9.744  0.2116 -0.1991  0.0276
  110OSM    H6G11415   2.531   5.429   9.831  0.7728  0.2082 -1.6534
  110OSM    C7F11416   2.400   5.510   9.678  0.7968 -0.3030 -0.2194
  110OSM    H7F11417   2.494   5.531   9.622  0.5116 -1.0534 -0.9846
  110OSM    H7G11418   2.371   5.606   9.725 -3.0887  0.2601 -3.4979
  110OSM    C8F11419   2.297   5.476   9.575 -0.0573 -0.1238  0.2775
  110OSM    H8F11420   2.281   5.569   9.516 -2.3717 -0.8014 -0.1958
  110OSM    H8G11421   2.201   5.469   9.629 -0.7966 -1.2139 -1.1702
  110OSM    C9F11422   2.333   5.371   9.475 -0.5295  0.7135 -0.1495
  110OSM    H9F11423   2.297   5.270   9.500  2.0181 -0.4079 -0.8924
  110OSM   C10F11424   2.402   5.374   9.355 -0.1673 -0.5945 -0.0974
  110OSM   H10F11425   2.409   5.286   9.289  1.0170 -0.1845 -0.5300
  110OSM   C11F11426   2.464   5.504   9.309 -0.8079 -0.7357  0.4840
  110OSM   H11F11427   2.575   5.495   9.303 -1.0055 -2.1138 -1.4943
  110OSM   H11G11428   2.437   5.592   9.371  1.4131  0.5598 -0.3108
  110OSM   C12F11429   2.401   5.530   9.166  0.0419 -0.4407  0.1558
  110OSM   H12F11430   2.431   5.452   9.094 -2.4268 -1.3609  0.1197
  110OSM   H12G11431   2.442   5.631   9.142 -2.3546  0.3399 -0.7515
  110OSM   C13F11432   2.240   5.544   9.179  0.0315  0.1438  0.4715
  110OSM   H13F11433   2.229   5.606   9.271  0.8754  2.5106 -0.9886
  110OSM   H13G11434   2.201   5.441   9.188 -1.2223  0.5513 -0.1860
  110OSM   C14F11435   2.161   5.615   9.064 -0.2530 -0.5683  0.0070
  110OSM   H14F11436   2.199   5.718   9.048  1.3756 -1.1609 -0.0082
  110OSM   H14G11437   2.051   5.605   9.080 -0.1741 -1.5980 -0.0283
  110OSM   C15F11438   2.181   5.548   8.926  0.1132  0.5214 -0.5286
  110OSM   H15F11439   2.167   5.438   8.933  0.5199  0.4167 -1.2781
  110OSM   H15G11440   2.285   5.558   8.888 -0.3096 -1.9242 -2.4592
  110OSM   C16F11441   2.100   5.610   8.806  0.7186 -0.7808  0.0267
  110OSM   H16F11442   2.148   5.584   8.709  2.4241 -2.0899  1.2148
  110OSM   H16G11443   2.083   5.720   8.804 -0.9951 -1.0341 -0.2084
  110OSM   C17F11444   1.970   5.522   8.791  0.5228 -0.3893  0.0416
  110OSM   H17F11445   1.921   5.523   8.891 -1.0163  2.8867 -0.6844
  110OSM   H17G11446   2.006   5.418   8.771  2.7691 -0.1912  2.7695
  110OSM   C18F11447   1.867   5.559   8.683  0.4059  0.3429 -0.1918
  110OSM   H18F11448   1.780   5.489   8.678  1.3430 -0.7392 -2.0398
  110OSM   H18G11449   1.909   5.576   8.581  0.0995  0.8478 -0.2345
  110OSM   H18H11450   1.828   5.662   8.699  1.0431  0.3898  1.0907
  111OSM      N11451   3.394   2.456  11.010 -0.1977  0.9731 -0.2138
  111OSM    C1511452   3.396   2.308  10.993 -0.6748 -0.3904 -0.7539
  111OSM   H15A11453   3.298   2.265  11.001 -0.0770 -1.4067  1.8663
  111OSM   H15B11454   3.458   2.251  11.062 -1.3623 -1.4799 -1.0223
  111OSM   H15C11455   3.432   2.272  10.898 -2.2531  0.4858 -1.6825
  111OSM    C1411456   3.383   2.493  11.157 -0.1807 -0.1802  0.0485
  111OSM   H14A11457   3.477   2.473  11.206  0.6931  0.0755 -1.4799
  111OSM   H14B11458   3.304   2.430  11.194  1.0531 -2.4196 -1.0589
  111OSM   H14C11459   3.362   2.598  11.176 -0.9297 -0.1978 -0.6521
  111OSM    C1311460   3.526   2.517  10.961 -0.3258 -0.1026  0.6200
  111OSM   H13A11461   3.526   2.624  10.975 -0.7416  0.1257 -0.9521
  111OSM   H13B11462   3.536   2.491  10.856 -2.7838 -1.0362  0.5766
  111OSM   H13C11463   3.610   2.467  11.007 -0.7295 -0.8208  0.5928
  111OSM    C1211464   3.286   2.513  10.924  0.6375  0.3435  0.0059
  111OSM   H12A11465   3.301   2.467  10.827  2.2111  1.8048 -0.4749
  111OSM   H12B11466   3.301   2.620  10.918 -2.3156  0.7300 -1.1102
  111OSM    C1111467   3.135   2.475  10.952 -0.1525  0.0934 -0.3238
  111OSM   H11A11468   3.076   2.532  10.878  0.1339 -0.4014 -0.9427
  111OSM   H11B11469   3.101   2.503  11.053 -1.8433 -1.8151 -0.3380
  111OSM      P11470   3.074   2.264  10.808 -0.3037 -0.0235  0.0789
  111OSM    O1311471   3.151   2.137  10.815  0.2871 -0.0554 -0.8936
  111OSM    O1411472   2.931   2.263  10.773  0.2663 -0.5038 -0.1004
  111OSM    O1111473   3.147   2.355  10.697  0.0538  0.2311 -0.2354
  111OSM    O1211474   3.100   2.335  10.946  0.2493 -0.1313 -0.2751
  111OSM    C1S11475   3.212   2.298  10.581  0.5087  0.5089 -0.2499
  111OSM    H1S11476   3.211   2.187  10.587 -2.7597  0.4911 -0.7093
  111OSM    H1T11477   3.321   2.321  10.572  0.1155  1.8979 -1.8469
  111OSM     NF11478   3.199   2.259  10.338 -0.1173 -0.2748  0.3494
  111OSM    HNF11479   3.258   2.314  10.279  1.7709 -2.7810 -0.1837
  111OSM    C2S11480   3.128   2.322  10.447 -0.3813  0.2831  0.5681
  111OSM    H2S11481   3.032   2.270  10.469 -0.7485  0.8602  0.3380
  111OSM    C3S11482   3.101   2.467  10.426  0.3033 -0.2690 -0.0775
  111OSM    H3S11483   3.198   2.521  10.420  0.7257 -0.7686  2.0083
  111OSM     O311484   3.035   2.537  10.536  1.1830 -0.0330  0.2063
  111OSM    HO311485   3.043   2.480  10.613  0.5775  1.1034  1.1324
  111OSM    C4S11486   3.028   2.502  10.302  0.1546  0.2529  0.0161
  111OSM    H4S11487   3.084   2.479  10.210  1.5615  2.3599  0.3081
  111OSM    C5S11488   2.904   2.551  10.294 -0.2745  0.1632  0.2718
  111OSM    H5S11489   2.849   2.569  10.388  0.9828  1.7278  0.7342
  111OSM    C6S11490   2.826   2.583  10.170  0.3913  0.3377 -0.0289
  111OSM    H6S11491   2.768   2.677  10.180 -0.8641 -0.7067  3.5335
  111OSM    H6T11492   2.735   2.520  10.158  0.7438 -0.4394  1.2571
  111OSM    C7S11493   2.909   2.594  10.042  0.4068  0.5145  0.2072
  111OSM    H7S11494   2.965   2.499  10.029  0.9638  0.8945 -0.1669
  111OSM    H7T11495   2.977   2.679  10.060 -0.5939  1.6270 -1.1927
  111OSM    C8S11496   2.824   2.615   9.914 -0.6478  0.7984  0.1459
  111OSM    H8S11497   2.773   2.713   9.931 -2.9368 -0.8600  3.4101
  111OSM    H8T11498   2.758   2.527   9.905  0.6770 -0.1672 -0.1807
  111OSM    C9S11499   2.897   2.622   9.782  1.3251  0.2356  0.8326
  111OSM    H9S11500   2.966   2.537   9.765  1.5603  0.9347 -1.8997
  111OSM    H9T11501   2.964   2.710   9.780  1.3535  0.2284  1.2985
  111OSM   C10S11502   2.807   2.647   9.664  0.0346 -0.0214  0.1178
  111OSM   H10S11503   2.743   2.735   9.686  1.4023  0.9444  0.3336
  111OSM   H10T11504   2.748   2.555   9.646 -0.1924  0.0894  0.2892
  111OSM   C11S11505   2.885   2.672   9.539  0.0516 -0.6442  0.2933
  111OSM   H11S11506   2.952   2.584   9.527 -0.7065 -1.6303  2.9026
  111OSM   H11T11507   2.935   2.771   9.543  1.7400 -1.4496 -0.6393
  111OSM   C12S11508   2.808   2.667   9.410 -0.5131  0.8383 -0.6941
  111OSM   H12S11509   2.728   2.744   9.418 -0.7745  0.5927 -0.9053
  111OSM   H12T11510   2.758   2.568   9.403  1.4728 -0.4727  2.5908
  111OSM   C13S11511   2.898   2.699   9.289  0.3911 -0.3979  0.0032
  111OSM   H13S11512   2.975   2.619   9.290 -0.3573 -1.1340  1.7208
  111OSM   H13T11513   2.942   2.799   9.306 -1.7387  0.8106 -1.3779
  111OSM   C14S11514   2.813   2.693   9.158 -0.7180  0.2084  0.2962
  111OSM   H14S11515   2.743   2.779   9.159 -2.4216 -1.1022 -1.3653
  111OSM   H14T11516   2.751   2.601   9.149  0.7933 -0.7499 -0.5422
  111OSM   C15S11517   2.910   2.695   9.040 -0.1104 -0.1655  0.6814
  111OSM   H15S11518   2.927   2.591   9.004 -1.4183 -0.1435 -0.0420
  111OSM   H15T11519   3.009   2.732   9.073  0.4385  0.8643 -1.9940
  111OSM   C16S11520   2.861   2.781   8.924 -0.1848  0.3072  0.1386
  111OSM   H16S11521   2.833   2.881   8.964  0.3012 -0.5068  2.5801
  111OSM   H16T11522   2.767   2.740   8.882  0.2661  0.3617 -0.9431
  111OSM   C17S11523   2.967   2.786   8.811 -0.2480 -0.5281 -0.1817
  111OSM   H17S11524   2.986   2.689   8.762  0.7976 -0.2622 -0.3301
  111OSM   H17T11525   3.054   2.829   8.866 -0.2576 -0.6633 -0.0596
  111OSM   C18S11526   2.928   2.884   8.694 -0.1011  0.5258 -0.4834
  111OSM   H18S11527   2.846   2.839   8.634 -1.2306 -1.6405  2.5978
  111OSM   H18T11528   3.010   2.889   8.619 -0.6377 -1.4903 -1.2428
  111OSM   H18U11529   2.915   2.983   8.742  0.1353  1.0641 -1.5018
  111OSM    C1F11530   3.212   2.130  10.316 -0.7064 -0.0126 -0.4721
  111OSM     OF11531   3.157   2.046  10.388 -0.4131 -0.3010 -0.4538
  111OSM    C2F11532   3.296   2.090  10.191  0.3200 -0.1445 -0.7317
  111OSM    H2F11533   3.391   2.148  10.191  1.0963 -1.3890  0.2869
  111OSM    H2G11534   3.232   2.129  10.108 -1.1515  1.6140  1.1728
  111OSM    C3F11535   3.314   1.935  10.173  0.1382 -0.1476  0.2766
  111OSM    H3F11536   3.221   1.880  10.199 -0.4974  1.0059  0.4830
  111OSM    H3G11537   3.396   1.895  10.236  1.2281  0.7477 -0.5561
  111OSM    C4F11538   3.359   1.912  10.024 -0.1728  0.3272 -0.9209
  111OSM    H4F11539   3.441   1.985  10.007 -2.1394  2.2408 -2.2921
  111OSM    H4G11540   3.280   1.943   9.953 -1.1080 -0.5803 -0.2923
  111OSM    C5F11541   3.401   1.771   9.996  0.3531  1.0064 -1.0528
  111OSM    H5F11542   3.310   1.711  10.017  1.0763 -0.3325 -1.6520
  111OSM    H5G11543   3.484   1.741  10.064 -2.0176 -3.4715  0.0789
  111OSM    C6F11544   3.443   1.749   9.849 -0.3727  0.1490 -0.1439
  111OSM    H6F11545   3.521   1.823   9.822  0.1469 -0.1695  0.4657
  111OSM    H6G11546   3.364   1.771   9.775 -0.3107  0.6241 -0.0655
  111OSM    C7F11547   3.495   1.601   9.828 -0.2016  0.5000 -0.2302
  111OSM    H7F11548   3.417   1.524   9.843  0.5469 -0.2050  0.1226
  111OSM    H7G11549   3.577   1.579   9.900 -1.3537 -1.7715  0.4509
  111OSM    C8F11550   3.557   1.587   9.680 -0.1070 -0.1710  0.4608
  111OSM    H8F11551   3.583   1.480   9.670 -0.8410 -0.5531  2.4120
  111OSM    H8G11552   3.647   1.652   9.673  0.3781 -0.7310  1.4226
  111OSM    C9F11553   3.466   1.619   9.571  0.4901 -0.7500 -0.4769
  111OSM    H9F11554   3.363   1.583   9.584 -0.0935  0.5274 -1.4447
  111OSM   C10F11555   3.491   1.690   9.462 -0.4645 -0.2121 -0.6419
  111OSM   H10F11556   3.398   1.711   9.407 -0.5340  2.6833  0.4589
  111OSM   C11F11557   3.621   1.749   9.418  0.1286  0.3134  0.1630
  111OSM   H11F11558   3.693   1.672   9.383 -2.1248 -1.0480 -1.5811
  111OSM   H11G11559   3.670   1.802   9.503 -0.2612  2.1243 -0.7085
  111OSM   C12F11560   3.609   1.856   9.305 -0.4336 -0.5407 -0.5227
  111OSM   H12F11561   3.713   1.887   9.283 -0.9993  1.8162  0.0136
  111OSM   H12G11562   3.574   1.953   9.347  0.9495 -0.0980 -0.3903
  111OSM   C13F11563   3.528   1.830   9.175  0.7265 -0.1805  0.5739
  111OSM   H13F11564   3.418   1.828   9.187  0.4457  0.5868 -1.6779
  111OSM   H13G11565   3.563   1.730   9.144  0.1489  0.0701 -0.9278
  111OSM   C14F11566   3.565   1.938   9.067 -0.5728  0.5762 -0.7052
  111OSM   H14F11567   3.674   1.920   9.059 -0.5764  0.5901 -0.7917
  111OSM   H14G11568   3.553   2.041   9.108  2.1933  0.9292 -0.6896
  111OSM   C15F11569   3.513   1.902   8.934 -0.6353 -0.4094  0.0172
  111OSM   H15F11570   3.402   1.909   8.930 -0.5577  1.2729  0.4496
  111OSM   H15G11571   3.541   1.796   8.915  1.2033  0.3711 -1.7663
  111OSM   C16F11572   3.573   1.979   8.810  0.6313  0.8753 -0.1540
  111OSM   H16F11573   3.564   2.087   8.835  0.2348  1.3590 -2.2842
  111OSM   H16G11574   3.515   1.967   8.716  0.3893  2.3504 -0.1999
  111OSM   C17F11575   3.725   1.948   8.773  0.0445 -0.3130 -0.5422
  111OSM   H17F11576   3.739   1.838   8.759  1.4181 -0.0993 -0.8921
  111OSM   H17G11577   3.780   1.982   8.863  0.3439  0.0504 -0.8634
  111OSM   C18F11578   3.770   2.011   8.642  0.2665 -0.1474  0.1894
  111OSM   H18F11579   3.687   1.991   8.570  0.4582 -2.3095  0.5149
  111OSM   H18G11580   3.868   1.976   8.603  0.7371  1.2409  0.1106
  111OSM   H18H11581   3.770   2.122   8.642 -1.0920 -0.1315 -1.4295
  112OSM      N11582   4.043   6.511  11.400 -0.5077  0.7348  0.5741
  112OSM    C1511583   3.893   6.491  11.392 -0.0990  0.3982  0.1034
  112OSM   H15A11584   3.847   6.511  11.488  0.0075 -0.5888  0.3653
  112OSM   H15B11585   3.872   6.387  11.376 -0.7311  0.4482  0.5700
  112OSM   H15C11586   3.839   6.550  11.319 -0.9504 -2.5352 -1.7057
  112OSM    C1411587   4.070   6.657  11.441 -0.1811  0.4716  0.7319
  112OSM   H14A11588   4.009   6.720  11.379  1.5341  1.2741 -0.1629
  112OSM   H14B11589   4.176   6.672  11.423  0.3630 -1.8331  1.7832
  112OSM   H14C11590   4.058   6.659  11.549  0.2273 -2.5602  0.8753
  112OSM    C1311591   4.105   6.426  11.506 -0.0281 -0.1402 -0.0651
  112OSM   H13A11592   4.021   6.395  11.566  0.7248 -1.5257  0.3090
  112OSM   H13B11593   4.178   6.478  11.566 -0.4480  0.6800 -0.2575
  112OSM   H13C11594   4.152   6.336  11.469  0.1600 -0.1053  0.0865
  112OSM    C1211595   4.106   6.483  11.265 -0.6374 -0.7278  0.9085
  112OSM   H12A11596   4.104   6.377  11.243  1.8391 -0.8554  1.2289
  112OSM   H12B11597   4.210   6.508  11.274  0.2093 -3.9492  0.5226
  112OSM    C1111598   4.053   6.556  11.136  0.5655 -0.1218  0.8808
  112OSM   H11A11599   4.130   6.553  11.056  0.0550  1.2131  0.3225
  112OSM   H11B11600   4.030   6.664  11.148 -1.9766 -0.4958 -0.1168
  112OSM      P11601   3.937   6.331  11.060 -0.1212 -0.0370 -0.2657
  112OSM    O1311602   4.051   6.268  11.110  0.2697 -0.0574  0.0102
  112OSM    O1411603   3.810   6.276  11.098 -0.1563 -0.2284  0.5821
  112OSM    O1111604   3.938   6.324  10.904 -0.3904  0.5782  0.4439
  112OSM    O1211605   3.930   6.494  11.086 -0.1481  0.8795 -0.0769
  112OSM    C1S11606   3.966   6.438  10.816  0.2199 -0.0976 -0.7307
  112OSM    H1S11607   4.068   6.477  10.831 -0.0937  0.2959  0.4115
  112OSM    H1T11608   3.891   6.509  10.857 -0.2024  0.7311 -2.8997
  112OSM     NF11609   3.954   6.516  10.589  0.0258 -0.0116 -0.1543
  112OSM    HNF11610   3.880   6.574  10.556  1.2132  1.1618 -0.8149
  112OSM    C2S11611   3.922   6.399  10.671 -0.5361 -0.0313  0.4256
  112OSM    H2S11612   3.975   6.308  10.636 -1.3469 -0.9491  1.5665
  112OSM    C3S11613   3.771   6.363  10.659 -0.4004  0.4162  0.7916
  112OSM    H3S11614   3.718   6.459  10.679  0.6790  1.2342 -0.1553
  112OSM     O311615   3.722   6.261  10.749  0.8266  0.0714  0.2888
  112OSM    HO311616   3.777   6.260  10.828 -1.5520  2.0359  2.0575
  112OSM    C4S11617   3.739   6.330  10.508 -0.3546 -0.1197  0.7235
  112OSM    H4S11618   3.717   6.416  10.444  1.8807 -0.3421 -0.3940
  112OSM    C5S11619   3.723   6.214  10.452 -0.2323 -0.8900 -0.1608
  112OSM    H5S11620   3.716   6.128  10.521  2.1024  0.4022  1.7539
  112OSM    C6S11621   3.699   6.194  10.302  0.2081 -0.4459  0.0034
  112OSM    H6S11622   3.593   6.169  10.280  0.3392 -0.8371 -0.1777
  112OSM    H6T11623   3.761   6.111  10.262  1.7089  0.2021  0.9456
  112OSM    C7S11624   3.736   6.323  10.223 -0.6622 -0.7054 -0.1346
  112OSM    H7S11625   3.839   6.361  10.235  0.8078 -3.9834 -1.6460
  112OSM    H7T11626   3.669   6.407  10.251  0.8115  0.4106  0.0553
  112OSM    C8S11627   3.711   6.305  10.068  0.3633 -0.6013 -0.0223
  112OSM    H8S11628   3.707   6.408  10.027  0.1055 -0.9328 -0.8393
  112OSM    H8T11629   3.609   6.264  10.051 -0.4622  0.0792  2.9402
  112OSM    C9S11630   3.819   6.227   9.993 -0.2023  0.4217 -0.4253
  112OSM    H9S11631   3.833   6.122  10.026  0.5120  0.6117 -0.1223
  112OSM    H9T11632   3.919   6.273  10.010 -0.9603  2.5691 -1.5142
  112OSM   C10S11633   3.796   6.228   9.842 -1.0900 -0.3577  0.3589
  112OSM   H10S11634   3.839   6.321   9.799 -1.1062 -1.7228 -2.7218
  112OSM   H10T11635   3.688   6.229   9.817 -1.4996 -2.3577  1.9026
  112OSM   C11S11636   3.870   6.110   9.775  0.2718  0.3157 -0.0470
  112OSM   H11S11637   3.813   6.018   9.797 -1.0773  0.5788 -2.3302
  112OSM   H11T11638   3.971   6.103   9.820  0.4895 -0.8746 -0.7025
  112OSM   C12S11639   3.856   6.132   9.620  0.3561 -0.0915 -0.0758
  112OSM   H12S11640   3.901   6.231   9.598 -0.2316 -0.1800 -1.7289
  112OSM   H12T11641   3.750   6.137   9.587 -0.3845  4.1257  2.5695
  112OSM   C13S11642   3.936   6.026   9.547 -0.0283  0.0894  0.5634
  112OSM   H13S11643   3.907   5.923   9.577  1.4970 -1.0251 -1.6144
  112OSM   H13T11644   4.040   6.053   9.576 -0.0171  0.2645  0.3636
  112OSM   C14S11645   3.921   6.032   9.391  0.0592 -0.3634 -0.4552
  112OSM   H14S11646   3.965   6.129   9.360  0.2487  0.2958  1.7443
  112OSM   H14T11647   3.814   6.030   9.363  0.6646  0.5898 -2.8965
  112OSM   C15S11648   3.979   5.925   9.303  0.0227 -0.1085 -0.5280
  112OSM   H15S11649   3.902   5.852   9.270  1.6893 -1.1510 -2.2146
  112OSM   H15T11650   4.057   5.868   9.357 -1.1122 -0.8399  0.3811
  112OSM   C16S11651   4.033   5.985   9.172 -0.8228  0.4373 -0.1335
  112OSM   H16S11652   4.068   5.893   9.120  3.2319  1.1801  1.1167
  112OSM   H16T11653   4.116   6.057   9.185  0.4812 -0.7047 -1.9395
  112OSM   C17S11654   3.924   6.055   9.089 -0.4163  0.2200  0.1214
  112OSM   H17S11655   3.973   6.087   8.995  3.1693 -1.4714  1.2959
  112OSM   H17T11656   3.884   6.143   9.143 -1.1956  0.7366 -1.2863
  112OSM   C18S11657   3.802   5.968   9.048  0.4916  0.2372  0.2948
  112OSM   H18S11658   3.742   5.948   9.139 -1.1901  0.2094 -0.7959
  112OSM   H18T11659   3.824   5.871   9.000 -0.4888  0.4031 -0.5205
  112OSM   H18U11660   3.745   6.031   8.976  0.1037 -1.2873 -0.7539
  112OSM    C1F11661   4.078   6.540  10.551  0.4519  0.8418  0.0021
  112OSM     OF11662   4.178   6.488  10.604  0.1505  0.5595  0.2798
  112OSM    C2F11663   4.085   6.636  10.434 -0.0306  0.0351 -0.0531
  112OSM    H2F11664   4.184   6.680  10.412 -0.7260  2.5087  1.4849
  112OSM    H2G11665   4.023   6.726  10.457 -0.1321  0.7537 -3.0142
  112OSM    C3F11666   4.039   6.573  10.300  0.2520 -0.2314  0.0233
  112OSM    H3F11667   3.934   6.546  10.323  0.5593 -0.5888  1.0501
  112OSM    H3G11668   4.093   6.478  10.278  0.6707  0.5275 -2.3664
  112OSM    C4F11669   4.043   6.665  10.174 -0.1412  0.1604  0.4997
  112OSM    H4F11670   4.146   6.692  10.144 -0.1145 -1.7147 -1.2422
  112OSM    H4G11671   3.996   6.756  10.218  1.9540  2.2377 -1.4434
  112OSM    C5F11672   3.964   6.599  10.061  0.1770  0.3980 -0.0896
  112OSM    H5F11673   3.877   6.556  10.116  0.5775 -0.4438 -0.0984
  112OSM    H5G11674   4.018   6.514  10.013 -2.1296 -1.0342 -0.2375
  112OSM    C6F11675   3.924   6.699   9.945 -0.0187  0.1740 -0.1237
  112OSM    H6F11676   4.018   6.750   9.914  0.3495 -0.6880 -0.4372
  112OSM    H6G11677   3.854   6.774   9.988 -0.8366  0.1002 -1.2884
  112OSM    C7F11678   3.880   6.632   9.817 -0.5488 -0.4164 -0.4141
  112OSM    H7F11679   3.790   6.569   9.832 -0.2837 -0.2263  2.2107
  112OSM    H7G11680   3.958   6.570   9.767  0.5849 -0.2120  1.0517
  112OSM    C8F11681   3.829   6.736   9.717  0.0056  0.6236  0.4531
  112OSM    H8F11682   3.904   6.814   9.695  1.3728 -0.1466  2.2359
  112OSM    H8G11683   3.743   6.787   9.767 -0.1021 -0.4793  1.4361
  112OSM    C9F11684   3.770   6.662   9.596  0.4438 -0.0773  0.5589
  112OSM    H9F11685   3.729   6.561   9.613 -1.0175  0.1759 -1.3119
  112OSM   C10F11686   3.770   6.708   9.469 -0.1805 -0.2740 -0.3732
  112OSM   H10F11687   3.731   6.648   9.385 -0.6954 -0.6910  0.1623
  112OSM   C11F11688   3.823   6.841   9.428  0.4957  1.0563 -0.4883
  112OSM   H11F11689   3.866   6.821   9.327  1.9273  0.3116  0.2592
  112OSM   H11G11690   3.897   6.886   9.498 -1.1395  0.3094  1.7805
  112OSM   C12F11691   3.722   6.944   9.403 -0.4036 -0.3670 -0.5243
  112OSM   H12F11692   3.652   6.957   9.488 -0.3860 -0.3741 -0.5096
  112OSM   H12G11693   3.667   6.918   9.310 -0.9134 -1.2970  0.0281
  112OSM   C13F11694   3.785   7.090   9.379  0.1465  0.0108  0.7698
  112OSM   H13F11695   3.876   7.084   9.315 -0.0851  0.0317  0.4374
  112OSM   H13G11696   3.824   7.115   9.480  1.8049 -1.1940  0.4480
  112OSM   C14F11697   3.684   7.188   9.330 -0.0547  0.0420 -0.4877
  112OSM   H14F11698   3.678   7.283   9.388  0.0977 -0.0731 -0.2853
  112OSM   H14G11699   3.581   7.150   9.348  0.7867 -1.9189  0.2305
  112OSM   C15F11700   3.677   7.209   9.172 -0.1861  0.0647 -0.0251
  112OSM   H15F11701   3.575   7.250   9.153 -0.8255 -2.0583 -1.3074
  112OSM   H15G11702   3.679   7.110   9.122 -1.4217  0.1719 -0.3076
  112OSM   C16F11703   3.785   7.298   9.115 -0.1830  0.1082  0.6387
  112OSM   H16F11704   3.873   7.289   9.183 -1.5664 -1.5905  2.2556
  112OSM   H16G11705   3.767   7.406   9.131 -0.5986  0.2901 -1.0198
  112OSM   C17F11706   3.839   7.261   8.978  0.0631  0.4535  0.2894
  112OSM   H17F11707   3.749   7.271   8.914  0.7826 -2.0295 -1.2071
  112OSM   H17G11708   3.872   7.155   8.975  1.2217  0.8187 -0.0830
  112OSM   C18F11709   3.953   7.341   8.916  0.3095 -0.4289  0.2647
  112OSM   H18F11710   3.946   7.444   8.958  0.9878  0.1331 -0.9624
  112OSM   H18G11711   3.949   7.347   8.805  3.1812  0.6127  0.1884
  112OSM   H18H11712   4.058   7.324   8.949  1.5060  0.3509 -2.9399
  113OSM      N11713   1.124   2.778  11.154 -0.0421  0.5845  0.3315
  113OSM    C1511714   1.210   2.684  11.078 -0.2491 -0.4083 -0.1702
  113OSM   H15A11715   1.163   2.587  11.069 -2.3807  0.5255  0.5648
  113OSM   H15B11716   1.303   2.670  11.130 -1.0988 -0.0372  1.4628
  113OSM   H15C11717   1.234   2.730  10.983 -0.6929  0.2299  0.0236
  113OSM    C1411718   1.105   2.723  11.294 -0.4803  0.3351  0.0683
  113OSM   H14A11719   1.031   2.780  11.349 -1.7521 -3.2419  2.2170
  113OSM   H14B11720   1.199   2.721  11.348 -1.2607 -0.6413  1.4363
  113OSM   H14C11721   1.080   2.619  11.298 -1.3351  0.4372 -2.0243
  113OSM    C1311722   1.191   2.910  11.165 -0.1515 -0.3238 -0.1362
  113OSM   H13A11723   1.288   2.900  11.211  0.9160 -1.4008 -2.5308
  113OSM   H13B11724   1.136   2.970  11.236  0.4068 -0.0167  0.0332
  113OSM   H13C11725   1.213   2.948  11.066  1.5088 -0.2052  0.2706
  113OSM    C1211726   0.994   2.803  11.088 -0.2813  0.5588 -0.0230
  113OSM   H12A11727   0.927   2.839  11.164 -0.5974 -3.0563  1.4956
  113OSM   H12B11728   0.944   2.710  11.066  0.7872  0.1857 -0.9339
  113OSM    C1111729   0.980   2.874  10.954 -0.1307 -0.7595 -0.1944
  113OSM   H11A11730   0.873   2.872  10.923  0.3359 -0.1070 -1.9418
  113OSM   H11B11731   1.049   2.827  10.880  0.1534  0.3629 -0.6565
  113OSM      P11732   0.917   3.126  11.021 -0.1860  0.0614 -0.2336
  113OSM    O1311733   0.834   3.077  11.128  0.2979  0.0353 -0.1278
  113OSM    O1411734   1.001   3.238  11.070 -0.4048  0.5740  0.6643
  113OSM    O1111735   0.832   3.161  10.901 -0.2777  0.2377  0.3461
  113OSM    O1211736   1.014   3.015  10.972 -0.1906  0.0399 -0.1948
  113OSM    C1S11737   0.884   3.188  10.767 -0.7861  0.4809 -0.3869
  113OSM    H1S11738   0.901   3.092  10.712 -2.3052 -1.0791  1.7696
  113OSM    H1T11739   0.987   3.229  10.774 -0.6091  0.2620 -1.6185
  113OSM     NF11740   0.887   3.314  10.564 -0.2404  0.5234  0.0094
  113OSM    HNF11741   0.949   3.392  10.560  0.5322 -0.0792  0.1928
  113OSM    C2S11742   0.814   3.299  10.687 -0.0813  0.0328 -0.1111
  113OSM    H2S11743   0.709   3.273  10.666 -0.8490  0.9851  2.3704
  113OSM    C3S11744   0.814   3.429  10.777 -0.5946  0.1631 -0.0264
  113OSM    H3S11745   0.917   3.465  10.796 -0.3012  0.6815 -2.4442
  113OSM     O311746   0.748   3.419  10.899 -0.1094 -0.4865  0.9305
  113OSM    HO311747   0.721   3.327  10.900 -0.8825 -0.2563  1.1068
  113OSM    C4S11748   0.763   3.548  10.693  0.3285 -0.3504  0.2903
  113OSM    H4S11749   0.825   3.567  10.603  2.2379 -0.3335  1.5745
  113OSM    C5S11750   0.651   3.620  10.701  1.2495  0.2879  0.4207
  113OSM    H5S11751   0.575   3.586  10.773  2.0838 -1.8308  0.3617
  113OSM    C6S11752   0.617   3.728  10.603 -0.5978  0.0342  0.2347
  113OSM    H6S11753   0.643   3.831  10.637 -1.4520  0.8922 -1.6472
  113OSM    H6T11754   0.508   3.725  10.580 -1.2811 -4.7387  3.4449
  113OSM    C7S11755   0.699   3.739  10.466 -0.3542  0.1790  0.2893
  113OSM    H7S11756   0.808   3.755  10.480 -0.7709  1.6438  2.1168
  113OSM    H7T11757   0.666   3.827  10.409 -1.7756  0.2606  1.2141
  113OSM    C8S11758   0.681   3.621  10.367  0.7548  0.1627 -0.0983
  113OSM    H8S11759   0.573   3.598  10.361  0.3455  1.4871  1.7654
  113OSM    H8T11760   0.726   3.530  10.413  0.4303  0.7074  1.3203
  113OSM    C9S11761   0.743   3.640  10.233 -0.1320 -0.0322  0.0409
  113OSM    H9S11762   0.851   3.617  10.243 -0.6037 -2.2180  0.4636
  113OSM    H9T11763   0.716   3.742  10.200 -0.2150  0.4518  1.5626
  113OSM   C10S11764   0.697   3.539  10.124 -0.3833 -0.9888 -0.7132
  113OSM   H10S11765   0.588   3.559  10.118 -0.2509  0.0680  0.2568
  113OSM   H10T11766   0.712   3.437  10.167  1.7325 -1.6985 -3.0225
  113OSM   C11S11767   0.764   3.554   9.987  0.5067  0.0665  0.7672
  113OSM   H11S11768   0.729   3.469   9.924  1.5988  1.3447 -1.6459
  113OSM   H11T11769   0.871   3.537  10.013  0.5497 -0.0571  0.5061
  113OSM   C12S11770   0.744   3.690   9.924  1.2708  0.4529 -0.2282
  113OSM   H12S11771   0.758   3.773   9.996 -1.0118 -1.2650  2.2994
  113OSM   H12T11772   0.636   3.702   9.901  1.0870  0.4135  0.5973
  113OSM   C13S11773   0.816   3.716   9.796  0.9558  0.0119  0.0415
  113OSM   H13S11774   0.910   3.657   9.795  2.0627  1.7383 -0.0316
  113OSM   H13T11775   0.838   3.824   9.783 -0.0228  0.1793 -0.2140
  113OSM   C14S11776   0.724   3.676   9.672 -0.0673 -0.1481  0.0933
  113OSM   H14S11777   0.665   3.584   9.693  1.0357 -1.6194 -2.9200
  113OSM   H14T11778   0.780   3.668   9.576  0.0861  1.7825 -0.0016
  113OSM   C15S11779   0.610   3.773   9.642  0.4773 -0.3204  0.5525
  113OSM   H15S11780   0.661   3.870   9.630  1.6469 -1.1515 -1.3856
  113OSM   H15T11781   0.537   3.778   9.726  0.1327  0.1039  0.2238
  113OSM   C16S11782   0.534   3.728   9.517 -0.2687  0.1827 -0.4898
  113OSM   H16S11783   0.497   3.626   9.541 -0.8426  0.7331  0.9952
  113OSM   H16T11784   0.608   3.707   9.437 -1.7261 -2.1380 -1.3136
  113OSM   C17S11785   0.419   3.820   9.486  1.0064  0.1151 -0.7690
  113OSM   H17S11786   0.460   3.922   9.503 -1.1750  1.2314 -1.9113
  113OSM   H17T11787   0.332   3.794   9.550  1.3933 -0.1390 -0.3485
  113OSM   C18S11788   0.379   3.807   9.344 -0.1549 -0.1628 -0.2975
  113OSM   H18S11789   0.468   3.836   9.284  0.6729 -0.2432  0.8808
  113OSM   H18T11790   0.295   3.876   9.322 -0.5289 -0.8882 -1.2157
  113OSM   H18U11791   0.348   3.705   9.310 -1.5433 -0.5528  2.0491
  113OSM    C1F11792   0.860   3.232  10.461  0.0288  0.0928  0.5863
  113OSM     OF11793   0.792   3.132  10.472 -0.1989 -0.7585  0.4454
  113OSM    C2F11794   0.923   3.276  10.336 -0.1399 -0.2887  0.8587
  113OSM    H2F11795   1.034   3.273  10.342 -0.1235 -2.6704  0.1628
  113OSM    H2G11796   0.899   3.383  10.320  0.1977 -0.1310  1.4030
  113OSM    C3F11797   0.858   3.199  10.224  0.3682  0.4809  0.0695
  113OSM    H3F11798   0.751   3.227  10.214 -0.5537 -2.6457  0.5943
  113OSM    H3G11799   0.875   3.089  10.234  1.3027  0.7187  1.1908
  113OSM    C4F11800   0.931   3.243  10.100  0.9527  0.0632  0.7477
  113OSM    H4F11801   1.039   3.216  10.109  0.4481 -1.8416  1.3393
  113OSM    H4G11802   0.926   3.354  10.089  4.1918  0.3141  1.1231
  113OSM    C5F11803   0.878   3.181   9.976  0.6427 -0.5152  0.2199
  113OSM    H5F11804   0.769   3.204   9.976  0.4319 -1.4477 -0.9158
  113OSM    H5G11805   0.893   3.071   9.979  1.5781 -0.3780  0.6742
  113OSM    C6F11806   0.935   3.241   9.849 -0.5063 -0.5511 -0.2329
  113OSM    H6F11807   1.041   3.209   9.842 -0.1800 -0.4818  3.3528
  113OSM    H6G11808   0.937   3.352   9.843 -0.3515 -0.5304  0.2272
  113OSM    C7F11809   0.859   3.193   9.722 -0.2366  0.3098 -0.6661
  113OSM    H7F11810   0.753   3.226   9.720 -0.3405 -0.0146 -0.5284
  113OSM    H7G11811   0.873   3.083   9.719 -0.7632  0.2436 -0.7660
  113OSM    C8F11812   0.930   3.241   9.599  0.1190  0.4494 -0.3699
  113OSM    H8F11813   0.887   3.190   9.511  0.7216 -0.0438 -0.3854
  113OSM    H8G11814   1.037   3.211   9.598 -0.7975 -3.1206  0.7761
  113OSM    C9F11815   0.902   3.390   9.580  0.5227 -0.0174 -0.4812
  113OSM    H9F11816   0.832   3.431   9.654  1.5048  0.1486  0.3659
  113OSM   C10F11817   0.948   3.466   9.483  1.2476  0.0273 -0.0778
  113OSM   H10F11818   0.914   3.570   9.495  1.6620  0.1525  0.0246
  113OSM   C11F11819   1.046   3.433   9.375  0.6264  0.1324 -0.5419
  113OSM   H11F11820   1.076   3.329   9.401 -2.6209 -0.3916  1.4106
  113OSM   H11G11821   1.141   3.485   9.399 -0.9601  1.6976  2.5932
  113OSM   C12F11822   0.992   3.433   9.233 -0.5698 -0.3616  0.3235
  113OSM   H12F11823   0.906   3.362   9.235  0.2886 -1.4148  0.4006
  113OSM   H12G11824   1.075   3.401   9.167  0.6762 -0.1829  1.7844
  113OSM   C13F11825   0.939   3.565   9.185 -0.1089 -0.3778 -0.6437
  113OSM   H13F11826   1.014   3.643   9.212 -0.2569  0.2197 -1.9213
  113OSM   H13G11827   0.837   3.571   9.229  0.0224 -3.0581  0.1236
  113OSM   C14F11828   0.938   3.563   9.028 -0.1499 -0.3252 -0.4227
  113OSM   H14F11829   1.035   3.579   8.976  0.4443 -2.0489  0.1254
  113OSM   H14G11830   0.874   3.649   9.000 -1.4306 -1.9136 -2.5052
  113OSM   C15F11831   0.876   3.435   8.970 -0.2646 -0.0408  0.6876
  113OSM   H15F11832   0.774   3.411   9.006 -0.9548 -0.1072 -1.2293
  113OSM   H15G11833   0.935   3.345   8.999 -1.3054 -0.8373  0.3524
  113OSM   C16F11834   0.870   3.446   8.817  0.2971 -1.1522  0.2242
  113OSM   H16F11835   0.970   3.445   8.768  0.1964 -1.2189  0.0200
  113OSM   H16G11836   0.831   3.544   8.782  0.8259 -0.5187  1.3862
  113OSM   C17F11837   0.790   3.321   8.760 -0.4238 -0.3387  0.4348
  113OSM   H17F11838   0.835   3.228   8.800  1.0998 -0.2855 -1.0725
  113OSM   H17G11839   0.815   3.311   8.652 -1.9526  1.8993 -0.1672
  113OSM   C18F11840   0.645   3.306   8.789 -1.0530 -0.2521  0.5209
  113OSM   H18F11841   0.598   3.221   8.735  1.6895 -2.0205  0.8689
  113OSM   H18G11842   0.585   3.395   8.761 -2.3455 -1.3351 -0.2099
  113OSM   H18H11843   0.628   3.280   8.895  1.9408 -2.3356  0.5386
  114OSM      N11844   2.835   6.127  11.427  0.5214  0.6147  0.8000
  114OSM    C1511845   2.701   6.063  11.422 -0.1931  0.0853 -0.2745
  114OSM   H15A11846   2.635   6.101  11.500  0.1236 -1.6712  0.8689
  114OSM   H15B11847   2.708   5.956  11.428  0.4583  0.1120 -0.5610
  114OSM   H15C11848   2.658   6.085  11.325  0.3018  1.0623 -0.2797
  114OSM    C1411849   2.816   6.275  11.418 -0.2101  0.4044 -0.5707
  114OSM   H14A11850   2.913   6.320  11.425 -0.3260  0.7244 -0.9442
  114OSM   H14B11851   2.756   6.320  11.495  0.7469  0.8241 -0.0700
  114OSM   H14C11852   2.783   6.305  11.319 -1.2830 -1.2405 -0.7269
  114OSM    C1311853   2.897   6.094  11.564  0.0781  0.4429 -0.3320
  114OSM   H13A11854   2.903   5.988  11.583  1.6064  0.9016  1.7947
  114OSM   H13B11855   2.842   6.140  11.645 -1.6300  0.1638 -1.2852
  114OSM   H13C11856   3.000   6.124  11.570  0.8564 -2.1740 -0.4938
  114OSM    C1211857   2.928   6.067  11.323 -0.4243 -0.0139  0.4767
  114OSM   H12A11858   2.944   5.963  11.347 -0.1247 -0.1040 -0.0854
  114OSM   H12B11859   3.026   6.108  11.344 -0.0558 -0.6745  0.0642
  114OSM    C1111860   2.901   6.061  11.171  0.0202 -0.2390 -0.5624
  114OSM   H11A11861   2.810   5.997  11.161 -1.2576  1.0800  2.2389
  114OSM   H11B11862   2.986   6.014  11.118  0.2060  1.0546 -1.4191
  114OSM      P11863   2.992   6.277  11.068  0.0092 -0.4588  0.7398
  114OSM    O1311864   2.930   6.409  11.049  0.2674  0.0305  0.5124
  114OSM    O1411865   3.119   6.275  11.150  0.0105 -0.0977 -0.1323
  114OSM    O1111866   3.032   6.209  10.928 -0.1639 -0.0995  0.5626
  114OSM    O1211867   2.878   6.188  11.120 -0.0301 -0.3137  0.2913
  114OSM    C1S11868   2.925   6.150  10.843  0.1048 -0.4212 -0.1819
  114OSM    H1S11869   2.835   6.215  10.844 -1.1532 -2.0508 -2.3576
  114OSM    H1T11870   2.888   6.048  10.868 -2.5773  0.4679 -0.3315
  114OSM     NF11871   2.855   6.075  10.619  0.0786 -0.1692 -0.7496
  114OSM    HNF11872   2.869   5.977  10.624  0.6377 -0.0182  0.8191
  114OSM    C2S11873   2.958   6.145  10.692 -0.9193 -0.0683  0.1314
  114OSM    H2S11874   2.981   6.245  10.652  2.3413 -1.0786 -0.6555
  114OSM    C3S11875   3.100   6.073  10.672  0.4549  0.2444  0.3249
  114OSM    H3S11876   3.074   5.965  10.664  2.0343 -0.2968  2.1232
  114OSM     O311877   3.182   6.075  10.790  0.3978  0.5181 -0.2328
  114OSM    HO311878   3.136   6.138  10.846 -0.0998  1.3088 -1.5192
  114OSM    C4S11879   3.159   6.115  10.551 -0.1192 -0.1394  0.3659
  114OSM    H4S11880   3.097   6.078  10.468  0.5392  1.0387 -0.6580
  114OSM    C5S11881   3.264   6.198  10.533 -0.3769 -1.0048 -1.6542
  114OSM    H5S11882   3.304   6.242  10.626 -1.3138 -1.3167 -1.0973
  114OSM    C6S11883   3.320   6.257  10.408  0.3293 -0.0504 -0.3804
  114OSM    H6S11884   3.416   6.203  10.394 -0.1006 -0.6407 -1.1319
  114OSM    H6T11885   3.340   6.363  10.431 -0.6595  0.4989 -1.9736
  114OSM    C7S11886   3.225   6.235  10.289  0.0712  0.1866 -0.3807
  114OSM    H7S11887   3.124   6.274  10.312 -0.3966 -1.4744  0.4420
  114OSM    H7T11888   3.212   6.128  10.263  1.3677 -0.1785  0.4124
  114OSM    C8S11889   3.284   6.309  10.164  0.0142  0.3262  1.1327
  114OSM    H8S11890   3.389   6.275  10.152 -0.3310 -1.2580  2.4487
  114OSM    H8T11891   3.301   6.417  10.183  0.1818  0.3561  0.8244
  114OSM    C9S11892   3.203   6.285  10.030 -0.3524  0.8098 -0.0121
  114OSM    H9S11893   3.095   6.313  10.033 -0.2773  1.3176 -1.6323
  114OSM    H9T11894   3.203   6.174  10.027 -0.0339  0.7726  1.1460
  114OSM   C10S11895   3.263   6.342   9.902 -0.1744  0.2317 -0.4869
  114OSM   H10S11896   3.369   6.311   9.904 -0.6614 -1.4382  0.2584
  114OSM   H10T11897   3.270   6.452   9.914  5.2604 -0.0894  0.3740
  114OSM   C11S11898   3.204   6.278   9.782  0.0320  0.0493 -0.1443
  114OSM   H11S11899   3.103   6.318   9.760 -0.1243 -0.3475 -0.1382
  114OSM   H11T11900   3.184   6.171   9.800  2.7786 -0.3113  1.0949
  114OSM   C12S11901   3.287   6.282   9.653  0.3696 -0.2397  0.1648
  114OSM   H12S11902   3.379   6.232   9.691  1.1172  1.5037  0.6726
  114OSM   H12T11903   3.318   6.387   9.639 -0.9188  0.1335  0.0015
  114OSM   C13S11904   3.229   6.218   9.526  0.0783 -0.2624 -0.7458
  114OSM   H13S11905   3.165   6.297   9.481  0.8169 -0.4607 -2.1587
  114OSM   H13T11906   3.170   6.128   9.555 -2.7450  1.4054 -1.1598
  114OSM   C14S11907   3.349   6.185   9.433  0.8302  0.1288 -0.7971
  114OSM   H14S11908   3.419   6.112   9.479  0.1243 -0.7400 -1.0740
  114OSM   H14T11909   3.411   6.274   9.408  2.8216 -0.2103  2.6640
  114OSM   C15S11910   3.297   6.116   9.303 -1.1020 -0.1729 -0.2029
  114OSM   H15S11911   3.253   6.199   9.244 -0.9994  0.6626  0.8872
  114OSM   H15T11912   3.213   6.053   9.338 -0.2541 -2.9014 -2.8009
  114OSM   C16S11913   3.409   6.046   9.213 -0.2478  0.4005  0.7807
  114OSM   H16S11914   3.450   5.960   9.272 -1.3923 -1.6522 -1.3420
  114OSM   H16T11915   3.495   6.116   9.212 -0.9931  1.3503  2.3799
  114OSM   C17S11916   3.351   6.007   9.074  0.3705  0.0822  0.2306
  114OSM   H17S11917   3.442   5.957   9.034  0.3248 -1.9185  2.5146
  114OSM   H17T11918   3.322   6.096   9.014  3.3680 -0.0491 -1.5346
  114OSM   C18S11919   3.231   5.917   9.079 -0.0821 -0.3403 -0.1153
  114OSM   H18S11920   3.149   5.953   9.145  0.4025  2.0755 -0.7890
  114OSM   H18T11921   3.259   5.815   9.114  2.0180  0.8360  1.7614
  114OSM   H18U11922   3.174   5.903   8.985 -0.4830 -1.3351  0.2671
  114OSM    C1F11923   2.743   6.141  10.580  0.2074 -0.2117  0.0112
  114OSM     OF11924   2.735   6.265  10.587 -0.4462 -0.4045  0.1232
  114OSM    C2F11925   2.622   6.064  10.530  0.2701  0.2724  0.8595
  114OSM    H2F11926   2.529   6.066  10.590 -1.2789  0.0603 -1.4961
  114OSM    H2G11927   2.643   5.954  10.527 -2.6133 -0.2835 -1.6675
  114OSM    C3F11928   2.569   6.095  10.388  0.2151 -0.0663 -0.5912
  114OSM    H3F11929   2.551   6.205  10.391  1.8131  0.1934  0.1605
  114OSM    H3G11930   2.468   6.049  10.380 -0.3603  1.2870 -1.2093
  114OSM    C4F11931   2.658   6.062  10.271  0.0568 -0.3663  0.6736
  114OSM    H4F11932   2.659   5.951  10.275  3.5389 -0.4280 -0.1224
  114OSM    H4G11933   2.762   6.095  10.288  0.8932 -2.5535 -0.0276
  114OSM    C5F11934   2.613   6.119  10.133 -0.5488 -0.1747  0.5451
  114OSM    H5F11935   2.624   6.229  10.142  1.2273 -0.3242  0.3863
  114OSM    H5G11936   2.504   6.101  10.122 -0.4393  0.0430 -0.9251
  114OSM    C6F11937   2.686   6.061  10.002  0.2810 -0.5432  0.0457
  114OSM    H6F11938   2.797   6.068  10.009  0.3924 -0.7072 -1.4179
  114OSM    H6G11939   2.667   6.127   9.914  3.0961  0.8356  0.4070
  114OSM    C7F11940   2.645   5.917   9.975  0.3791 -0.0840  0.0686
  114OSM    H7F11941   2.535   5.920   9.986  0.1889  1.2434 -2.0419
  114OSM    H7G11942   2.687   5.854  10.057  0.8222 -0.7706 -0.6785
  114OSM    C8F11943   2.681   5.863   9.834  0.3731 -0.7480 -0.3453
  114OSM    H8F11944   2.645   5.758   9.843  0.7453 -0.8432  0.1046
  114OSM    H8G11945   2.792   5.856   9.827  0.7421  1.0177  2.7125
  114OSM    C9F11946   2.603   5.924   9.721 -0.1168  0.3944 -0.1848
  114OSM    H9F11947   2.503   5.956   9.753 -0.8320 -0.5211 -1.4660
  114OSM   C10F11948   2.640   5.943   9.592  0.3340  0.1612 -0.2958
  114OSM   H10F11949   2.579   5.999   9.521 -2.6778 -0.0036  2.0717
  114OSM   C11F11950   2.775   5.899   9.545  0.3949  0.2476 -0.3364
  114OSM   H11F11951   2.784   5.793   9.575  2.5356  0.7532  0.9258
  114OSM   H11G11952   2.858   5.952   9.596  0.1490  1.5033 -1.2158
  114OSM   C12F11953   2.791   5.914   9.393 -0.5175 -0.0873  0.0733
  114OSM   H12F11954   2.899   5.912   9.370 -0.4419 -0.7030  0.4681
  114OSM   H12G11955   2.771   6.021   9.370  0.7201  0.1533  0.1155
  114OSM   C13F11956   2.718   5.798   9.331  0.5841  0.6075 -0.2530
  114OSM   H13F11957   2.613   5.804   9.366  0.2306  3.2518 -1.5761
  114OSM   H13G11958   2.745   5.701   9.376  2.8454  0.0987 -2.6225
  114OSM   C14F11959   2.718   5.791   9.179  0.2161  0.1397  0.2141
  114OSM   H14F11960   2.658   5.699   9.162 -1.4567  1.3057 -0.2484
  114OSM   H14G11961   2.820   5.771   9.138 -0.1470 -0.9691 -0.1670
  114OSM   C15F11962   2.654   5.912   9.109 -1.0132 -0.2678  0.1934
  114OSM   H15F11963   2.723   5.992   9.141  2.8745 -3.5817  0.4168
  114OSM   H15G11964   2.556   5.952   9.142 -1.1836  0.0636 -0.6918
  114OSM   C16F11965   2.632   5.907   8.956 -1.1355  0.0606  0.3625
  114OSM   H16F11966   2.725   5.859   8.918 -0.2684  1.5042  0.6239
  114OSM   H16G11967   2.625   6.013   8.922 -1.0862  0.0115  0.1980
  114OSM   C17F11968   2.504   5.834   8.906  0.2981  0.5764  0.1554
  114OSM   H17F11969   2.412   5.896   8.918 -0.6180 -0.2432 -2.2743
  114OSM   H17G11970   2.485   5.737   8.957 -3.1049 -2.0052 -5.5038
  114OSM   C18F11971   2.510   5.806   8.757  0.3648 -0.1290  0.2876
  114OSM   H18F11972   2.581   5.723   8.739  0.2880 -0.2686  0.6185
  114OSM   H18G11973   2.534   5.902   8.708 -0.7018 -0.4681 -0.9343
  114OSM   H18H11974   2.411   5.773   8.718  0.2355  0.5162  0.0762
  115OSM      N11975   0.578   5.643  11.174  0.1573 -0.0375 -0.6714
  115OSM    C1511976   0.653   5.514  11.160 -0.3878  0.0118 -0.3155
  115OSM   H15A11977   0.755   5.541  11.138  0.0822 -1.8486 -0.5046
  115OSM   H15B11978   0.608   5.465  11.074 -1.3785  1.4644 -0.6373
  115OSM   H15C11979   0.648   5.449  11.246 -2.2233 -1.4187 -1.4583
  115OSM    C1411980   0.623   5.696  11.308 -0.2420 -0.0029  0.2167
  115OSM   H14A11981   0.730   5.707  11.301  0.3038 -3.0618  2.8385
  115OSM   H14B11982   0.599   5.626  11.386  2.5030  0.0890  1.2183
  115OSM   H14C11983   0.592   5.796  11.334 -0.2964  0.1266 -0.3314
  115OSM    C1311984   0.612   5.750  11.070  0.0438 -0.0319  0.2181
  115OSM   H13A11985   0.578   5.850  11.092  2.4765  0.2652  2.9488
  115OSM   H13B11986   0.572   5.720  10.975 -0.5744  0.2468  0.3936
  115OSM   H13C11987   0.720   5.760  11.071 -0.0270  0.6978  1.0543
  115OSM    C1211988   0.433   5.617  11.179 -0.0674 -0.5934  0.6157
  115OSM   H12A11989   0.391   5.708  11.218 -0.3205  0.4545 -1.9524
  115OSM   H12B11990   0.408   5.529  11.236  1.1485 -2.3202 -1.3930
  115OSM    C1111991   0.355   5.585  11.051 -0.2259  0.6405 -0.0201
  115OSM   H11A11992   0.356   5.668  10.977 -0.9761  1.6975  1.1181
  115OSM   H11B11993   0.246   5.575  11.072 -0.2969  1.8720  0.2309
  115OSM      P11994   0.350   5.323  11.011  0.2348 -0.2470 -0.0516
  115OSM    O1311995   0.456   5.227  10.977  0.4288  0.2229  0.2442
  115OSM    O1411996   0.279   5.317  11.145  0.2133 -0.3008 -0.4800
  115OSM    O1111997   0.232   5.305  10.904  0.4466 -0.3749 -0.4796
  115OSM    O1211998   0.407   5.473  10.986  0.3702  0.1188 -0.2709
  115OSM    C1S11999   0.152   5.399  10.833 -0.2326 -0.5321  0.1821
  115OSM    H1S12000   0.226   5.476  10.802  1.1021 -1.5036  0.9219
  115OSM    H1T12001   0.074   5.451  10.893  1.6024  2.0221  0.4281
  115OSM     NF12002   0.043   5.453  10.616  0.0083  0.3004  0.7124
  115OSM    HNF12003  -0.053   5.481  10.617 -0.9964 -2.9963  0.8379
  115OSM    C2S12004   0.089   5.339  10.699  0.1871 -0.4978  0.2325
  115OSM    H2S12005   0.168   5.289  10.640  0.4425  0.0119  0.1425
  115OSM    C3S12006  -0.021   5.242  10.738 -0.1575  0.5417  0.1438
  115OSM    H3S12007  -0.086   5.310  10.797  0.7753  1.8345 -0.3089
  115OSM     O312008   0.018   5.143  10.835 -1.1131 -0.6887  0.1916
  115OSM    HO312009   0.109   5.170  10.855 -1.3545  0.7267 -0.5537
  115OSM    C4S12010  -0.088   5.196  10.609  0.0356 -0.2138  0.0165
  115OSM    H4S12011  -0.180   5.248  10.578 -0.3264 -0.6015  0.4384
  115OSM    C5S12012  -0.052   5.080  10.546 -0.0620  0.1075 -0.2656
  115OSM    H5S12013   0.017   5.010  10.596  0.2127  1.7236  1.6846
  115OSM    C6S12014  -0.119   5.032  10.418  0.1636  0.7130 -0.0996
  115OSM    H6S12015  -0.142   4.923  10.419 -0.4731  0.8397  0.8096
  115OSM    H6T12016  -0.048   5.047  10.335  0.2410  1.9389  0.1815
  115OSM    C7S12017  -0.249   5.099  10.379 -0.2486  0.1235  0.2186
  115OSM    H7S12018  -0.246   5.210  10.382 -0.2631  0.1498 -0.5655
  115OSM    H7T12019  -0.326   5.068  10.453 -1.3678  1.1012 -0.5098
  115OSM    C8S12020  -0.306   5.071  10.242 -0.2737 -0.2950 -0.5580
  115OSM    H8S12021  -0.229   5.074  10.163 -1.1029 -0.8353 -1.4031
  115OSM    H8T12022  -0.375   5.156  10.223  0.8207  1.2875  2.2314
  115OSM    C9S12023  -0.383   4.939  10.237  0.1961 -0.1932  0.3519
  115OSM    H9S12024  -0.458   4.944  10.319 -0.1874  1.7026 -0.0901
  115OSM    H9T12025  -0.309   4.864  10.272 -0.6341 -0.2788  2.0133
  115OSM   C10S12026  -0.459   4.902  10.107 -0.0510  0.3343  0.9118
  115OSM   H10S12027  -0.521   4.990  10.080  0.2824  0.2895 -0.0244
  115OSM   H10T12028  -0.521   4.813  10.134 -1.0763  0.4116 -1.0914
  115OSM   C11S12029  -0.364   4.882   9.984 -0.1124  0.7825  0.5176
  115OSM   H11S12030  -0.286   4.805  10.004 -2.1040 -2.1100 -2.2341
  115OSM   H11T12031  -0.318   4.981   9.964  2.2907 -0.3205  0.4266
  115OSM   C12S12032  -0.446   4.843   9.863 -0.0504 -0.4125  0.1814
  115OSM   H12S12033  -0.526   4.917   9.838 -0.6987 -1.8470 -2.1577
  115OSM   H12T12034  -0.497   4.752   9.901  0.1353 -0.4507  0.3367
  115OSM   C13S12035  -0.364   4.828   9.737  0.0844  0.9217  0.2425
  115OSM   H13S12036  -0.275   4.763   9.755  0.8330  1.9279  0.2255
  115OSM   H13T12037  -0.325   4.923   9.695 -1.9955  1.6590 -0.0739
  115OSM   C14S12038  -0.449   4.756   9.628  0.3907  0.3913  0.3834
  115OSM   H14S12039  -0.541   4.808   9.596  0.0481 -0.3339  0.1861
  115OSM   H14T12040  -0.469   4.656   9.672  0.4138  0.3236  0.2432
  115OSM   C15S12041  -0.376   4.742   9.496  0.2196  0.2605  0.3554
  115OSM   H15S12042  -0.442   4.674   9.438 -0.0093  2.4334 -2.0615
  115OSM   H15T12043  -0.278   4.689   9.493  0.0561 -0.0536  0.5700
  115OSM   C16S12044  -0.374   4.870   9.411  0.4904  0.5756 -0.6520
  115OSM   H16S12045  -0.304   4.948   9.447 -2.1634  3.0915 -0.8022
  115OSM   H16T12046  -0.476   4.913   9.399 -0.2533 -0.5208  1.4264
  115OSM   C17S12047  -0.313   4.837   9.276 -0.2257  0.5403 -0.2712
  115OSM   H17S12048  -0.393   4.780   9.225 -1.3462 -0.5166  2.5422
  115OSM   H17T12049  -0.233   4.761   9.285 -1.3047 -0.4422  1.4627
  115OSM   C18S12050  -0.287   4.961   9.200 -0.2110 -1.1225  0.1955
  115OSM   H18S12051  -0.387   5.009   9.187  0.4782  0.8185  1.7322
  115OSM   H18T12052  -0.231   4.938   9.107 -1.9239  1.6498 -1.6083
  115OSM   H18U12053  -0.220   5.025   9.261 -0.1989 -0.1128 -0.8583
  115OSM    C1F12054   0.133   5.527  10.552 -0.3087 -0.0660  0.4078
  115OSM     OF12055   0.247   5.488  10.551  0.5071  0.4119 -0.5763
  115OSM    C2F12056   0.081   5.650  10.491  0.0901 -1.0298 -0.6535
  115OSM    H2F12057   0.064   5.728  10.567 -1.3239 -0.3980 -1.5822
  115OSM    H2G12058  -0.017   5.630  10.441 -0.3511 -0.4142 -0.0348
  115OSM    C3F12059   0.164   5.710  10.380  0.1757  0.5501 -0.3588
  115OSM    H3F12060   0.174   5.625  10.309 -0.4325 -2.3962  2.9704
  115OSM    H3G12061   0.266   5.741  10.409  0.6516  0.0335 -1.4224
  115OSM    C4F12062   0.090   5.833  10.320 -0.0719  0.0746 -0.0716
  115OSM    H4F12063   0.105   5.928  10.375  0.9602  0.3821 -0.8659
  115OSM    H4G12064  -0.019   5.812  10.308  0.5585 -3.6398  0.1726
  115OSM    C5F12065   0.151   5.868  10.185 -0.5765 -0.6893 -0.1756
  115OSM    H5F12066   0.186   5.784  10.121  0.8669 -0.1724 -0.0781
  115OSM    H5G12067   0.243   5.927  10.202 -0.3511 -1.1281  0.1464
  115OSM    C6F12068   0.051   5.954  10.112 -0.1368 -0.2595  0.6767
  115OSM    H6F12069   0.040   6.062  10.134  4.4526  0.7352 -1.3215
  115OSM    H6G12070  -0.050   5.908  10.109 -0.7361  0.5809  4.6850
  115OSM    C7F12071   0.095   5.976   9.964 -0.4875  0.4102 -0.1162
  115OSM    H7F12072   0.205   5.983   9.969 -0.5386  0.3795  1.1497
  115OSM    H7G12073   0.052   6.069   9.922 -1.2145 -1.0035 -2.6214
  115OSM    C8F12074   0.064   5.870   9.856  0.2017 -0.1394  0.8248
  115OSM    H8F12075   0.081   5.764   9.886  0.7322  0.1950  1.6955
  115OSM    H8G12076   0.145   5.883   9.781  1.6882 -2.7049  1.9149
  115OSM    C9F12077  -0.075   5.896   9.796 -0.0389 -0.7592  0.8386
  115OSM    H9F12078  -0.169   5.892   9.853 -0.3341  1.2919  0.5373
  115OSM   C10F12079  -0.106   5.912   9.664 -0.6031  0.2107 -0.1559
  115OSM   H10F12080  -0.209   5.938   9.637 -0.7296 -0.1320 -0.0185
  115OSM   C11F12081  -0.011   5.911   9.546  0.2657  0.7064 -0.2340
  115OSM   H11F12082   0.088   5.866   9.569 -0.4629 -1.6786 -1.5559
  115OSM   H11G12083   0.011   6.010   9.501  1.0425  0.6715  0.0760
  115OSM   C12F12084  -0.077   5.833   9.432  0.0251  0.2202  0.7288
  115OSM   H12F12085  -0.170   5.887   9.406  0.5962  1.6357  1.5605
  115OSM   H12G12086  -0.098   5.726   9.455 -1.6569  0.2995 -0.4032
  115OSM   C13F12087  -0.001   5.848   9.299 -0.6675  0.4183  0.4770
  115OSM   H13F12088   0.095   5.792   9.306  0.3744  1.9789 -0.9007
  115OSM   H13G12089   0.019   5.957   9.289 -2.9015  0.8124  0.1406
  115OSM   C14F12090  -0.090   5.791   9.191 -1.0601  0.1796  0.1106
  115OSM   H14F12091  -0.158   5.877   9.174  0.2285  1.1593 -0.1246
  115OSM   H14G12092  -0.159   5.706   9.212 -1.9018  0.7649 -0.2752
  115OSM   C15F12093  -0.014   5.757   9.058 -0.0533  0.5915 -0.6153
  115OSM   H15F12094   0.053   5.669   9.065 -0.7404  0.0646 -0.5879
  115OSM   H15G12095   0.062   5.837   9.048  1.7308 -0.6173  2.5186
  115OSM   C16F12096  -0.106   5.751   8.935 -0.5515 -0.7586  0.0530
  115OSM   H16F12097  -0.193   5.818   8.955 -0.2252 -0.7235  1.4283
  115OSM   H16G12098  -0.154   5.650   8.933  1.3617 -1.6647 -1.7192
  115OSM   C17F12099  -0.038   5.765   8.799  0.0050  0.1103  0.7154
  115OSM   H17F12100   0.041   5.687   8.801  0.4565  0.5346 -0.2345
  115OSM   H17G12101   0.024   5.857   8.803  1.5961 -0.8526 -1.0469
  115OSM   C18F12102  -0.128   5.746   8.678 -0.1884 -0.0714  0.3013
  115OSM   H18F12103  -0.225   5.799   8.678 -0.4780 -0.5981  0.2366
  115OSM   H18G12104  -0.147   5.636   8.674  0.6964 -0.1976 -0.7425
  115OSM   H18H12105  -0.072   5.765   8.584 -2.0067 -0.3577 -0.8729
  116OSM      N12106   2.861   1.785  11.356 -0.0084 -0.6420  0.0746
  116OSM    C1512107   2.832   1.639  11.342 -0.1945 -0.2955  0.1270
  116OSM   H15A12108   2.729   1.616  11.363 -0.8547  1.0362 -1.5973
  116OSM   H15B12109   2.884   1.582  11.417 -1.4467 -1.7078 -0.0601
  116OSM   H15C12110   2.867   1.599  11.248 -0.3626  0.9172 -0.4609
  116OSM    C1412111   2.817   1.820  11.491  0.6544  0.2182  0.4556
  116OSM   H14A12112   2.856   1.759  11.571 -0.8200 -0.8360  0.4026
  116OSM   H14B12113   2.710   1.812  11.504  1.1414 -2.1552  3.5908
  116OSM   H14C12114   2.867   1.911  11.520 -0.2143  0.8815 -0.0978
  116OSM    C1312115   3.014   1.800  11.340  0.2307  0.0876 -0.0492
  116OSM   H13A12116   3.038   1.904  11.349 -2.0094  0.6993 -0.7509
  116OSM   H13B12117   3.052   1.780  11.241  3.3610 -1.5268  1.3855
  116OSM   H13C12118   3.075   1.742  11.407 -1.2419  1.1837  2.3042
  116OSM    C1212119   2.786   1.868  11.246 -0.1308  0.5498 -0.1566
  116OSM   H12A12120   2.809   1.974  11.253 -1.1557  0.8500 -1.0896
  116OSM   H12B12121   2.678   1.865  11.258 -0.0698  0.5615  0.4241
  116OSM    C1112122   2.807   1.832  11.094  0.2308 -0.2398 -0.0285
  116OSM   H11A12123   2.914   1.842  11.067 -0.1879  2.4800 -0.9075
  116OSM   H11B12124   2.759   1.897  11.017  1.0675  0.5925  0.1406
  116OSM      P12125   2.607   1.677  11.041  0.2670  0.1130 -0.0827
  116OSM    O1312126   2.591   1.533  11.038  0.3654 -0.4070 -0.2504
  116OSM    O1412127   2.538   1.763  11.139  0.1543 -0.0342  0.2352
  116OSM    O1112128   2.589   1.730  10.891 -0.1684 -0.1517 -0.5123
  116OSM    O1212129   2.760   1.698  11.070 -0.3817 -0.4888  0.5685
  116OSM    C1S12130   2.693   1.707  10.794  0.0328 -0.1742  0.2714
  116OSM    H1S12131   2.695   1.601  10.759  0.9313 -0.0433 -0.1070
  116OSM    H1T12132   2.797   1.733  10.823  0.1825 -0.6177  0.1485
  116OSM     NF12133   2.730   1.727  10.543 -0.5568 -1.4098 -0.3803
  116OSM    HNF12134   2.805   1.782  10.507 -0.1174 -2.8628 -1.7381
  116OSM    C2S12135   2.661   1.783  10.664  0.2266  0.7731 -0.1632
  116OSM    H2S12136   2.553   1.766  10.641  0.5539 -0.6605 -0.6664
  116OSM    C3S12137   2.694   1.934  10.687 -0.9813  0.1975 -0.1228
  116OSM    H3S12138   2.802   1.943  10.710 -0.7818 -1.5995 -0.3059
  116OSM     O312139   2.641   1.990  10.806 -0.1689  0.5571 -0.0984
  116OSM    HO312140   2.595   1.920  10.852 -1.7136  1.2254 -0.5967
  116OSM    C4S12141   2.646   2.024  10.563 -0.5627  0.3810 -0.3570
  116OSM    H4S12142   2.551   2.002  10.512 -0.0188 -1.0938 -0.7452
  116OSM    C5S12143   2.710   2.138  10.533  0.1810 -0.2350 -0.1519
  116OSM    H5S12144   2.790   2.170  10.601 -0.9005 -2.1589  2.1075
  116OSM    C6S12145   2.680   2.233  10.417 -0.2346  0.4687  0.5569
  116OSM    H6S12146   2.774   2.275  10.375 -0.6078  0.8428  0.0899
  116OSM    H6T12147   2.622   2.324  10.444  0.1036  1.2486 -1.3100
  116OSM    C7S12148   2.599   2.178  10.292  0.3590  0.3448 -0.0341
  116OSM    H7S12149   2.494   2.178  10.329  0.8397 -0.6076  1.3936
  116OSM    H7T12150   2.650   2.084  10.259  0.1919  0.3149 -0.2080
  116OSM    C8S12151   2.595   2.256  10.160  0.3754 -0.7893  0.0934
  116OSM    H8S12152   2.692   2.293  10.120  0.5737  0.8686  2.0218
  116OSM    H8T12153   2.555   2.358  10.179  1.8122 -0.6828  2.8309
  116OSM    C9S12154   2.522   2.208  10.030 -0.8318  0.2271 -0.3208
  116OSM    H9S12155   2.418   2.174  10.049 -0.4450 -2.1154 -2.1568
  116OSM    H9T12156   2.575   2.127   9.976  2.2664  1.4805  0.7165
  116OSM   C10S12157   2.500   2.333   9.935 -0.5186  0.4914 -0.5726
  116OSM   H10S12158   2.496   2.292   9.832 -1.9584  0.3150 -0.4612
  116OSM   H10T12159   2.594   2.391   9.953 -0.3135  0.3400 -1.1463
  116OSM   C11S12160   2.381   2.423   9.968 -0.1967 -0.9067  0.2939
  116OSM   H11S12161   2.402   2.448  10.074  1.2873 -0.7246 -0.0287
  116OSM   H11T12162   2.285   2.367   9.955  0.6507 -2.3766  0.2206
  116OSM   C12S12163   2.354   2.544   9.878  0.3159 -0.0141  0.5241
  116OSM   H12S12164   2.260   2.592   9.914 -0.8764 -1.0121 -1.1699
  116OSM   H12T12165   2.321   2.497   9.783 -0.4101  1.6219 -0.0495
  116OSM   C13S12166   2.463   2.640   9.859 -0.3649  0.4628  0.4878
  116OSM   H13S12167   2.543   2.612   9.787 -0.9995 -0.5034  0.1500
  116OSM   H13T12168   2.517   2.649   9.956  3.0044  0.5913 -1.3387
  116OSM   C14S12169   2.419   2.781   9.813 -0.5971  0.3325  0.2991
  116OSM   H14S12170   2.511   2.839   9.793  0.1495 -0.6286  0.8909
  116OSM   H14T12171   2.366   2.829   9.898  2.6380 -1.3719  3.4035
  116OSM   C15S12172   2.326   2.788   9.689 -0.3508  0.6025 -0.0928
  116OSM   H15S12173   2.302   2.896   9.674  1.0276  0.8092 -0.9125
  116OSM   H15T12174   2.224   2.751   9.711 -0.8018  0.7370 -1.9194
  116OSM   C16S12175   2.385   2.723   9.568  0.1434 -0.3574 -0.2052
  116OSM   H16S12176   2.393   2.612   9.575  1.9732 -0.4881 -3.4071
  116OSM   H16T12177   2.491   2.755   9.557  0.6959 -1.6319  1.2586
  116OSM   C17S12178   2.311   2.758   9.438  0.2687  1.0725 -0.3558
  116OSM   H17S12179   2.221   2.693   9.436  1.2918 -0.4618  1.2149
  116OSM   H17T12180   2.382   2.735   9.356  1.8962 -1.1188  1.5805
  116OSM   C18S12181   2.277   2.900   9.410 -0.4930  0.6722  0.7196
  116OSM   H18S12182   2.209   2.945   9.485  0.2337  0.9525  1.2130
  116OSM   H18T12183   2.222   2.903   9.314 -2.0172  2.3122  1.6242
  116OSM   H18U12184   2.365   2.966   9.398 -0.2455  0.6104  2.1317
  116OSM    C1F12185   2.705   1.606  10.492 -0.4659  0.8021  0.3040
  116OSM     OF12186   2.611   1.546  10.540 -0.2497  0.5376 -0.0802
  116OSM    C2F12187   2.800   1.560  10.388 -0.6502 -1.1462 -0.6590
  116OSM    H2F12188   2.837   1.459  10.418 -1.4742 -1.2830 -0.0876
  116OSM    H2G12189   2.887   1.629  10.378 -0.8059 -0.9030 -0.3592
  116OSM    C3F12190   2.731   1.537  10.255 -0.4087 -0.1181 -0.4235
  116OSM    H3F12191   2.637   1.479  10.266 -0.8209 -0.0419 -3.2206
  116OSM    H3G12192   2.807   1.472  10.206 -1.4394 -1.2801 -0.5158
  116OSM    C4F12193   2.717   1.662  10.168 -0.4985  0.1468 -0.1575
  116OSM    H4F12194   2.636   1.727  10.208 -0.8946 -1.1586  1.2360
  116OSM    H4G12195   2.686   1.624  10.068 -0.8378 -1.6180  0.5960
  116OSM    C5F12196   2.841   1.746  10.136  0.2498 -0.0626 -0.5108
  116OSM    H5F12197   2.895   1.686  10.060  0.7806  1.1318 -1.0775
  116OSM    H5G12198   2.903   1.761  10.227 -2.1033  1.9862  0.8210
  116OSM    C6F12199   2.800   1.878  10.075  0.0620  0.0961 -0.0072
  116OSM    H6F12200   2.732   1.937  10.140  0.2686  0.0552  0.2452
  116OSM    H6G12201   2.752   1.861   9.976 -2.1846 -1.9096  1.3474
  116OSM    C7F12202   2.921   1.972  10.059 -0.2297 -0.0242  0.2881
  116OSM    H7F12203   3.017   1.918  10.042 -0.3990 -0.5252  0.9028
  116OSM    H7G12204   2.923   2.017  10.160  0.0751 -1.6738  1.0333
  116OSM    C8F12205   2.899   2.090   9.958 -0.2052  0.0117  0.5935
  116OSM    H8F12206   2.817   2.151  10.001 -1.3950 -0.0367 -1.5632
  116OSM    H8G12207   2.856   2.061   9.860  1.2964  2.1141 -0.7561
  116OSM    C9F12208   3.013   2.182   9.920  0.2125 -0.3981 -0.0678
  116OSM    H9F12209   3.041   2.241  10.009 -2.1583  0.1196  0.3656
  116OSM   C10F12210   3.084   2.185   9.808 -0.6489  0.3469  0.1946
  116OSM   H10F12211   3.142   2.275   9.781  0.5567 -1.2705 -2.8617
  116OSM   C11F12212   3.063   2.106   9.680  0.4944 -0.0158 -0.0011
  116OSM   H11F12213   3.018   2.007   9.703 -0.3021 -0.0299 -1.5645
  116OSM   H11G12214   3.150   2.089   9.612  0.7089 -0.0981  0.2922
  116OSM   C12F12215   2.963   2.186   9.585  0.8764  0.1934  0.6029
  116OSM   H12F12216   2.879   2.216   9.651  0.5706 -0.7349  0.6348
  116OSM   H12G12217   2.935   2.110   9.510  2.5494 -0.5489  0.7153
  116OSM   C13F12218   3.018   2.309   9.517  0.3951 -0.1136  0.2838
  116OSM   H13F12219   3.110   2.331   9.575  2.1041 -1.2388 -1.9175
  116OSM   H13G12220   2.945   2.389   9.542 -1.4424 -1.9263  0.8107
  116OSM   C14F12221   3.040   2.303   9.372  0.0887  0.0587 -0.5387
  116OSM   H14F12222   3.122   2.235   9.341  1.6533  1.1139  1.1721
  116OSM   H14G12223   3.068   2.405   9.337  2.8821 -0.4125  0.2005
  116OSM   C15F12224   2.905   2.267   9.305  0.0882 -0.0965  0.5875
  116OSM   H15F12225   2.820   2.313   9.358  0.7658 -1.2961  2.7720
  116OSM   H15G12226   2.882   2.158   9.302 -1.7168  0.2829  0.2592
  116OSM   C16F12227   2.904   2.319   9.159 -0.2578 -0.1675 -0.2508
  116OSM   H16F12228   3.012   2.333   9.140 -0.8561  2.6149 -1.8586
  116OSM   H16G12229   2.867   2.424   9.158 -0.8636 -0.3859 -1.8171
  116OSM   C17F12230   2.825   2.241   9.058 -0.3174 -0.8062  0.5572
  116OSM   H17F12231   2.720   2.231   9.093 -0.9549  0.4364 -0.9739
  116OSM   H17G12232   2.856   2.134   9.056  1.3711 -0.3222 -0.2286
  116OSM   C18F12233   2.835   2.306   8.920  0.3657  0.1468 -0.4217
  116OSM   H18F12234   2.776   2.399   8.911 -0.1320 -0.0364  0.8736
  116OSM   H18G12235   2.814   2.233   8.839  0.5742 -0.7634  0.3335
  116OSM   H18H12236   2.942   2.334   8.904  0.3113  0.2771 -0.5547
  117OSM      N12237   0.206   2.882  11.269  0.4081  0.1831 -0.0155
  117OSM    C1512238   0.310   2.781  11.305  0.1620  0.7424  0.1627
  117OSM   H15A12239   0.325   2.713  11.223 -1.6088 -0.8802  1.1370
  117OSM   H15B12240   0.281   2.723  11.391 -0.9066  0.4051 -0.4075
  117OSM   H15C12241   0.405   2.827  11.327  2.0524 -2.9958  0.2939
  117OSM    C1412242   0.071   2.810  11.287 -0.0883  0.1741  0.4857
  117OSM   H14A12243   0.074   2.724  11.222 -0.7379  0.6941 -0.2433
  117OSM   H14B12244  -0.015   2.868  11.255 -0.5958 -1.0569 -0.4253
  117OSM   H14C12245   0.042   2.792  11.390  1.9763  2.1586  1.4632
  117OSM    C1312246   0.212   2.990  11.368  0.3068 -0.4256  0.3721
  117OSM   H13A12247   0.314   3.021  11.384 -0.2242  2.0752 -0.9142
  117OSM   H13B12248   0.177   2.950  11.462 -2.1620 -1.2821 -0.8677
  117OSM   H13C12249   0.142   3.068  11.343 -0.4407 -0.7199  1.4843
  117OSM    C1212250   0.225   2.934  11.129 -0.1874 -0.2340 -0.0494
  117OSM   H12A12251   0.151   3.012  11.116 -0.3227 -0.2869  0.3804
  117OSM   H12B12252   0.200   2.863  11.051  2.2283  1.0534 -2.0684
  117OSM    C1112253   0.370   2.983  11.089 -0.9359  0.7831  0.0424
  117OSM   H11A12254   0.410   3.039  11.176  1.4252 -1.3103  0.3362
  117OSM   H11B12255   0.366   3.056  11.005  1.1314 -0.9295 -1.5987
  117OSM      P12256   0.433   2.764  10.953  0.1958 -0.1248  0.2429
  117OSM    O1312257   0.547   2.673  10.972  0.3923 -0.2340 -0.4342
  117OSM    O1412258   0.300   2.703  10.967 -0.6691  1.1353 -0.1135
  117OSM    O1112259   0.442   2.844  10.814 -0.4622 -0.3968 -0.0337
  117OSM    O1212260   0.453   2.877  11.065 -0.0730 -0.3530  0.1196
  117OSM    C1S12261   0.572   2.893  10.768 -0.1670  0.1969 -0.2879
  117OSM    H1S12262   0.658   2.843  10.817 -1.1010 -0.5253  0.6249
  117OSM    H1T12263   0.579   3.003  10.784 -1.4357  0.0492  1.4349
  117OSM     NF12264   0.737   2.907  10.593  0.4767  0.8989 -0.2133
  117OSM    HNF12265   0.757   2.994  10.548  1.0261 -0.2754 -2.3020
  117OSM    C2S12266   0.597   2.875  10.616  0.9709 -0.6494  0.0141
  117OSM    H2S12267   0.567   2.770  10.596 -1.6995 -0.1058  0.8732
  117OSM    C3S12268   0.495   2.956  10.524  0.0063  0.5614  0.2933
  117OSM    H3S12269   0.524   3.064  10.530  0.0866  0.5358  0.3633
  117OSM     O312270   0.359   2.933  10.560  0.0447 -0.4582  0.0888
  117OSM    HO312271   0.367   2.873  10.635  0.1779 -0.6795 -0.1051
  117OSM    C4S12272   0.527   2.927  10.377 -0.0794 -0.4075  0.3360
  117OSM    H4S12273   0.599   2.999  10.335 -0.1915  0.1628  1.1101
  117OSM    C5S12274   0.464   2.844  10.294 -0.1851  0.7452  0.1655
  117OSM    H5S12275   0.379   2.784  10.329 -0.6602  1.7753  0.7702
  117OSM    C6S12276   0.492   2.823  10.149 -0.2270 -0.3208  0.9050
  117OSM    H6S12277   0.395   2.836  10.096 -0.4085 -0.2331  1.2572
  117OSM    H6T12278   0.534   2.721  10.137  0.8600  0.2639 -0.4357
  117OSM    C7S12279   0.580   2.929  10.074  0.0535 -0.5157 -1.1052
  117OSM    H7S12280   0.676   2.941  10.129 -1.1080 -0.1257  0.9064
  117OSM    H7T12281   0.522   3.023  10.072  2.2635  0.9125  0.5105
  117OSM    C8S12282   0.609   2.882   9.934  0.5068  0.0318  0.0050
  117OSM    H8S12283   0.675   2.793   9.925  0.7077  0.2144 -0.3428
  117OSM    H8T12284   0.665   2.967   9.889  0.1228  1.0320  1.3890
  117OSM    C9S12285   0.481   2.872   9.858 -0.0738 -0.1281 -0.7900
  117OSM    H9S12286   0.409   2.951   9.887  0.8023  1.3999 -2.6379
  117OSM    H9T12287   0.435   2.774   9.883  1.0142  0.0265  2.0418
  117OSM   C10S12288   0.508   2.882   9.706  0.0483 -0.5860  0.5872
  117OSM   H10S12289   0.545   2.983   9.680  2.7930 -2.1876 -2.0419
  117OSM   H10T12290   0.413   2.877   9.649 -0.3421 -1.4006  1.3020
  117OSM   C11S12291   0.621   2.783   9.656 -0.0108 -0.3551  0.0696
  117OSM   H11S12292   0.604   2.676   9.683 -2.2403 -0.2870 -0.9711
  117OSM   H11T12293   0.718   2.811   9.701  0.9553 -0.8073 -1.6456
  117OSM   C12S12294   0.632   2.787   9.499  0.3046 -0.0812  0.4357
  117OSM   H12S12295   0.543   2.728   9.467  0.8789 -2.3522  2.9292
  117OSM   H12T12296   0.721   2.728   9.469  0.7162 -0.3255  2.1346
  117OSM   C13S12297   0.636   2.930   9.433 -0.2057  0.2412  0.6009
  117OSM   H13S12298   0.707   2.983   9.501  1.1286 -1.8306  0.8399
  117OSM   H13T12299   0.540   2.984   9.450 -1.6257 -1.6461 -1.1960
  117OSM   C14S12300   0.689   2.945   9.289 -0.0490  0.0924  0.8232
  117OSM   H14S12301   0.792   2.904   9.296  1.0057  2.7282  1.3916
  117OSM   H14T12302   0.696   3.052   9.260  0.3852 -0.5479 -1.5064
  117OSM   C15S12303   0.609   2.861   9.189 -0.2965  0.5039  0.1147
  117OSM   H15S12304   0.507   2.897   9.167 -0.5161 -1.3505 -2.0848
  117OSM   H15T12305   0.603   2.758   9.232 -1.0159  0.9079  0.9998
  117OSM   C16S12306   0.693   2.848   9.060  0.3098  0.4801 -0.5933
  117OSM   H16S12307   0.645   2.765   9.006 -1.1162 -0.0525  1.4328
  117OSM   H16T12308   0.802   2.829   9.076  0.0885 -0.2735  0.0254
  117OSM   C17S12309   0.685   2.971   8.965  0.4177 -0.3476 -0.1802
  117OSM   H17S12310   0.750   3.054   9.002 -2.2586  2.1529 -0.8835
  117OSM   H17T12311   0.581   3.010   8.958  1.4534  2.6920  0.7323
  117OSM   C18S12312   0.736   2.940   8.830  0.1472  0.8250 -0.6032
  117OSM   H18S12313   0.837   2.896   8.849 -1.9553 -3.3238  1.7349
  117OSM   H18T12314   0.735   3.030   8.765 -0.2695 -0.2182 -2.0939
  117OSM   H18U12315   0.680   2.861   8.775 -1.9942  1.7180  0.2373
  117OSM    C1F12316   0.836   2.821  10.622 -0.7634 -1.0889 -0.3510
  117OSM     OF12317   0.824   2.724  10.694  0.5153  0.2368  0.2465
  117OSM    C2F12318   0.974   2.864  10.568  0.8375  0.4977 -0.5357
  117OSM    H2F12319   1.047   2.863  10.651 -1.9278 -0.1457  1.9931
  117OSM    H2G12320   0.977   2.963  10.517 -1.0130 -0.0031 -1.6973
  117OSM    C3F12321   1.024   2.767  10.460 -0.0450  0.6913  0.0874
  117OSM    H3F12322   1.025   2.671  10.516 -0.4648 -0.8221 -2.4192
  117OSM    H3G12323   1.130   2.791  10.436  0.9233 -1.6485  1.7289
  117OSM    C4F12324   0.950   2.771  10.329  0.1854 -0.8409 -0.1173
  117OSM    H4F12325   0.936   2.874  10.291 -1.6245 -1.6168 -1.6210
  117OSM    H4G12326   0.850   2.732  10.356  0.2444  0.6518  2.4089
  117OSM    C5F12327   1.020   2.681  10.226  0.0177  0.3269  0.5797
  117OSM    H5F12328   1.021   2.581  10.273 -0.1065 -0.6658 -1.4811
  117OSM    H5G12329   1.121   2.726  10.219  0.1287  0.1160  0.8473
  117OSM    C6F12330   0.947   2.678  10.090  0.9854  0.0730 -0.2180
  117OSM    H6F12331   0.917   2.780  10.057  2.1775  0.5805  0.2065
  117OSM    H6G12332   0.853   2.621  10.096  0.2641  1.2202 -0.4437
  117OSM    C7F12333   1.019   2.606   9.974 -0.6386  1.1855  0.2567
  117OSM    H7F12334   1.041   2.505  10.014 -0.7062  0.7219 -0.8858
  117OSM    H7G12335   1.114   2.663   9.958  0.0645  0.5256  2.0085
  117OSM    C8F12336   0.948   2.595   9.834 -1.0614  0.1464  0.5158
  117OSM    H8F12337   0.905   2.694   9.805  1.0845  1.0248  0.2010
  117OSM    H8G12338   0.866   2.525   9.862 -0.8214 -0.2115  0.3278
  117OSM    C9F12339   1.033   2.535   9.717  0.1867  0.3356 -0.3520
  117OSM    H9F12340   1.030   2.425   9.717 -0.5446  0.3457 -1.3340
  117OSM   C10F12341   1.093   2.613   9.625  0.0777 -1.2779  0.1608
  117OSM   H10F12342   1.142   2.560   9.542 -0.8255  1.2890 -2.1064
  117OSM   C11F12343   1.093   2.762   9.613 -0.2091  0.1224 -0.1745
  117OSM   H11F12344   1.197   2.799   9.626 -0.2717  0.3897 -0.4196
  117OSM   H11G12345   1.041   2.810   9.699 -0.9310 -1.2827  0.1854
  117OSM   C12F12346   1.042   2.814   9.483  0.4653 -0.1651 -0.2760
  117OSM   H12F12347   1.020   2.922   9.499 -1.2465 -0.4154 -0.8165
  117OSM   H12G12348   0.943   2.767   9.463 -0.3830  1.3663  0.2696
  117OSM   C13F12349   1.140   2.799   9.365 -0.1694  0.2853  0.3020
  117OSM   H13F12350   1.187   2.699   9.354  1.0744  1.0060 -1.0709
  117OSM   H13G12351   1.219   2.877   9.371  1.4767 -1.3975  0.8604
  117OSM   C14F12352   1.082   2.830   9.225  0.2711  0.3250 -0.0838
  117OSM   H14F12353   1.022   2.924   9.226 -2.5114 -1.4107  2.3198
  117OSM   H14G12354   1.015   2.744   9.205 -1.2296  1.5996 -0.5877
  117OSM   C15F12355   1.189   2.834   9.116  0.7938 -0.4288 -0.1795
  117OSM   H15F12356   1.209   2.731   9.078  1.5417 -1.0855  1.8978
  117OSM   H15G12357   1.272   2.897   9.155 -2.9636  3.6158  1.6808
  117OSM   C16F12358   1.140   2.931   9.003 -0.0512  1.0524 -0.0911
  117OSM   H16F12359   1.034   2.932   8.969  0.7047  0.3959 -2.5561
  117OSM   H16G12360   1.193   2.907   8.909  0.5533 -3.0197  1.2094
  117OSM   C17F12361   1.179   3.078   9.031 -0.1938  0.4187 -0.0677
  117OSM   H17F12362   1.282   3.088   9.073 -0.7520 -0.0336  1.4375
  117OSM   H17G12363   1.106   3.120   9.104  0.6943  1.5539  0.1807
  117OSM   C18F12364   1.166   3.154   8.898 -0.4541 -0.0337  0.2227
  117OSM   H18F12365   1.234   3.120   8.817  0.4621  1.1974  0.4563
  117OSM   H18G12366   1.184   3.263   8.909 -2.1118  0.1819  1.0196
  117OSM   H18H12367   1.064   3.140   8.857 -0.9005  1.4159  0.8142
  118OSM      N12368   0.823   3.701  11.106  0.1200  0.5673 -0.3452
  118OSM    C1512369   0.819   3.569  11.179 -0.5570 -0.7467  0.6073
  118OSM   H15A12370   0.785   3.488  11.115  1.0070 -1.3807  0.5594
  118OSM   H15B12371   0.752   3.561  11.263  0.5302 -0.6612  1.4952
  118OSM   H15C12372   0.919   3.548  11.213 -0.6244  1.4113  2.1915
  118OSM    C1412373   0.677   3.732  11.068 -0.3237 -0.5372  0.0168
  118OSM   H14A12374   0.640   3.659  10.998 -1.0753  0.7386 -0.9235
  118OSM   H14B12375   0.668   3.824  11.014 -1.0161 -0.5930  0.0376
  118OSM   H14C12376   0.616   3.718  11.156 -0.3850  0.2734  0.1066
  118OSM    C1312377   0.859   3.800  11.214 -0.3980 -0.0598  0.5602
  118OSM   H13A12378   0.844   3.900  11.175  0.2357  0.3422  1.3186
  118OSM   H13B12379   0.959   3.793  11.255 -1.8481 -0.8836  4.1096
  118OSM   H13C12380   0.796   3.789  11.301 -1.3990 -1.4141 -0.3207
  118OSM    C1212381   0.920   3.685  10.988  0.1697  0.4702 -0.2209
  118OSM   H12A12382   0.870   3.599  10.947 -0.9267 -0.7849  3.4818
  118OSM   H12B12383   1.020   3.646  10.999  1.8563  4.1219 -1.6910
  118OSM    C1112384   0.929   3.814  10.898 -0.8338 -0.4086  0.1941
  118OSM   H11A12385   0.827   3.853  10.874 -0.7279 -0.1950  0.0916
  118OSM   H11B12386   0.960   3.776  10.799 -0.3964 -0.5963  0.4038
  118OSM      P12387   0.967   4.067  10.961 -0.2873  0.2022  0.3583
  118OSM    O1312388   0.872   4.078  11.073  0.0914  0.4767 -0.2310
  118OSM    O1412389   1.080   4.160  10.959  0.1470  0.5452  0.5947
  118OSM    O1112390   0.895   4.069  10.821  0.4469 -0.0746 -0.5411
  118OSM    O1212391   1.020   3.915  10.958  0.5167 -0.0772  0.0304
  118OSM    C1S12392   0.978   4.052  10.699  0.5926  0.5990  0.6540
  118OSM    H1S12393   1.048   3.967  10.712 -0.1887 -0.6249 -2.6425
  118OSM    H1T12394   1.034   4.145  10.680 -0.1075  1.3089  1.9189
  118OSM     NF12395   0.983   4.004  10.454 -0.4925  0.1006 -0.1547
  118OSM    HNF12396   0.997   4.080  10.391  2.5424  0.5160  0.9652
  118OSM    C2S12397   0.897   4.025  10.569  0.2239 -0.5218  0.0452
  118OSM    H2S12398   0.856   3.923  10.587 -0.2041 -0.7443 -2.0014
  118OSM    C3S12399   0.790   4.135  10.559 -0.8375  0.4300 -0.1715
  118OSM    H3S12400   0.837   4.232  10.587  1.1118  0.2525 -2.6746
  118OSM     O312401   0.680   4.125  10.644  0.0399  0.2144 -0.2031
  118OSM    HO312402   0.717   4.073  10.716  1.6975  1.1109 -0.3537
  118OSM    C4S12403   0.747   4.144  10.415 -0.4981  0.0254  0.2932
  118OSM    H4S12404   0.828   4.179  10.349 -1.0660 -2.4812 -1.8083
  118OSM    C5S12405   0.627   4.116  10.363 -1.0188  0.6131 -0.0225
  118OSM    H5S12406   0.552   4.080  10.435  0.4946  2.7743  2.7072
  118OSM    C6S12407   0.589   4.135  10.218 -0.5080 -0.1719  0.1261
  118OSM    H6S12408   0.514   4.215  10.203 -0.7366 -0.5701 -0.8926
  118OSM    H6T12409   0.545   4.049  10.162  1.2525  0.1509 -1.8014
  118OSM    C7S12410   0.706   4.177  10.122  0.2676  0.2171  0.1259
  118OSM    H7S12411   0.781   4.096  10.132 -0.2080 -0.1592  0.6752
  118OSM    H7T12412   0.745   4.274  10.158  2.0604 -1.3343  2.4964
  118OSM    C8S12413   0.662   4.174   9.974  0.3909  0.5525 -0.5979
  118OSM    H8S12414   0.581   4.247   9.950  0.7183  0.2117 -2.8452
  118OSM    H8T12415   0.630   4.072   9.944 -1.2876  1.0513 -0.5556
  118OSM    C9S12416   0.777   4.228   9.884  0.6752  0.4054  0.7717
  118OSM    H9S12417   0.865   4.168   9.914 -0.7217 -0.5666  3.0848
  118OSM    H9T12418   0.796   4.334   9.911  1.0279  0.6131 -0.2786
  118OSM   C10S12419   0.741   4.218   9.728 -0.3650  0.1971 -0.0868
  118OSM   H10S12420   0.652   4.282   9.708  0.1502  0.9372 -0.0056
  118OSM   H10T12421   0.720   4.109   9.718  1.6212 -0.4973  2.6645
  118OSM   C11S12422   0.849   4.261   9.636  0.8791  0.3807 -0.1366
  118OSM   H11S12423   0.935   4.192   9.649 -1.4127 -2.4710  0.3163
  118OSM   H11T12424   0.893   4.361   9.657 -1.7892  1.5736 -0.0536
  118OSM   C12S12425   0.807   4.253   9.495 -0.3343 -0.4055  0.6314
  118OSM   H12S12426   0.736   4.336   9.475  0.6948  0.3964  0.2487
  118OSM   H12T12427   0.753   4.156   9.484 -0.9030  0.0018 -0.3023
  118OSM   C13S12428   0.925   4.257   9.393  0.4029  0.6641 -0.0199
  118OSM   H13S12429   1.004   4.321   9.437  0.1283  0.8810  0.1548
  118OSM   H13T12430   0.893   4.310   9.301 -1.0902  0.0795  0.1448
  118OSM   C14S12431   0.993   4.117   9.378 -0.0998  0.3495  0.5823
  118OSM   H14S12432   1.000   4.082   9.483  0.4527  0.5146  0.6014
  118OSM   H14T12433   1.093   4.132   9.333  0.2358  0.8925  1.5157
  118OSM   C15S12434   0.903   4.019   9.305  0.3545  0.4799  0.1558
  118OSM   H15S12435   0.797   4.033   9.335  0.6072  1.2012  0.7311
  118OSM   H15T12436   0.936   3.914   9.320 -0.5068 -0.0447 -1.4540
  118OSM   C16S12437   0.917   4.028   9.157 -0.1913 -0.7078  0.0670
  118OSM   H16S12438   1.023   4.008   9.127 -0.5708  0.1633 -1.8939
  118OSM   H16T12439   0.898   4.135   9.134  0.5262 -0.2501  1.4845
  118OSM   C17S12440   0.820   3.937   9.080  0.3942 -0.0600  0.6272
  118OSM   H17S12441   0.800   3.839   9.128  0.3592  0.0863  0.9119
  118OSM   H17T12442   0.863   3.910   8.981  1.6314 -2.4582  1.7944
  118OSM   C18S12443   0.688   4.011   9.066 -0.1601 -0.2478  0.5289
  118OSM   H18S12444   0.611   3.960   9.004  1.1918 -2.5640  0.7364
  118OSM   H18T12445   0.696   4.111   9.016 -0.1353 -1.6120 -2.3214
  118OSM   H18U12446   0.648   4.031   9.168  0.2907 -2.2726  1.1181
  118OSM    C1F12447   1.060   3.893  10.446  0.0003  0.3399 -0.1535
  118OSM     OF12448   1.060   3.806  10.528 -0.3723 -0.3305  0.1982
  118OSM    C2F12449   1.153   3.877  10.330  0.3529  0.3909  0.6170
  118OSM    H2F12450   1.145   3.776  10.285 -1.1037  0.8186 -0.1309
  118OSM    H2G12451   1.257   3.892  10.366  1.1738 -2.1749 -0.6085
  118OSM    C3F12452   1.123   3.973  10.211 -0.7459  0.1572  0.1347
  118OSM    H3F12453   1.122   4.080  10.241 -2.1373 -0.1683  1.2712
  118OSM    H3G12454   1.022   3.949  10.173 -0.6332 -1.6959  0.9809
  118OSM    C4F12455   1.217   3.947  10.091  0.5953 -0.0355  0.1160
  118OSM    H4F12456   1.209   3.837  10.091  0.4151 -0.0344  1.3123
  118OSM    H4G12457   1.319   3.976  10.124  0.0448  1.9287  0.1775
  118OSM    C5F12458   1.173   4.024   9.966 -0.1814 -0.0291 -0.7140
  118OSM    H5F12459   1.130   4.118  10.006  1.2793 -0.8912  3.0260
  118OSM    H5G12460   1.082   3.974   9.926 -0.3123 -0.8737  0.6177
  118OSM    C6F12461   1.284   4.052   9.862 -0.2392  0.2215 -0.0170
  118OSM    H6F12462   1.344   3.961   9.838 -2.0525 -0.7595 -0.8756
  118OSM    H6G12463   1.355   4.131   9.894  0.9459 -1.2155  0.9829
  118OSM    C7F12464   1.228   4.111   9.734 -0.6815 -0.6939 -0.7092
  118OSM    H7F12465   1.146   4.180   9.763  1.8695  1.5234  1.5287
  118OSM    H7G12466   1.179   4.033   9.673 -1.4749 -1.8823  1.3932
  118OSM    C8F12467   1.339   4.178   9.639 -0.0663  0.4417 -0.6919
  118OSM    H8F12468   1.286   4.163   9.542 -1.1917 -0.3789  0.0375
  118OSM    H8G12469   1.420   4.102   9.645 -0.0004  0.3443 -2.3642
  118OSM    C9F12470   1.375   4.315   9.685  0.2837 -0.3510 -0.4322
  118OSM    H9F12471   1.413   4.321   9.788 -2.0343 -2.6663  0.6240
  118OSM   C10F12472   1.361   4.429   9.620  0.1776 -0.2753  0.0142
  118OSM   H10F12473   1.395   4.526   9.658  1.3195  0.6705 -3.2407
  118OSM   C11F12474   1.297   4.448   9.482  0.3991  0.1943  0.8302
  118OSM   H11F12475   1.234   4.361   9.451  0.8833  0.3265 -0.5414
  118OSM   H11G12476   1.377   4.460   9.406  0.5305 -1.5264  0.6817
  118OSM   C12F12477   1.204   4.568   9.489 -0.0798  0.2114 -0.6052
  118OSM   H12F12478   1.259   4.655   9.531 -1.2926  0.0810  1.3386
  118OSM   H12G12479   1.113   4.550   9.549 -1.5377  0.6597 -2.6250
  118OSM   C13F12480   1.140   4.605   9.349 -0.4590 -0.2551 -0.1561
  118OSM   H13F12481   1.091   4.515   9.308 -2.7830  0.7826  0.2359
  118OSM   H13G12482   1.206   4.656   9.275 -0.6966  3.8642  2.3050
  118OSM   C14F12483   1.017   4.702   9.369 -0.3974 -0.3516 -0.8946
  118OSM   H14F12484   1.043   4.787   9.436  0.5195 -0.6967 -0.8108
  118OSM   H14G12485   0.942   4.649   9.432  1.4843  0.0330  1.7439
  118OSM   C15F12486   0.939   4.738   9.250  0.1746  0.1346 -0.4640
  118OSM   H15F12487   0.868   4.821   9.266  2.3261  1.9324  0.0155
  118OSM   H15G12488   0.868   4.656   9.224 -2.0527  2.0434 -0.5640
  118OSM   C16F12489   1.032   4.783   9.139  0.0286  0.2758 -0.1529
  118OSM   H16F12490   1.090   4.691   9.117 -1.7356 -0.5191 -1.6629
  118OSM   H16G12491   1.096   4.864   9.179  0.6177  0.2325 -0.9982
  118OSM   C17F12492   0.953   4.837   9.016 -0.2736 -0.1941 -0.1124
  118OSM   H17F12493   0.888   4.921   9.049 -0.8025  0.1139 -1.8604
  118OSM   H17G12494   0.886   4.753   8.987 -0.4458  0.1156 -0.6320
  118OSM   C18F12495   1.038   4.894   8.904  0.1792  0.5734 -0.6541
  118OSM   H18F12496   1.096   4.987   8.925  0.1928  0.4469 -0.1280
  118OSM   H18G12497   0.970   4.925   8.822  0.2856 -0.2780 -1.0670
  118OSM   H18H12498   1.108   4.820   8.861 -1.6280 -1.7920  0.4005
  119OSM      N12499   1.382   3.316  11.213  0.0313 -0.6324  0.3967
  119OSM    C1512500   1.413   3.186  11.270  0.0719 -0.3344  0.1154
  119OSM   H15A12501   1.466   3.205  11.363  0.2553 -0.2396 -0.0092
  119OSM   H15B12502   1.481   3.134  11.206  1.2019 -1.4817  2.2094
  119OSM   H15C12503   1.327   3.122  11.283 -0.2421 -0.2591 -1.5157
  119OSM    C1412504   1.304   3.304  11.084 -0.5576 -0.3231  0.4044
  119OSM   H14A12505   1.207   3.259  11.099 -0.8697  0.3348  0.3866
  119OSM   H14B12506   1.349   3.232  11.018 -1.3844 -0.2632 -0.2347
  119OSM   H14C12507   1.290   3.401  11.037  1.0809 -0.1829  0.2002
  119OSM    C1312508   1.296   3.383  11.323  0.0063  0.0456 -0.1757
  119OSM   H13A12509   1.192   3.360  11.305 -1.2687  2.4188  3.5353
  119OSM   H13B12510   1.303   3.490  11.313  1.8115 -0.1252 -0.9272
  119OSM   H13C12511   1.320   3.374  11.428  2.7256 -0.1298 -0.7844
  119OSM    C1212512   1.501   3.392  11.187 -0.1607 -0.0902  0.4078
  119OSM   H12A12513   1.561   3.401  11.276  0.5307  0.1440 -0.0710
  119OSM   H12B12514   1.465   3.487  11.153 -0.4972 -1.0154 -1.9372
  119OSM    C1112515   1.603   3.323  11.087 -0.2486 -0.8297 -0.0949
  119OSM   H11A12516   1.690   3.391  11.089  0.2353 -1.4623  1.5109
  119OSM   H11B12517   1.559   3.335  10.986  2.4373  2.1997 -0.9733
  119OSM      P12518   1.760   3.122  11.038  0.2372 -0.1444  0.2649
  119OSM    O1312519   1.888   3.177  11.085 -0.3178  0.6633  0.3265
  119OSM    O1412520   1.756   2.974  11.060  0.3818 -0.5639  0.1835
  119OSM    O1112521   1.737   3.161  10.889  0.0253 -0.4543  0.3951
  119OSM    O1212522   1.642   3.186  11.118 -0.3998 -0.1736  0.1490
  119OSM    C1S12523   1.659   3.070  10.802 -0.5811  0.8105 -0.3230
  119OSM    H1S12524   1.551   3.091  10.816 -1.3444 -1.4052 -2.6441
  119OSM    H1T12525   1.667   2.962  10.825 -2.0858  0.9823  1.1142
  119OSM     NF12526   1.599   3.035  10.564  0.6346 -0.3877 -0.4501
  119OSM    HNF12527   1.633   2.947  10.532  1.2679 -0.0821 -0.6383
  119OSM    C2S12528   1.692   3.101  10.656  0.5471  0.3287  0.5364
  119OSM    H2S12529   1.693   3.210  10.634  2.1916 -0.1615 -1.9897
  119OSM    C3S12530   1.838   3.051  10.632 -0.9885 -0.5290  0.4867
  119OSM    H3S12531   1.846   2.949  10.676  1.0936 -1.1876 -1.3026
  119OSM     O312532   1.932   3.120  10.706  0.1507 -0.4959  0.3403
  119OSM    HO312533   1.884   3.148  10.784  0.8589  1.7937  0.0172
  119OSM    C4S12534   1.887   3.053  10.489  0.6061 -0.4661 -0.0839
  119OSM    H4S12535   1.914   2.962  10.432  2.3515  0.0775 -0.1644
  119OSM    C5S12536   1.914   3.157  10.411 -0.6550  0.5234 -0.2488
  119OSM    H5S12537   1.891   3.258  10.448 -0.5532  0.6706 -0.5966
  119OSM    C6S12538   1.954   3.149  10.265  0.1606 -0.1466  0.1433
  119OSM    H6S12539   1.968   3.041  10.240  0.7989 -0.1960  0.6789
  119OSM    H6T12540   2.052   3.200  10.254 -0.8709  1.4256 -2.1820
  119OSM    C7S12541   1.856   3.233  10.177 -0.2724 -0.1059  0.2904
  119OSM    H7S12542   1.850   3.339  10.208 -1.3247 -0.7121  2.2077
  119OSM    H7T12543   1.756   3.187  10.187 -1.1042  1.8200  1.0487
  119OSM    C8S12544   1.908   3.232  10.035  0.5491  0.3317 -0.2893
  119OSM    H8S12545   1.900   3.129   9.994  2.3252 -0.1993  0.6694
  119OSM    H8T12546   2.016   3.259  10.036  0.8653 -0.9418  0.6133
  119OSM    C9S12547   1.825   3.327   9.945 -0.1701 -0.0728  0.6091
  119OSM    H9S12548   1.795   3.419   9.999 -1.6213  0.2772 -0.7566
  119OSM    H9T12549   1.738   3.269   9.906  0.2635 -1.8332  2.1391
  119OSM   C10S12550   1.895   3.384   9.824  0.6541 -0.0719  0.8071
  119OSM   H10S12551   1.950   3.316   9.756  0.2192  0.9196 -0.5574
  119OSM   H10T12552   1.964   3.463   9.862 -1.7264  1.5825  1.8537
  119OSM   C11S12553   1.802   3.451   9.718  0.3286  0.0767  0.2161
  119OSM   H11S12554   1.757   3.540   9.767  1.3008 -0.4972  2.2482
  119OSM   H11T12555   1.714   3.387   9.696  1.3604 -1.3069 -0.0137
  119OSM   C12S12556   1.883   3.496   9.593 -0.3017 -0.5606  0.2542
  119OSM   H12S12557   1.966   3.428   9.565  1.7499  1.4384  1.2417
  119OSM   H12T12558   1.936   3.592   9.613 -2.1059  0.4030  0.5379
  119OSM   C13S12559   1.785   3.537   9.480  0.5571  0.1116  0.1494
  119OSM   H13S12560   1.723   3.623   9.515 -0.8636 -0.7223 -0.2708
  119OSM   H13T12561   1.719   3.450   9.459  2.3826 -1.1831 -0.2752
  119OSM   C14S12562   1.863   3.577   9.358  0.4664  0.2027 -0.2869
  119OSM   H14S12563   1.919   3.493   9.312 -0.8381 -1.3480  0.9437
  119OSM   H14T12564   1.949   3.645   9.378  0.6512 -0.3350  0.7677
  119OSM   C15S12565   1.781   3.628   9.244 -0.4609  0.0334  0.1612
  119OSM   H15S12566   1.723   3.716   9.277  1.7006  0.7016  2.3503
  119OSM   H15T12567   1.712   3.546   9.214 -2.0506  0.9394  1.3197
  119OSM   C16S12568   1.854   3.663   9.112 -0.0333 -0.2770  0.2458
  119OSM   H16S12569   1.785   3.688   9.028 -0.0220  1.3505  0.7047
  119OSM   H16T12570   1.901   3.568   9.078 -0.8333 -0.8502  0.7524
  119OSM   C17S12571   1.958   3.770   9.135  0.3306 -0.2144 -0.4287
  119OSM   H17S12572   2.058   3.726   9.155  0.4530  0.4460  0.4350
  119OSM   H17T12573   1.927   3.833   9.221  1.8006  0.6721 -0.5304
  119OSM   C18S12574   1.990   3.863   9.009 -0.1260 -0.3234  0.5727
  119OSM   H18S12575   1.926   3.954   9.006 -0.1474 -0.3674 -1.3707
  119OSM   H18T12576   1.970   3.818   8.909  2.1057  1.5268 -0.7532
  119OSM   H18U12577   2.094   3.900   9.003  0.0199 -0.8328 -0.1758
  119OSM    C1F12578   1.478   3.073  10.537 -0.5968 -0.6984 -0.2710
  119OSM     OF12579   1.440   3.176  10.597  0.7707 -0.5325 -0.2868
  119OSM    C2F12580   1.385   2.992  10.448  0.0497  0.9792 -0.0042
  119OSM    H2F12581   1.310   2.945  10.515  2.0642  0.2375  1.8002
  119OSM    H2G12582   1.449   2.913  10.404 -1.8288 -0.5461 -0.0457
  119OSM    C3F12583   1.303   3.075  10.349 -0.7598 -0.0449 -0.6245
  119OSM    H3F12584   1.367   3.157  10.311  4.1815 -3.1490  0.5086
  119OSM    H3G12585   1.213   3.123  10.392 -0.4167 -0.2389  0.3262
  119OSM    C4F12586   1.254   2.990  10.225 -0.2647 -0.9347 -0.2415
  119OSM    H4F12587   1.189   3.052  10.159  0.5149 -0.9814 -1.0628
  119OSM    H4G12588   1.180   2.913  10.254 -0.0290 -1.0385  0.0785
  119OSM    C5F12589   1.378   2.927  10.137  0.1270  0.0251  0.4552
  119OSM    H5F12590   1.430   2.853  10.202 -0.1049  0.0201  0.6349
  119OSM    H5G12591   1.449   3.010  10.119 -2.2214  1.3944 -2.8892
  119OSM    C6F12592   1.329   2.866  10.003 -0.0185 -0.0546 -0.5029
  119OSM    H6F12593   1.262   2.779  10.016 -1.0245  1.1098  2.4963
  119OSM    H6G12594   1.426   2.826   9.967 -0.2204 -0.0126 -1.1100
  119OSM    C7F12595   1.257   2.956   9.902  0.6898 -0.4325  0.3591
  119OSM    H7F12596   1.158   2.991   9.938  0.5685 -1.1132  0.6796
  119OSM    H7G12597   1.217   2.902   9.814  1.2633 -2.2966  1.2141
  119OSM    C8F12598   1.329   3.082   9.849 -0.4061  0.1995  0.2886
  119OSM    H8F12599   1.333   3.163   9.926 -1.0217  1.7976 -1.3321
  119OSM    H8G12600   1.265   3.110   9.763 -3.5045  0.7746  2.6740
  119OSM    C9F12601   1.470   3.066   9.803 -0.6399  0.5726  0.4420
  119OSM    H9F12602   1.544   3.048   9.882 -1.5220  1.6201  1.5290
  119OSM   C10F12603   1.514   3.064   9.676 -0.0702 -0.2928 -0.0416
  119OSM   H10F12604   1.622   3.049   9.666 -0.1519 -0.3417 -0.9415
  119OSM   C11F12605   1.427   3.078   9.553  0.2510 -0.2208  0.0054
  119OSM   H11F12606   1.324   3.116   9.572  0.0043 -1.7473  1.8451
  119OSM   H11G12607   1.400   2.987   9.496  0.6959  1.1140 -2.3906
  119OSM   C12F12608   1.498   3.174   9.458 -0.1600  0.0416  0.1420
  119OSM   H12F12609   1.603   3.144   9.436 -0.1959  0.2576 -0.3355
  119OSM   H12G12610   1.506   3.270   9.514 -3.4951  2.0204 -2.5362
  119OSM   C13F12611   1.429   3.203   9.326  0.0022  0.0788  0.5497
  119OSM   H13F12612   1.322   3.224   9.345  0.0120 -0.3574  1.0864
  119OSM   H13G12613   1.424   3.116   9.256  0.0437 -0.3596  1.0879
  119OSM   C14F12614   1.489   3.328   9.261  0.4573  0.1487 -0.5545
  119OSM   H14F12615   1.590   3.306   9.220 -0.5254 -0.5194 -2.6766
  119OSM   H14G12616   1.494   3.417   9.327 -1.9983 -0.9122  1.1195
  119OSM   C15F12617   1.417   3.392   9.136  0.4522 -0.5594  0.2999
  119OSM   H15F12618   1.318   3.430   9.169  0.6620  0.4421 -0.2152
  119OSM   H15G12619   1.385   3.310   9.068 -1.6795  2.1753 -2.0825
  119OSM   C16F12620   1.493   3.482   9.042  0.0711 -0.6973  0.2122
  119OSM   H16F12621   1.594   3.435   9.038  1.5112  2.1672  1.3379
  119OSM   H16G12622   1.508   3.580   9.091  3.9674 -1.6243  1.0637
  119OSM   C17F12623   1.413   3.500   8.909  0.2946  0.1738  0.2558
  119OSM   H17F12624   1.315   3.535   8.948  0.0452  1.0028 -1.1231
  119OSM   H17G12625   1.402   3.408   8.848  0.5588  0.3903 -0.1183
  119OSM   C18F12626   1.451   3.616   8.816 -0.0943  0.5267  0.3049
  119OSM   H18F12627   1.396   3.712   8.829 -0.6163  0.4867 -1.5137
  119OSM   H18G12628   1.426   3.582   8.713  3.7727 -0.2387 -0.4241
  119OSM   H18H12629   1.560   3.631   8.824  0.2673 -1.5387 -0.5531
  120OSM      N12630   1.113   6.653  10.571  0.3140  0.4822 -0.0910
  120OSM    C1512631   0.994   6.600  10.499  0.3922 -0.0785 -0.2501
  120OSM   H15A12632   1.024   6.564  10.401  0.6835 -0.5554  0.0132
  120OSM   H15B12633   0.926   6.680  10.473  0.7596  0.2071 -0.3329
  120OSM   H15C12634   0.938   6.525  10.553  1.6777 -1.1848 -0.4394
  120OSM    C1412635   1.067   6.661  10.714 -0.0437  1.0749 -0.4198
  120OSM   H14A12636   0.985   6.729  10.725  0.0025  1.3431 -1.6609
  120OSM   H14B12637   1.147   6.691  10.779  0.2989 -0.3844 -0.1383
  120OSM   H14C12638   1.034   6.566  10.753 -0.4437  1.5270  0.3359
  120OSM    C1312639   1.219   6.542  10.567  0.7097 -0.2849  0.4317
  120OSM   H13A12640   1.230   6.514  10.463  0.0620 -0.6850  0.4674
  120OSM   H13B12641   1.189   6.460  10.631 -1.2194 -0.3597 -0.5273
  120OSM   H13C12642   1.306   6.588  10.609  1.2839  0.2239 -1.2501
  120OSM    C1212643   1.162   6.781  10.514 -0.1692 -0.0793 -0.1856
  120OSM   H12A12644   1.224   6.764  10.428 -0.5089 -0.7843 -0.2900
  120OSM   H12B12645   1.240   6.813  10.582 -1.8678 -0.9519  2.2206
  120OSM    C1112646   1.063   6.899  10.482 -0.5658 -0.1707 -0.5526
  120OSM   H11A12647   0.987   6.859  10.411 -0.7884 -1.3170  0.3012
  120OSM   H11B12648   1.121   6.975  10.426  0.9155 -1.5450 -0.9252
  120OSM      P12649   0.859   6.943  10.650  0.4602  0.3281 -0.2493
  120OSM    O1312650   0.798   6.820  10.595  0.2412 -0.3592  0.0560
  120OSM    O1412651   0.843   6.971  10.794 -0.0913 -0.2510  0.0055
  120OSM    O1112652   0.793   7.071  10.572  0.0019  0.4151  0.0020
  120OSM    O1212653   1.006   6.948  10.608 -0.9161  0.0706  0.8407
  120OSM    C1S12654   0.849   7.199  10.578  0.6704 -0.0251  0.2280
  120OSM    H1S12655   0.929   7.229  10.649  0.9339 -0.1269 -0.0276
  120OSM    H1T12656   0.766   7.265  10.611 -0.5187 -0.0443 -2.5810
  120OSM     NF12657   0.940   7.372  10.423 -0.4154 -0.2424  0.1551
  120OSM    HNF12658   0.875   7.440  10.388 -2.3878 -2.2349 -0.1987
  120OSM    C2S12659   0.896   7.238  10.431  0.2702 -0.1677 -0.0436
  120OSM    H2S12660   0.979   7.172  10.398  0.7230 -0.3020  1.3486
  120OSM    C3S12661   0.787   7.221  10.323  0.5715 -0.1947  0.5842
  120OSM    H3S12662   0.706   7.297  10.328  1.7201  1.1342 -0.6405
  120OSM     O312663   0.713   7.100  10.330  0.1098  0.3468 -0.0118
  120OSM    HO312664   0.734   7.062  10.416  0.8998  0.1958 -0.2738
  120OSM    C4S12665   0.853   7.241  10.190  0.0800  0.4804  0.5311
  120OSM    H4S12666   0.886   7.344  10.172  1.0652  0.3836  1.7410
  120OSM    C5S12667   0.873   7.155  10.085 -0.2247  0.0091  0.8971
  120OSM    H5S12668   0.848   7.049  10.093 -1.5082  0.1241 -1.2857
  120OSM    C6S12669   0.942   7.190   9.952 -0.0522  0.2024  0.3206
  120OSM    H6S12670   0.963   7.098   9.894 -0.8428  0.7839 -0.9324
  120OSM    H6T12671   1.040   7.240   9.969  0.1576 -0.6384  1.6297
  120OSM    C7S12672   0.859   7.283   9.858  0.5254 -0.4208 -0.5170
  120OSM    H7S12673   0.837   7.379   9.909 -1.9743 -0.7713 -0.8267
  120OSM    H7T12674   0.764   7.225   9.857 -0.2331  0.7817  0.1088
  120OSM    C8S12675   0.920   7.312   9.726  0.4183  0.1741  0.1277
  120OSM    H8S12676   0.915   7.217   9.668 -0.7290  0.4032 -0.1592
  120OSM    H8T12677   1.028   7.330   9.746  0.0598 -0.0806  2.4598
  120OSM    C9S12678   0.864   7.427   9.643 -0.0148 -0.3467  0.1687
  120OSM    H9S12679   0.872   7.525   9.695 -0.0299  0.2746 -0.9899
  120OSM    H9T12680   0.754   7.420   9.629 -0.3884  4.2952  0.0665
  120OSM   C10S12681   0.936   7.443   9.504  0.1480 -0.2006  0.2288
  120OSM   H10S12682   0.908   7.354   9.444 -3.5461  1.6438 -0.9595
  120OSM   H10T12683   1.046   7.456   9.518 -0.1056  0.9329  1.3338
  120OSM   C11S12684   0.876   7.551   9.417 -0.3060  0.4029  0.4334
  120OSM   H11S12685   0.843   7.636   9.481  0.4262 -0.0307  1.4025
  120OSM   H11T12686   0.791   7.498   9.368  0.5814 -2.3230  1.7567
  120OSM   C12S12687   0.955   7.603   9.296  0.0692 -0.1434  0.1543
  120OSM   H12S12688   0.970   7.505   9.246  0.3731 -0.5146  0.9565
  120OSM   H12T12689   1.046   7.643   9.346  0.4637 -0.2674 -0.4604
  120OSM   C13S12690   0.874   7.698   9.205 -0.5778 -0.0506  0.3993
  120OSM   H13S12691   0.854   7.781   9.276  1.3966 -0.4225  1.4236
  120OSM   H13T12692   0.779   7.653   9.168 -0.7318 -0.1061  0.8704
  120OSM   C14S12693   0.952   7.733   9.080  0.2189 -0.7359 -0.6251
  120OSM   H14S12694   0.990   7.639   9.034  0.5961  0.4570 -2.8327
  120OSM   H14T12695   1.036   7.788   9.128 -1.3921 -0.4792  1.9819
  120OSM   C15S12696   0.895   7.836   8.978 -0.0518  0.1481 -0.8441
  120OSM   H15S12697   0.986   7.871   8.924 -0.6262  0.2924 -1.7403
  120OSM   H15T12698   0.842   7.915   9.034  0.4248  0.2985 -0.6052
  120OSM   C16S12699   0.798   7.780   8.873 -0.1177 -0.0522 -0.3100
  120OSM   H16S12700   0.696   7.757   8.910 -0.1915 -1.9801 -1.6532
  120OSM   H16T12701   0.838   7.688   8.824 -2.0082  0.0613 -2.1309
  120OSM   C17S12702   0.761   7.886   8.772 -0.1641 -0.1649 -0.0389
  120OSM   H17S12703   0.852   7.934   8.729 -1.6279  1.9911 -0.8672
  120OSM   H17T12704   0.711   7.966   8.833  0.9584  1.0565 -0.6884
  120OSM   C18S12705   0.677   7.837   8.653 -0.6007 -0.2192  0.5302
  120OSM   H18S12706   0.722   7.744   8.612  1.0631  0.7745  0.0382
  120OSM   H18T12707   0.688   7.911   8.571 -0.5506  0.4534  1.1420
  120OSM   H18U12708   0.570   7.822   8.677 -0.3192  1.0179  2.6908
  120OSM    C1F12709   1.041   7.422  10.490  1.0907  0.2184 -0.5150
  120OSM     OF12710   1.128   7.344  10.531 -0.2036 -0.1696 -0.4368
  120OSM    C2F12711   1.041   7.568  10.524  0.6017 -0.2450  0.1818
  120OSM    H2F12712   1.052   7.591  10.632  1.2741 -2.8316  0.7097
  120OSM    H2G12713   0.960   7.624  10.472  1.0888  2.3309  2.1022
  120OSM    C3F12714   1.170   7.636  10.467 -0.5195  0.0304  0.3615
  120OSM    H3F12715   1.255   7.601  10.529 -1.3863  0.1385  1.6421
  120OSM    H3G12716   1.156   7.746  10.472 -1.5955 -0.0735 -0.2031
  120OSM    C4F12717   1.196   7.591  10.312 -0.1241  0.5749 -1.0213
  120OSM    H4F12718   1.202   7.481  10.297 -0.1023 -0.0525  3.0791
  120OSM    H4G12719   1.296   7.633  10.287 -0.0299  0.5642 -0.6581
  120OSM    C5F12720   1.099   7.640  10.211  0.4641 -1.0866 -0.3732
  120OSM    H5F12721   1.099   7.749  10.191 -0.3159 -0.8672  0.7635
  120OSM    H5G12722   0.996   7.617  10.246  0.1024  1.4266  0.2780
  120OSM    C6F12723   1.125   7.573  10.073 -0.4921  0.0902  0.6970
  120OSM    H6F12724   1.047   7.616  10.008  1.5388  3.2140  0.2255
  120OSM    H6G12725   1.116   7.462  10.082 -1.8364  0.1906  0.5756
  120OSM    C7F12726   1.260   7.624  10.014  0.7461  0.5566  0.7888
  120OSM    H7F12727   1.344   7.577  10.070 -0.8653  0.6144  3.3396
  120OSM    H7G12728   1.261   7.733  10.036  2.2191  0.4894  1.0725
  120OSM    C8F12729   1.257   7.596   9.871  0.2421  0.3139  0.0363
  120OSM    H8F12730   1.177   7.645   9.811 -0.8431  0.8623  1.9048
  120OSM    H8G12731   1.228   7.490   9.853  1.1541 -0.0213  0.4684
  120OSM    C9F12732   1.399   7.605   9.821 -0.2799 -0.2110 -0.1861
  120OSM    H9F12733   1.476   7.568   9.891 -0.9808 -0.5594  0.4046
  120OSM   C10F12734   1.442   7.645   9.700  0.1904 -0.2237  0.2066
  120OSM   H10F12735   1.548   7.661   9.679  0.1782 -0.1216  0.2223
  120OSM   C11F12736   1.348   7.698   9.602 -0.2012 -0.3920  0.0107
  120OSM   H11F12737   1.283   7.778   9.644  2.5896  1.7337  0.4460
  120OSM   H11G12738   1.286   7.618   9.557 -0.8850  0.4540 -0.5610
  120OSM   C12F12739   1.437   7.740   9.492 -0.3050 -0.2073 -0.1412
  120OSM   H12F12740   1.502   7.658   9.454 -1.6133 -0.1043 -2.6887
  120OSM   H12G12741   1.493   7.833   9.513  0.5549 -0.5534 -0.8461
  120OSM   C13F12742   1.354   7.777   9.369 -0.4156  1.0700 -0.7227
  120OSM   H13F12743   1.266   7.833   9.406 -1.1966 -0.3030 -0.4651
  120OSM   H13G12744   1.306   7.688   9.323 -3.5857  1.6384  1.3261
  120OSM   C14F12745   1.428   7.853   9.258  0.2128 -0.0886 -0.4988
  120OSM   H14F12746   1.519   7.795   9.232  0.1312 -1.0998  1.3779
  120OSM   H14G12747   1.463   7.949   9.303  0.8959 -0.0515 -1.1126
  120OSM   C15F12748   1.338   7.878   9.135  0.1129 -0.2952  0.6102
  120OSM   H15F12749   1.240   7.919   9.165 -0.2191 -2.0558  1.9811
  120OSM   H15G12750   1.317   7.778   9.091 -1.2474  0.0142  0.5373
  120OSM   C16F12751   1.409   7.952   9.019 -0.7441 -0.8445  0.2855
  120OSM   H16F12752   1.458   7.874   8.957 -2.0972 -1.2164 -0.3104
  120OSM   H16G12753   1.475   8.028   9.067 -2.2923  0.3504  0.5435
  120OSM   C17F12754   1.315   8.026   8.917  0.3312 -0.2851  0.0897
  120OSM   H17F12755   1.242   7.949   8.885 -1.6517  1.2009  0.9063
  120OSM   H17G12756   1.373   8.067   8.833 -1.3863 -1.5067 -1.7575
  120OSM   C18F12757   1.247   8.154   8.977  0.1959  0.7201 -0.1132
  120OSM   H18F12758   1.318   8.237   8.999  0.9447 -0.2824  1.3822
  120OSM   H18G12759   1.193   8.125   9.069  0.6911 -0.6695 -0.2542
  120OSM   H18H12760   1.176   8.199   8.905  1.9143  2.1282 -0.9715
  121OSM      N12761   6.377   2.475  10.917  0.2389 -0.5081  0.2738
  121OSM    C1512762   6.313   2.382  10.822 -0.7080 -0.3665 -0.4621
  121OSM   H15A12763   6.226   2.332  10.860 -0.7740 -1.1375 -1.6137
  121OSM   H15B12764   6.385   2.306  10.799 -1.1153 -0.7347 -0.5224
  121OSM   H15C12765   6.299   2.434  10.728 -2.6357  1.4744  0.7891
  121OSM    C1412766   6.286   2.592  10.933  0.3048 -0.7186 -0.5029
  121OSM   H14A12767   6.195   2.566  10.985  0.3895  0.5905  0.3045
  121OSM   H14B12768   6.275   2.642  10.838  1.4178  1.3903  0.4514
  121OSM   H14C12769   6.342   2.662  10.992  1.1099 -2.5974  1.0072
  121OSM    C1312770   6.406   2.410  11.048 -0.1267  0.6485 -0.2684
  121OSM   H13A12771   6.465   2.474  11.112  1.8081 -0.4483 -0.9209
  121OSM   H13B12772   6.476   2.331  11.026 -2.1073 -1.5376  1.0536
  121OSM   H13C12773   6.321   2.385  11.110  0.7940 -1.1227  0.3130
  121OSM    C1212774   6.508   2.523  10.856  0.3443 -0.1571  0.8994
  121OSM   H12A12775   6.508   2.552  10.752 -0.1525 -0.6828  0.7552
  121OSM   H12B12776   6.576   2.440  10.854  0.8804  0.3004  0.1713
  121OSM    C1112777   6.576   2.635  10.938 -0.0004  0.3574 -0.1541
  121OSM   H11A12778   6.679   2.639  10.895 -0.6540 -1.1803 -1.8889
  121OSM   H11B12779   6.588   2.611  11.046 -0.8231  0.4771 -0.0386
  121OSM      P12780   6.565   2.889  11.001 -0.3639 -0.0221 -0.4783
  121OSM    O1312781   6.478   3.001  10.953 -0.0651 -0.0031 -0.0612
  121OSM    O1412782   6.575   2.861  11.153 -0.2458 -0.0130 -0.1312
  121OSM    O1112783   6.711   2.901  10.940  0.1066  0.1435 -0.0609
  121OSM    O1212784   6.509   2.759  10.924 -0.3371 -0.4377 -0.5494
  121OSM    C1S12785   6.749   2.880  10.801  0.2428  0.6798  0.0327
  121OSM    H1S12786   6.661   2.849  10.740 -0.9092  1.9502  1.0211
  121OSM    H1T12787   6.841   2.819  10.784  0.8892  2.1179 -1.8101
  121OSM     NF12788   6.829   2.979  10.590  0.2345  0.3513  0.0480
  121OSM    HNF12789   6.928   2.968  10.586  0.4233  1.2570  1.8047
  121OSM    C2S12790   6.786   3.016  10.724 -0.7268  0.0034  0.5633
  121OSM    H2S12791   6.695   3.078  10.704 -0.5760  0.4610  1.2827
  121OSM    C3S12792   6.887   3.103  10.808 -0.1416 -0.1596  0.4259
  121OSM    H3S12793   6.970   3.032  10.830  0.0991  0.9968  3.4685
  121OSM     O312794   6.837   3.139  10.935  0.4576 -0.2150 -0.4325
  121OSM    HO312795   6.768   3.075  10.952  0.1204 -0.3115 -2.0491
  121OSM    C4S12796   6.934   3.224  10.736  1.1793 -0.2397  0.2714
  121OSM    H4S12797   6.854   3.294  10.709  0.1071 -2.5281 -2.6983
  121OSM    C5S12798   7.060   3.257  10.717  0.0273  0.0335  0.1712
  121OSM    H5S12799   7.131   3.187  10.763 -1.2762 -0.0118  2.2041
  121OSM    C6S12800   7.101   3.382  10.645 -0.6818 -0.1412  0.0918
  121OSM    H6S12801   7.162   3.448  10.711  0.1114  1.0674 -1.8073
  121OSM    H6T12802   7.008   3.433  10.612 -0.9063  1.1847  2.6714
  121OSM    C7S12803   7.198   3.349  10.527  0.0289  0.6570  0.0328
  121OSM    H7S12804   7.264   3.266  10.560 -0.4711  0.0290 -0.5326
  121OSM    H7T12805   7.266   3.435  10.510  0.5977  0.1796 -0.1142
  121OSM    C8S12806   7.129   3.309  10.400 -0.0885  0.0161 -0.1010
  121OSM    H8S12807   7.037   3.370  10.384 -1.0249 -0.8694  1.6944
  121OSM    H8T12808   7.097   3.204  10.419  0.9056 -0.1737  0.5807
  121OSM    C9S12809   7.215   3.309  10.273 -0.1440 -0.2857  0.0711
  121OSM    H9S12810   7.306   3.253  10.305  0.5188  1.1351  0.7433
  121OSM    H9T12811   7.254   3.413  10.265 -0.5844 -0.2542 -1.9736
  121OSM   C10S12812   7.146   3.266  10.144 -0.4408  0.4165  0.0578
  121OSM   H10S12813   7.050   3.321  10.134 -0.4356  1.0245  2.8085
  121OSM   H10T12814   7.120   3.158  10.142  0.0683  0.3138 -1.1732
  121OSM   C11S12815   7.228   3.306  10.024 -0.0210 -0.1463  0.2186
  121OSM   H11S12816   7.326   3.255  10.030 -1.7307 -3.8351 -1.6588
  121OSM   H11T12817   7.237   3.417  10.015 -0.6446  0.1369  2.7624
  121OSM   C12S12818   7.155   3.266   9.885  0.1841  0.2359  0.0237
  121OSM   H12S12819   7.071   3.328   9.847  1.4449  0.2162 -2.9522
  121OSM   H12T12820   7.110   3.165   9.890  1.1673 -0.2952 -1.3928
  121OSM   C13S12821   7.260   3.275   9.768 -0.1923  0.5234 -0.5426
  121OSM   H13S12822   7.345   3.204   9.779 -1.2245 -0.3848  1.7152
  121OSM   H13T12823   7.315   3.372   9.773 -1.6686  1.3894 -0.6558
  121OSM   C14S12824   7.197   3.258   9.632 -0.3481  0.4322  0.3104
  121OSM   H14S12825   7.129   3.344   9.616  1.1288  1.2788 -1.5584
  121OSM   H14T12826   7.135   3.166   9.621  2.3155 -1.2716 -1.0499
  121OSM   C15S12827   7.297   3.284   9.512 -0.5814 -0.1262  0.1853
  121OSM   H15S12828   7.384   3.215   9.506  0.0850  0.4358  2.8272
  121OSM   H15T12829   7.348   3.381   9.530  0.7534 -0.7025 -0.4159
  121OSM   C16S12830   7.233   3.301   9.376  0.5127 -0.3384 -0.1213
  121OSM   H16S12831   7.136   3.352   9.390 -0.5357 -1.8087 -1.8103
  121OSM   H16T12832   7.211   3.202   9.329 -0.2485 -1.4798  2.5408
  121OSM   C17S12833   7.308   3.400   9.288  0.0364 -0.2686 -0.1969
  121OSM   H17S12834   7.418   3.380   9.289  0.6328  2.3862 -3.2583
  121OSM   H17T12835   7.300   3.501   9.332  1.4706  0.9737 -2.6640
  121OSM   C18S12836   7.251   3.402   9.146  0.0507  0.1251  0.0138
  121OSM   H18S12837   7.278   3.491   9.086  0.4175 -0.0259 -0.0470
  121OSM   H18T12838   7.141   3.388   9.142  0.0269  0.7443 -1.7924
  121OSM   H18U12839   7.282   3.308   9.095 -3.2381  0.3394 -2.5342
  121OSM    C1F12840   6.749   2.947  10.491 -0.0517  0.2536  0.1186
  121OSM     OF12841   6.627   2.960  10.510 -0.5002  0.2937 -0.2647
  121OSM    C2F12842   6.808   2.888  10.368  0.2600  0.2815  0.0193
  121OSM    H2F12843   6.755   2.793  10.348  0.0355  1.1455 -3.8798
  121OSM    H2G12844   6.917   2.867  10.378  0.1750 -2.9883 -4.6172
  121OSM    C3F12845   6.788   2.970  10.238  0.6587 -0.1914 -0.1991
  121OSM    H3F12846   6.860   3.054  10.251  0.4402 -0.0925  0.3430
  121OSM    H3G12847   6.694   3.026  10.222 -0.0484 -1.0764  0.8275
  121OSM    C4F12848   6.829   2.905  10.107  0.0798 -0.1001  0.3700
  121OSM    H4F12849   6.754   2.826  10.084 -0.7753  0.5464  0.9093
  121OSM    H4G12850   6.932   2.863  10.110 -0.1026 -0.5297  0.7925
  121OSM    C5F12851   6.818   3.010   9.993  0.6543  0.0136 -0.3821
  121OSM    H5F12852   6.901   3.083  10.001  1.1102 -0.2993 -2.1279
  121OSM    H5G12853   6.719   3.061   9.989  1.7287  2.0487 -2.7041
  121OSM    C6F12854   6.838   2.945   9.851  0.1664  0.0757  0.5531
  121OSM    H6F12855   6.766   2.861   9.842  0.2443  0.1103 -0.3676
  121OSM    H6G12856   6.935   2.892   9.865 -1.6995 -3.2327  1.5249
  121OSM    C7F12857   6.826   3.046   9.735 -0.0691 -0.2566  0.4135
  121OSM    H7F12858   6.903   3.120   9.763 -0.1408  0.1921 -0.5682
  121OSM    H7G12859   6.726   3.092   9.723 -0.2717 -1.2493 -2.0015
  121OSM    C8F12860   6.859   2.969   9.607 -0.5588  0.8060 -0.5374
  121OSM    H8F12861   6.763   2.913   9.599  0.0634 -0.8351  2.6673
  121OSM    H8G12862   6.952   2.910   9.620 -0.1297  1.9447  1.8976
  121OSM    C9F12863   6.872   3.072   9.497 -0.6757  0.2523 -0.4175
  121OSM    H9F12864   6.817   3.163   9.523  0.6316  0.7646  0.6246
  121OSM   C10F12865   6.947   3.064   9.388 -0.1286  0.4034  0.2679
  121OSM   H10F12866   6.944   3.155   9.327 -2.0390 -0.5789 -1.1807
  121OSM   C11F12867   7.031   2.944   9.346  0.2218 -0.0705 -0.5904
  121OSM   H11F12868   7.008   2.852   9.404 -1.2533 -0.3007 -1.5162
  121OSM   H11G12869   7.137   2.975   9.363 -0.0124 -1.3509  3.6426
  121OSM   C12F12870   7.019   2.914   9.195  0.1844 -0.0747  0.5903
  121OSM   H12F12871   6.918   2.868   9.181 -0.2478  0.9428  0.3620
  121OSM   H12G12872   7.091   2.843   9.149 -2.3019 -0.3677 -3.0817
  121OSM   C13F12873   7.035   3.037   9.110 -0.2011 -0.6959 -0.9165
  121OSM   H13F12874   7.125   3.092   9.143 -0.2088 -1.7038  0.8390
  121OSM   H13G12875   6.945   3.102   9.111 -0.4768 -1.0647 -1.2371
  121OSM   C14F12876   7.056   2.996   8.963 -0.4033 -0.6294 -1.0429
  121OSM   H14F12877   7.142   2.927   8.964 -0.5107 -0.7603 -0.7988
  121OSM   H14G12878   7.059   3.079   8.889 -2.0014  0.9402  0.5602
  121OSM   C15F12879   6.936   2.916   8.922  0.0568 -0.0150  0.3735
  121OSM   H15F12880   6.840   2.965   8.948  0.2004  1.4123 -1.7023
  121OSM   H15G12881   6.934   2.816   8.970  0.1542  0.7691  2.0459
  121OSM   C16F12882   6.921   2.894   8.767  0.1802 -0.2178 -0.3299
  121OSM   H16F12883   6.894   2.786   8.762  0.4228 -0.2179 -1.6546
  121OSM   H16G12884   7.014   2.927   8.716 -0.6601  1.0015 -1.0947
  121OSM   C17F12885   6.799   2.970   8.707  0.3571  0.2154  0.4395
  121OSM   H17F12886   6.815   3.079   8.715 -0.3619  0.2253  1.8656
  121OSM   H17G12887   6.720   2.942   8.780  1.3545 -1.1070  1.0430
  121OSM   C18F12888   6.776   2.920   8.569 -0.2754  0.5397 -0.2003
  121OSM   H18F12889   6.690   2.973   8.523 -1.1183  0.3658  1.1503
  121OSM   H18G12890   6.751   2.812   8.569 -1.0074  0.6984 -1.1373
  121OSM   H18H12891   6.862   2.933   8.500  0.4910 -1.4386  0.3649
  122OSM      N12892   0.582   0.830  11.082  0.0668 -0.4583 -0.2396
  122OSM    C1512893   0.530   0.836  11.221  0.7101  0.0751  0.6313
  122OSM   H15A12894   0.592   0.792  11.298  0.9833 -1.9663 -0.7056
  122OSM   H15B12895   0.449   0.765  11.220  1.2906 -0.5881  0.2222
  122OSM   H15C12896   0.491   0.932  11.251  0.6691  0.5089 -0.7798
  122OSM    C1412897   0.729   0.847  11.070  0.2022  0.5551  0.2686
  122OSM   H14A12898   0.789   0.775  11.126  1.4860  1.4227  0.0268
  122OSM   H14B12899   0.759   0.946  11.100  0.1207  0.6783 -0.0666
  122OSM   H14C12900   0.762   0.843  10.968 -2.7080  2.7678 -0.8224
  122OSM    C1312901   0.550   0.689  11.032 -0.6831 -0.1175 -0.6455
  122OSM   H13A12902   0.595   0.664  10.937 -1.7244 -0.6166 -1.0142
  122OSM   H13B12903   0.444   0.670  11.040 -0.3303 -2.0298 -0.2596
  122OSM   H13C12904   0.601   0.624  11.102  0.2824  0.6103 -0.6621
  122OSM    C1212905   0.508   0.931  10.992  0.0963 -0.1916 -0.2762
  122OSM   H12A12906   0.403   0.906  10.993 -0.4211  1.7142 -2.3268
  122OSM   H12B12907   0.557   0.913  10.898 -2.6028  0.5187 -1.8723
  122OSM    C1112908   0.527   1.084  11.005  0.1440  0.2428 -0.6845
  122OSM   H11A12909   0.508   1.120  11.108 -1.7896 -3.7013  0.4272
  122OSM   H11B12910   0.450   1.132  10.941 -0.8106 -0.1079  0.2049
  122OSM      P12911   0.717   1.134  10.817  0.0162 -0.3927  0.2525
  122OSM    O1312912   0.861   1.170  10.830  0.5076  0.2850 -0.1371
  122OSM    O1412913   0.690   1.015  10.733  0.3788  0.2593 -0.8465
  122OSM    O1112914   0.631   1.258  10.766 -0.0343 -0.7169  0.3191
  122OSM    O1212915   0.659   1.111  10.955 -0.0681  0.1078 -0.3603
  122OSM    C1S12916   0.695   1.357  10.684  0.1057 -0.0872  0.8663
  122OSM    H1S12917   0.805   1.357  10.695  0.1543  0.4401  0.3911
  122OSM    H1T12918   0.664   1.461  10.708  1.1031  0.3748  0.1426
  122OSM     NF12919   0.749   1.388  10.435  0.0160  0.4632 -0.4417
  122OSM    HNF12920   0.712   1.467  10.387  1.7283  0.8113 -1.2259
  122OSM    C2S12921   0.661   1.326  10.529  0.0313 -0.7075  0.6014
  122OSM    H2S12922   0.679   1.218  10.510  0.8167 -0.8365  2.0754
  122OSM    C3S12923   0.514   1.367  10.502 -0.2983  0.2036  0.1187
  122OSM    H3S12924   0.517   1.477  10.508  2.8660  0.1046  1.1396
  122OSM     O312925   0.417   1.320  10.591  0.0419  0.5180 -0.0835
  122OSM    HO312926   0.468   1.289  10.666  1.1242  1.9095 -0.2306
  122OSM    C4S12927   0.467   1.322  10.362 -0.4214 -0.5587 -0.1626
  122OSM    H4S12928   0.488   1.216  10.340 -0.2965 -0.3587 -1.0353
  122OSM    C5S12929   0.422   1.407  10.278  0.6050  0.2698  0.6871
  122OSM    H5S12930   0.407   1.512  10.308 -1.6985 -0.4696  2.2628
  122OSM    C6S12931   0.380   1.379  10.134 -0.3459  0.6888  0.1145
  122OSM    H6S12932   0.271   1.395  10.117 -0.3119 -0.2134 -1.0350
  122OSM    H6T12933   0.394   1.270  10.117 -0.1267  0.8828 -1.0140
  122OSM    C7S12934   0.453   1.463  10.024  0.8683  0.2322 -0.7648
  122OSM    H7S12935   0.561   1.470  10.050 -0.0925  0.9394  3.4155
  122OSM    H7T12936   0.410   1.565  10.036 -0.5151 -0.4547  0.3039
  122OSM    C8S12937   0.414   1.397   9.891 -0.1105  0.1342  0.0261
  122OSM    H8S12938   0.304   1.383   9.887  0.0399 -0.5514 -1.8602
  122OSM    H8T12939   0.454   1.294   9.884 -0.6271  0.0317 -1.6522
  122OSM    C9S12940   0.456   1.485   9.775 -1.0846  0.1048 -0.2410
  122OSM    H9S12941   0.566   1.471   9.768 -1.0772 -0.7898  1.4453
  122OSM    H9T12942   0.429   1.591   9.789  3.5401  1.4788 -1.0533
  122OSM   C10S12943   0.398   1.425   9.649  1.2021 -0.5311 -0.7286
  122OSM   H10S12944   0.288   1.417   9.654  1.0787  1.0513 -0.7541
  122OSM   H10T12945   0.439   1.322   9.650  1.7004 -0.3355  1.2920
  122OSM   C11S12946   0.457   1.491   9.524 -0.7362  0.6577 -0.2909
  122OSM   H11S12947   0.409   1.442   9.437  0.3710  1.0600 -1.1302
  122OSM   H11T12948   0.562   1.457   9.514 -1.5056 -2.1766  0.7079
  122OSM   C12S12949   0.435   1.649   9.512 -0.4154 -0.5317  0.4111
  122OSM   H12S12950   0.499   1.706   9.582  0.9473  1.9973 -2.7400
  122OSM   H12T12951   0.328   1.672   9.529 -0.2078  0.6871  0.1809
  122OSM   C13S12952   0.473   1.698   9.372  0.5533  0.4773 -0.5401
  122OSM   H13S12953   0.401   1.665   9.294  0.6205  0.8597 -0.7643
  122OSM   H13T12954   0.574   1.655   9.353  0.6205  1.6086 -3.0003
  122OSM   C14S12955   0.483   1.849   9.357  0.1143  0.6995 -0.4386
  122OSM   H14S12956   0.549   1.906   9.425 -2.3554  1.4730  1.3861
  122OSM   H14T12957   0.387   1.890   9.395 -0.4139  0.4735 -1.5297
  122OSM   C15S12958   0.501   1.903   9.212 -0.5003 -0.2994 -1.0904
  122OSM   H15S12959   0.501   1.822   9.136 -0.9716 -1.7049  0.3671
  122OSM   H15T12960   0.606   1.938   9.215 -0.3238 -0.8604 -0.5438
  122OSM   C16S12961   0.408   2.014   9.176  0.3389 -0.9285 -0.4270
  122OSM   H16S12962   0.438   2.100   9.240 -0.5301 -1.0275  0.1292
  122OSM   H16T12963   0.302   1.992   9.200  0.4167  0.1522  0.9699
  122OSM   C17S12964   0.413   2.048   9.025  0.5743 -0.4884 -0.4610
  122OSM   H17S12965   0.331   2.117   8.995  2.0156  3.2081  3.5385
  122OSM   H17T12966   0.389   1.956   8.968  1.7251 -0.8008 -0.4535
  122OSM   C18S12967   0.555   2.080   8.964 -0.2123  0.2443 -0.8545
  122OSM   H18S12968   0.630   2.000   8.978  0.4158  1.2583  1.8570
  122OSM   H18T12969   0.594   2.171   9.014 -0.9098 -0.7577  1.5846
  122OSM   H18U12970   0.546   2.108   8.856  2.5817  0.0352 -1.1645
  122OSM    C1F12971   0.881   1.356  10.421  0.3874  0.5787 -0.5353
  122OSM     OF12972   0.946   1.287  10.503 -0.1227 -0.1600  0.3208
  122OSM    C2F12973   0.941   1.394  10.289 -0.4588 -0.3670  0.7227
  122OSM    H2F12974   0.963   1.503  10.295  0.4632 -0.5480  0.5793
  122OSM    H2G12975   0.857   1.381  10.217  0.2590 -0.3149 -0.1241
  122OSM    C3F12976   1.070   1.312  10.254 -0.3151  0.1351  0.0016
  122OSM    H3F12977   1.049   1.202  10.256  0.1167  0.0635  0.5742
  122OSM    H3G12978   1.147   1.340  10.328 -0.2879 -0.6577  0.2790
  122OSM    C4F12979   1.114   1.357  10.111  0.0239  0.1462 -0.3954
  122OSM    H4F12980   1.183   1.443  10.121  2.9871 -2.2338  0.1350
  122OSM    H4G12981   1.018   1.394  10.068 -1.4202 -2.4683  0.4646
  122OSM    C5F12982   1.175   1.251  10.030 -0.5374  0.0187 -0.2029
  122OSM    H5F12983   1.091   1.197   9.980  0.2587  1.0270 -2.6488
  122OSM    H5G12984   1.233   1.176  10.088  1.4304  0.3087 -1.7326
  122OSM    C6F12985   1.260   1.312   9.912  0.0389  0.0212 -0.5989
  122OSM    H6F12986   1.333   1.382   9.957 -1.6977  1.2091  0.4517
  122OSM    H6G12987   1.194   1.375   9.848 -2.7255 -0.8597  1.2840
  122OSM    C7F12988   1.337   1.213   9.825 -0.2426  0.0168  0.0137
  122OSM    H7F12989   1.266   1.128   9.812  0.0496 -0.2048 -0.1536
  122OSM    H7G12990   1.427   1.177   9.878  0.3228  1.1755 -0.1487
  122OSM    C8F12991   1.387   1.270   9.690 -0.1199  0.0500  0.0973
  122OSM    H8F12992   1.299   1.300   9.630  1.0643  0.9853 -1.1958
  122OSM    H8G12993   1.452   1.190   9.648  1.2685 -0.1986  2.5977
  122OSM    C9F12994   1.466   1.398   9.717 -0.0962 -0.4781 -0.3981
  122OSM    H9F12995   1.552   1.384   9.784  0.1606  0.3497 -0.5528
  122OSM   C10F12996   1.440   1.523   9.681  0.0798 -0.2975 -0.1218
  122OSM   H10F12997   1.510   1.600   9.719 -0.4894 -1.1394  2.7555
  122OSM   C11F12998   1.326   1.572   9.596  0.1264  0.3678  0.3114
  122OSM   H11F12999   1.261   1.606   9.679 -0.0561  0.3911  0.1589
  122OSM   H11G13000   1.272   1.490   9.544  1.4458 -1.0448  1.0905
  122OSM   C12F13001   1.359   1.679   9.493 -0.8115  0.4117 -0.3078
  122OSM   H12F13002   1.417   1.761   9.539  0.1196  0.3986 -1.4153
  122OSM   H12G13003   1.264   1.727   9.462 -0.6333  0.2407 -1.1490
  122OSM   C13F13004   1.433   1.629   9.370  0.1968  0.8311  0.3754
  122OSM   H13F13005   1.380   1.550   9.313  1.3302  1.0579 -1.0376
  122OSM   H13G13006   1.529   1.584   9.402 -0.7186 -0.6875  1.0384
  122OSM   C14F13007   1.449   1.734   9.265 -0.4329 -0.0985 -0.9292
  122OSM   H14F13008   1.503   1.822   9.305 -0.1817 -0.2990 -0.8322
  122OSM   H14G13009   1.348   1.760   9.227 -1.9682 -0.9506  2.4158
  122OSM   C15F13010   1.525   1.675   9.142 -0.3758  0.2873  0.3416
  122OSM   H15F13011   1.491   1.570   9.128 -0.9096  0.5753 -0.5784
  122OSM   H15G13012   1.633   1.683   9.165 -0.2132 -0.9828  0.1027
  122OSM   C16F13013   1.492   1.760   9.020 -0.0203  0.4868  0.4349
  122OSM   H16F13014   1.383   1.757   8.999 -0.0014  0.7389  0.2939
  122OSM   H16G13015   1.554   1.724   8.935  2.7986  2.7571  1.4420
  122OSM   C17F13016   1.517   1.922   9.029  0.4831 -0.8330 -0.7845
  122OSM   H17F13017   1.614   1.940   9.081 -0.4963 -1.1198  1.2214
  122OSM   H17G13018   1.440   1.959   9.100 -0.1687 -4.1344  0.3641
  122OSM   C18F13019   1.513   2.001   8.903  0.2550 -0.2401  0.7133
  122OSM   H18F13020   1.410   2.005   8.863  0.0736  3.0397  1.3952
  122OSM   H18G13021   1.582   1.962   8.825 -0.0784  1.0562 -0.2394
  122OSM   H18H13022   1.556   2.103   8.914 -0.4620  0.2202 -0.6580
  123OSM      N13023   5.280   6.669   5.823 -0.0924  0.3881 -0.3249
  123OSM    C1513024   5.158   6.611   5.759  0.4668  0.3593 -0.1791
  123OSM   H15A13025   5.076   6.597   5.829  1.9713  0.8260  1.7152
  123OSM   H15B13026   5.175   6.511   5.722 -0.0198  0.7817 -1.5856
  123OSM   H15C13027   5.122   6.680   5.685  0.9226  2.1883  1.2733
  123OSM    C1413028   5.390   6.639   5.726  0.8605 -0.4861  0.0844
  123OSM   H14A13029   5.480   6.694   5.751  0.0359  1.9787 -2.1312
  123OSM   H14B13030   5.371   6.653   5.620 -1.6106 -1.4466  0.3784
  123OSM   H14C13031   5.420   6.535   5.718  1.4743 -0.1458 -2.9827
  123OSM    C1313032   5.254   6.812   5.848  0.1927 -0.6637  0.0540
  123OSM   H13A13033   5.164   6.826   5.906  0.4789 -0.5205  0.4646
  123OSM   H13B13034   5.242   6.859   5.752  2.6408  2.3853  1.1695
  123OSM   H13C13035   5.341   6.857   5.894 -0.0061  1.5485 -1.6743
  123OSM    C1213036   5.308   6.597   5.952  0.3083  1.2809 -0.6526
  123OSM   H12A13037   5.401   6.634   5.991 -0.5525  3.0853 -0.2212
  123OSM   H12B13038   5.311   6.491   5.933 -0.0335  1.0598  0.4790
  123OSM    C1113039   5.199   6.613   6.065 -0.8843 -0.1180  0.3164
  123OSM   H11A13040   5.160   6.717   6.075 -4.2715 -1.3480  0.3844
  123OSM   H11B13041   5.248   6.594   6.163  0.5375  1.1701 -0.1248
  123OSM      P13042   5.066   6.378   6.027 -0.2434 -0.0218 -0.1352
  123OSM    O1313043   4.953   6.348   5.933 -0.4484 -0.6959  0.4854
  123OSM    O1413044   5.192   6.315   5.995  0.0245 -0.1477  0.0600
  123OSM    O1113045   5.019   6.329   6.169  0.3158  0.6398 -0.7816
  123OSM    O1213046   5.084   6.532   6.038 -0.7975 -0.5732 -0.6225
  123OSM    C1S13047   4.970   6.413   6.279 -0.5895 -0.0190  0.4040
  123OSM    H1S13048   4.860   6.406   6.295 -0.6708  0.8806  0.2699
  123OSM    H1T13049   5.007   6.517   6.268 -0.2947 -0.0811  0.8073
  123OSM     NF13050   4.951   6.397   6.533  0.1489 -0.0782  0.2913
  123OSM    HNF13051   4.979   6.474   6.590 -0.0239 -0.8310  1.4123
  123OSM    C2S13052   5.034   6.364   6.418  0.2383  0.3631  0.6024
  123OSM    H2S13053   5.041   6.253   6.405  2.1294  0.6141 -0.8018
  123OSM    C3S13054   5.194   6.389   6.423  0.0498 -0.6039 -0.0910
  123OSM    H3S13055   5.204   6.499   6.417 -0.2711 -0.6565 -1.7838
  123OSM     O313056   5.260   6.344   6.307 -0.9029 -0.1702  0.2613
  123OSM    HO313057   5.187   6.325   6.248 -1.1937  0.9479  0.2396
  123OSM    C4S13058   5.254   6.352   6.559 -0.0785 -0.0961 -0.8008
  123OSM    H4S13059   5.228   6.429   6.632  2.5322  1.3944 -1.3780
  123OSM    C5S13060   5.342   6.248   6.590 -0.1581  0.4229  0.2397
  123OSM    H5S13061   5.367   6.179   6.508 -2.5441  0.6238 -0.6875
  123OSM    C6S13062   5.407   6.225   6.722 -0.5555  0.2632  0.2888
  123OSM    H6S13063   5.515   6.252   6.717 -0.1352 -1.4973 -0.5837
  123OSM    H6T13064   5.430   6.118   6.740 -1.7958  0.2758  2.0745
  123OSM    C7S13065   5.346   6.292   6.839  0.2091 -0.0108  0.2759
  123OSM    H7S13066   5.243   6.254   6.853  0.2820 -0.5384 -0.6396
  123OSM    H7T13067   5.338   6.403   6.833  1.6808  0.0204 -1.5008
  123OSM    C8S13068   5.428   6.276   6.966 -0.3789  0.0756  0.5950
  123OSM    H8S13069   5.524   6.331   6.958 -0.7565  0.4997 -1.1603
  123OSM    H8T13070   5.438   6.165   6.972  0.9126  0.0446 -1.5241
  123OSM    C9S13071   5.344   6.326   7.080  0.5290 -0.7543  0.8741
  123OSM    H9S13072   5.237   6.299   7.092 -0.0167 -0.7879 -3.2121
  123OSM    H9T13073   5.357   6.436   7.072  0.3730 -0.7757  0.2607
  123OSM   C10S13074   5.421   6.289   7.211  0.0857  0.8014  0.2241
  123OSM   H10S13075   5.524   6.327   7.197 -0.3899  1.6865 -0.8984
  123OSM   H10T13076   5.439   6.180   7.223  0.4159  1.1375  3.1802
  123OSM   C11S13077   5.365   6.348   7.339 -0.2074 -0.2119 -0.4919
  123OSM   H11S13078   5.265   6.307   7.361 -1.2734  2.2398 -0.5727
  123OSM   H11T13079   5.354   6.458   7.322  3.2176  0.0748 -1.2975
  123OSM   C12S13080   5.456   6.337   7.466  0.3515 -0.2936 -0.3053
  123OSM   H12S13081   5.545   6.401   7.452  0.6911 -1.2493 -2.7410
  123OSM   H12T13082   5.473   6.229   7.488  0.3867 -0.3444 -0.5752
  123OSM   C13S13083   5.378   6.381   7.588  1.0101  0.1308 -0.4514
  123OSM   H13S13084   5.295   6.312   7.613  0.7985  1.1087  1.6439
  123OSM   H13T13085   5.344   6.484   7.565 -0.1541 -1.1700 -5.0486
  123OSM   C14S13086   5.465   6.399   7.716 -0.3988  0.9114  0.1859
  123OSM   H14S13087   5.407   6.449   7.797  1.3905  3.4307 -0.0375
  123OSM   H14T13088   5.543   6.474   7.691  1.7463 -0.7724  1.7149
  123OSM   C15S13089   5.541   6.278   7.778  0.2181  0.3388  0.2169
  123OSM   H15S13090   5.618   6.235   7.711 -1.2463 -0.1346 -1.1857
  123OSM   H15T13091   5.459   6.205   7.793 -1.3001  1.4739 -2.4063
  123OSM   C16S13092   5.615   6.319   7.906  0.4493 -0.1960 -0.4287
  123OSM   H16S13093   5.546   6.384   7.965 -1.2707 -0.4631 -2.0807
  123OSM   H16T13094   5.697   6.388   7.876  0.7299 -0.4238 -0.1873
  123OSM   C17S13095   5.673   6.199   7.981  0.3831 -0.1290  0.2707
  123OSM   H17S13096   5.730   6.146   7.901  0.7050 -1.2757  1.2403
  123OSM   H17T13097   5.592   6.127   8.006  0.6555 -0.2235  0.9002
  123OSM   C18S13098   5.752   6.226   8.107  0.7142  0.2140 -0.3721
  123OSM   H18S13099   5.843   6.288   8.092  1.9624 -1.1944  1.1532
  123OSM   H18T13100   5.786   6.126   8.142  0.7444  1.0042  1.9877
  123OSM   H18U13101   5.690   6.277   8.185 -1.5176 -3.2166  0.2091
  123OSM    C1F13102   4.848   6.319   6.562  0.2514 -0.6475  0.4189
  123OSM     OF13103   4.795   6.249   6.483 -0.0105 -0.5688  0.4538
  123OSM    C2F13104   4.796   6.329   6.699 -0.1711 -0.0202 -0.1159
  123OSM    H2F13105   4.686   6.322   6.686 -0.8681  0.5997  4.5317
  123OSM    H2G13106   4.808   6.434   6.733  0.9683  0.2882 -1.4376
  123OSM    C3F13107   4.845   6.223   6.804 -0.0790 -0.0885 -0.6530
  123OSM    H3F13108   4.956   6.220   6.801 -0.0517 -1.1515  0.7658
  123OSM    H3G13109   4.800   6.124   6.782  1.8326 -1.3575  1.0180
  123OSM    C4F13110   4.798   6.274   6.943 -0.5317  0.2994 -0.1884
  123OSM    H4F13111   4.690   6.255   6.957 -0.5134  0.0149 -0.4236
  123OSM    H4G13112   4.816   6.382   6.962 -0.4989 -0.1722  2.7626
  123OSM    C5F13113   4.888   6.209   7.049  0.0364  0.0636 -0.2039
  123OSM    H5F13114   4.996   6.222   7.025  0.2361 -0.5648  0.3500
  123OSM    H5G13115   4.866   6.101   7.046 -0.0812  0.1085 -1.5422
  123OSM    C6F13116   4.871   6.257   7.191 -0.0160 -0.2911  0.2248
  123OSM    H6F13117   4.781   6.210   7.235  0.3417 -1.3458 -0.1275
  123OSM    H6G13118   4.859   6.367   7.187 -0.7757 -0.3495  0.9648
  123OSM    C7F13119   4.985   6.219   7.282  0.3477  0.7638 -0.0316
  123OSM    H7F13120   5.080   6.260   7.243  0.3024  1.2986  0.4030
  123OSM    H7G13121   4.994   6.109   7.295  0.7941  0.7872 -0.1408
  123OSM    C8F13122   4.965   6.289   7.420  0.1966 -0.9778 -0.2323
  123OSM    H8F13123   4.926   6.388   7.389 -1.9117 -1.9986 -0.8968
  123OSM    H8G13124   5.063   6.289   7.474 -0.5386  1.8451  1.2289
  123OSM    C9F13125   4.858   6.208   7.495  0.4550  0.1463  0.0409
  123OSM    H9F13126   4.761   6.254   7.516  1.1535  2.5039 -1.6667
  123OSM   C10F13127   4.889   6.094   7.557  0.9819 -0.1428 -0.3203
  123OSM   H10F13128   4.808   6.037   7.606  0.5045 -0.1288 -1.0825
  123OSM   C11F13129   5.018   6.024   7.566  0.0310  0.5536  0.0949
  123OSM   H11F13130   5.103   6.077   7.519  0.6714 -0.7770 -0.2805
  123OSM   H11G13131   5.009   5.920   7.528 -0.5275  0.4522  0.5019
  123OSM   C12F13132   5.061   6.022   7.717 -0.5204 -0.7615 -0.2201
  123OSM   H12F13133   5.163   5.978   7.722  0.1542  0.8554  0.3905
  123OSM   H12G13134   4.985   5.968   7.778  0.1142  1.2690  2.4663
  123OSM   C13F13135   5.064   6.157   7.782 -0.2265  0.0381 -0.0112
  123OSM   H13F13136   4.968   6.212   7.781 -0.5343 -0.4979  0.0299
  123OSM   H13G13137   5.141   6.220   7.734 -1.4727  1.4683 -0.1723
  123OSM   C14F13138   5.099   6.151   7.932 -0.7369 -0.1523  0.2646
  123OSM   H14F13139   5.176   6.072   7.944 -1.8074 -1.2445  0.0921
  123OSM   H14G13140   5.004   6.119   7.982  0.5213 -2.7781  1.0655
  123OSM   C15F13141   5.153   6.282   7.989  0.2977  0.2608  0.1109
  123OSM   H15F13142   5.117   6.372   7.934  1.7279  0.0023 -1.3165
  123OSM   H15G13143   5.262   6.304   7.992  1.0061 -2.6191 -1.8006
  123OSM   C16F13144   5.117   6.306   8.140  0.3174  0.5212  0.4513
  123OSM   H16F13145   5.159   6.213   8.183 -0.4287 -1.1262 -2.2656
  123OSM   H16G13146   5.007   6.304   8.158  0.2056  1.1990 -0.1340
  123OSM   C17F13147   5.179   6.432   8.196  1.0434  0.2851  0.1084
  123OSM   H17F13148   5.167   6.522   8.133  2.4931  0.2138 -0.2858
  123OSM   H17G13149   5.289   6.415   8.200  1.1516  1.4766  2.5103
  123OSM   C18F13150   5.137   6.474   8.335 -0.2689  0.4866  0.8095
  123OSM   H18F13151   5.027   6.488   8.337 -0.3117  0.0931  1.4808
  123OSM   H18G13152   5.173   6.572   8.373  1.1751 -0.2282  1.3376
  123OSM   H18H13153   5.155   6.383   8.396  0.0597 -0.0352 -0.0515
  124OSM      N13154   1.529   4.481   6.196  0.3131 -1.2370 -0.4574
  124OSM    C1513155   1.617   4.429   6.088  0.0828  0.0328 -0.4477
  124OSM   H15A13156   1.630   4.321   6.094 -0.8386 -0.2047 -2.3970
  124OSM   H15B13157   1.709   4.483   6.074 -0.6765  1.0460 -1.6001
  124OSM   H15C13158   1.564   4.445   5.996  0.6496  1.1117 -0.5866
  124OSM    C1413159   1.606   4.471   6.320  0.3400  0.4397 -0.0487
  124OSM   H14A13160   1.696   4.530   6.312 -0.9873  2.8951  2.2805
  124OSM   H14B13161   1.631   4.367   6.334  0.2412  0.0965 -2.2976
  124OSM   H14C13162   1.546   4.508   6.402  0.3618  1.7960 -0.6298
  124OSM    C1313163   1.497   4.622   6.163 -0.1777 -0.3331 -0.0159
  124OSM   H13A13164   1.441   4.672   6.241  0.6221 -0.5408  0.6967
  124OSM   H13B13165   1.436   4.624   6.073 -0.6579 -1.3178  0.2761
  124OSM   H13C13166   1.584   4.679   6.135  1.4182 -1.7639  1.8537
  124OSM    C1213167   1.400   4.392   6.207 -0.7661 -0.3584 -0.1652
  124OSM   H12A13168   1.431   4.291   6.230  0.2246  0.1490  0.7848
  124OSM   H12B13169   1.352   4.385   6.111 -3.5170  0.8972  1.0531
  124OSM    C1113170   1.284   4.441   6.300  0.2824 -1.0854  0.1008
  124OSM   H11A13171   1.192   4.460   6.242 -0.0409  0.6249  1.1579
  124OSM   H11B13172   1.295   4.539   6.351  0.8853 -0.4535 -1.2100
  124OSM      P13173   1.125   4.279   6.428  0.1068  0.1227  0.0448
  124OSM    O1313174   1.027   4.303   6.324  0.3609  0.4459 -0.0754
  124OSM    O1413175   1.146   4.131   6.447 -0.3052 -0.2062  0.0158
  124OSM    O1113176   1.072   4.340   6.567  0.2070 -0.0669 -0.1587
  124OSM    O1213177   1.266   4.346   6.409 -0.8210 -0.3049  0.3158
  124OSM    C1S13178   1.166   4.347   6.681  0.4480  0.4212  0.4105
  124OSM    H1S13179   1.256   4.407   6.656  0.7774 -0.2541 -0.0201
  124OSM    H1T13180   1.192   4.244   6.714 -0.2961  0.8388  2.3849
  124OSM     NF13181   1.209   4.426   6.915 -0.0494 -0.5400  0.2631
  124OSM    HNF13182   1.206   4.349   6.978  1.2106 -0.4713  0.4210
  124OSM    C2S13183   1.105   4.418   6.810 -0.4144  0.7206  0.3136
  124OSM    H2S13184   1.094   4.526   6.786  1.3369  1.3602  2.2541
  124OSM    C3S13185   0.967   4.363   6.846 -0.1805  0.1409  0.0758
  124OSM    H3S13186   0.979   4.253   6.845 -0.9664  0.0165  1.6852
  124OSM     O313187   0.859   4.385   6.750 -0.2264  0.0446 -0.2122
  124OSM    HO313188   0.913   4.412   6.675 -1.6357  0.5037 -1.0821
  124OSM    C4S13189   0.925   4.412   6.984  0.0546 -0.1958 -0.2634
  124OSM    H4S13190   0.919   4.332   7.060 -1.1383 -2.1206 -2.3391
  124OSM    C5S13191   0.864   4.526   7.008 -0.0885  0.1243 -0.3583
  124OSM    H5S13192   0.836   4.589   6.922 -2.9801  0.7039  0.9282
  124OSM    C6S13193   0.821   4.584   7.145  0.2222 -0.0554  0.1741
  124OSM    H6S13194   0.711   4.573   7.143  0.2849 -0.8662  1.0560
  124OSM    H6T13195   0.849   4.692   7.144  0.4722 -0.0973  1.7266
  124OSM    C7S13196   0.882   4.504   7.267  0.4574  0.6293  0.8248
  124OSM    H7S13197   0.992   4.504   7.257  0.4694  0.1407  0.9640
  124OSM    H7T13198   0.851   4.397   7.275 -0.9171  0.9953  0.6197
  124OSM    C8S13199   0.855   4.567   7.402 -0.1317 -0.1274  0.9997
  124OSM    H8S13200   0.745   4.564   7.418 -0.5858 -2.2028 -2.0152
  124OSM    H8T13201   0.877   4.675   7.395 -0.3584 -0.1104  0.5711
  124OSM    C9S13202   0.928   4.509   7.527 -0.0419 -0.5407 -0.7753
  124OSM    H9S13203   1.035   4.504   7.499  0.1842  2.3249 -0.5807
  124OSM    H9T13204   0.894   4.404   7.533  2.9212 -1.6134 -2.1913
  124OSM   C10S13205   0.896   4.588   7.661  0.9242  0.5204  0.3565
  124OSM   H10S13206   0.785   4.590   7.663  0.8300 -1.0464 -1.5784
  124OSM   H10T13207   0.929   4.694   7.653  0.9066  0.6675  2.1124
  124OSM   C11S13208   0.946   4.512   7.789  0.4776 -0.1112  0.3868
  124OSM   H11S13209   1.041   4.457   7.770  1.0738  1.3491 -0.9030
  124OSM   H11T13210   0.868   4.436   7.812  1.5551 -1.3062  0.1818
  124OSM   C12S13211   0.960   4.601   7.911 -0.1805 -0.3722  0.9098
  124OSM   H12S13212   0.868   4.664   7.912 -0.4435 -0.7248 -0.9396
  124OSM   H12T13213   1.052   4.663   7.904 -0.6615  0.5685  2.5094
  124OSM   C13S13214   0.959   4.525   8.044  0.8020 -0.3401 -0.4147
  124OSM   H13S13215   1.034   4.444   8.040 -0.9479 -1.9358 -1.3730
  124OSM   H13T13216   0.859   4.478   8.048  1.5377 -1.8801  0.2474
  124OSM   C14S13217   0.980   4.626   8.155 -0.4250 -0.5221 -0.2338
  124OSM   H14S13218   0.913   4.715   8.150  2.3070  1.6538  0.7022
  124OSM   H14T13219   1.078   4.677   8.143 -0.9239  0.2763 -1.0457
  124OSM   C15S13220   0.963   4.559   8.295 -0.3460  0.3837  0.2783
  124OSM   H15S13221   1.020   4.464   8.308 -0.0177  0.7184  1.3134
  124OSM   H15T13222   0.855   4.546   8.315 -0.2063 -0.6039  0.4486
  124OSM   C16S13223   1.027   4.652   8.404 -0.0471  0.4489 -0.4724
  124OSM   H16S13224   0.991   4.755   8.386  1.3529  1.1152  0.3867
  124OSM   H16T13225   1.138   4.641   8.401  0.5228  4.6116  2.0103
  124OSM   C17S13226   0.987   4.606   8.548 -0.0702  0.0290 -0.4624
  124OSM   H17S13227   0.878   4.590   8.543 -0.2051  1.0988 -1.0978
  124OSM   H17T13228   0.993   4.694   8.616  0.1945  1.0976 -1.8491
  124OSM   C18S13229   1.067   4.490   8.609  0.2307 -0.0129  0.4080
  124OSM   H18S13230   1.058   4.392   8.557 -0.0287 -1.3366  2.8319
  124OSM   H18T13231   1.021   4.476   8.710 -0.7255 -0.6812 -0.1081
  124OSM   H18U13232   1.176   4.508   8.620  0.1517  0.1661  0.9267
  124OSM    C1F13233   1.314   4.505   6.909  0.0040  0.5969 -0.1447
  124OSM     OF13234   1.324   4.585   6.817  0.5644 -0.4550  0.3783
  124OSM    C2F13235   1.417   4.493   7.029  0.1627 -0.6626 -0.4506
  124OSM    H2F13236   1.492   4.419   6.993  0.5235 -0.3360 -0.3731
  124OSM    H2G13237   1.364   4.458   7.120  0.1955 -0.7347 -0.4591
  124OSM    C3F13238   1.491   4.629   7.065  0.5573 -0.1329 -0.3609
  124OSM    H3F13239   1.422   4.708   7.101  0.7745  0.1810 -0.6243
  124OSM    H3G13240   1.539   4.666   6.972  0.4275 -0.3697 -0.5225
  124OSM    C4F13241   1.583   4.623   7.188  0.4717  0.1810 -0.5744
  124OSM    H4F13242   1.675   4.568   7.160 -1.1295 -1.5488 -2.5703
  124OSM    H4G13243   1.542   4.546   7.257  2.6301 -1.9896 -1.6692
  124OSM    C5F13244   1.608   4.753   7.256 -0.0571  0.2736  0.4027
  124OSM    H5F13245   1.519   4.819   7.261 -0.4886 -0.2537 -0.2660
  124OSM    H5G13246   1.690   4.800   7.197 -0.9319  1.6673  0.2731
  124OSM    C6F13247   1.671   4.738   7.390 -0.2163  0.7006  0.1871
  124OSM    H6F13248   1.774   4.700   7.374 -0.8745 -3.0470  3.7900
  124OSM    H6G13249   1.614   4.667   7.454  0.2105 -1.3754 -1.6894
  124OSM    C7F13250   1.683   4.871   7.467  1.0852  0.0015  0.2050
  124OSM    H7F13251   1.577   4.900   7.479  0.3836 -0.9677 -3.1841
  124OSM    H7G13252   1.724   4.941   7.391 -0.8215  1.1074  0.1632
  124OSM    C8F13253   1.762   4.856   7.597  0.2487 -0.4843 -0.2782
  124OSM    H8F13254   1.864   4.833   7.559 -0.6451 -0.7095 -2.6306
  124OSM    H8G13255   1.715   4.768   7.645 -0.7071  0.3893  0.4218
  124OSM    C9F13256   1.767   4.982   7.678 -0.5330  0.9975 -0.0070
  124OSM    H9F13257   1.664   5.018   7.694 -0.8805  0.0744 -0.0808
  124OSM   C10F13258   1.868   5.061   7.708 -0.5267  0.5329  0.2507
  124OSM   H10F13259   1.853   5.161   7.750 -1.2187  1.3792 -1.9254
  124OSM   C11F13260   2.015   5.035   7.666  0.0136 -0.2429  0.4928
  124OSM   H11F13261   2.033   4.925   7.655  1.8269  0.1001 -0.2219
  124OSM   H11G13262   2.086   5.072   7.743 -1.1648  3.0642  0.0552
  124OSM   C12F13263   2.072   5.107   7.539  0.1003  0.2368  0.8019
  124OSM   H12F13264   2.164   5.051   7.514 -0.2080  0.4544 -0.9108
  124OSM   H12G13265   2.089   5.215   7.558 -2.0955  0.2797  2.8112
  124OSM   C13F13266   1.974   5.094   7.419 -0.9825 -0.2603  0.8713
  124OSM   H13F13267   1.874   5.137   7.439 -0.8152  0.6485 -0.2327
  124OSM   H13G13268   1.963   4.984   7.406  2.6183 -0.8464  2.2321
  124OSM   C14F13269   2.043   5.169   7.298  0.3111  0.0857  0.0854
  124OSM   H14F13270   2.126   5.109   7.256 -0.5719  0.2278 -1.8897
  124OSM   H14G13271   2.094   5.263   7.330 -0.3952  0.3338  0.4947
  124OSM   C15F13272   1.955   5.186   7.181  1.2545  0.2324 -0.1145
  124OSM   H15F13273   2.012   5.258   7.118 -1.2771  2.1239 -0.2924
  124OSM   H15G13274   1.870   5.253   7.205  0.5704  0.7064 -3.4855
  124OSM   C16F13275   1.918   5.060   7.107  0.0856  0.2778  0.0396
  124OSM   H16F13276   1.866   4.985   7.171  0.8648 -1.1886 -1.0022
  124OSM   H16G13277   2.013   5.012   7.074 -1.3297 -1.7630 -1.2269
  124OSM   C17F13278   1.835   5.072   6.977 -0.5355  0.4743 -0.3125
  124OSM   H17F13279   1.735   5.115   6.996  0.3955  1.7376  1.8068
  124OSM   H17G13280   1.830   4.967   6.939  3.9171 -0.6445  1.8932
  124OSM   C18F13281   1.907   5.173   6.882  0.4184  0.0513  0.6970
  124OSM   H18F13282   1.890   5.277   6.915  0.2037  0.0669  0.5308
  124OSM   H18G13283   1.862   5.154   6.783 -0.1694  0.6543  0.8476
  124OSM   H18H13284   2.018   5.160   6.886  0.4036 -0.6604 -1.0030
  125OSM      N13285   1.257   6.346   6.073  0.5942 -0.3257 -0.0703
  125OSM    C1513286   1.224   6.391   5.934 -0.3473  0.2176  0.6024
  125OSM   H15A13287   1.224   6.308   5.864 -1.5138  0.1838  0.6409
  125OSM   H15B13288   1.300   6.455   5.891  0.7321 -0.8544  0.8734
  125OSM   H15C13289   1.132   6.444   5.917  0.9244  2.0840 -0.6890
  125OSM    C1413290   1.374   6.248   6.070 -0.9069 -0.6840 -0.6780
  125OSM   H14A13291   1.336   6.157   6.024  0.0175 -1.8361  0.8178
  125OSM   H14B13292   1.401   6.228   6.172  0.2417 -0.6233 -0.9670
  125OSM   H14C13293   1.455   6.292   6.014 -0.9241  0.9273  0.5645
  125OSM    C1313294   1.299   6.463   6.161  0.3178  0.0496  0.5747
  125OSM   H13A13295   1.390   6.508   6.124  0.2742  1.4120  2.0834
  125OSM   H13B13296   1.323   6.432   6.261 -0.9713 -1.9946  0.2650
  125OSM   H13C13297   1.214   6.528   6.172 -1.6714 -2.2718 -0.5966
  125OSM    C1213298   1.124   6.291   6.131 -1.0989  0.4107 -0.3573
  125OSM   H12A13299   1.076   6.235   6.053  0.2564  0.0178 -0.9307
  125OSM   H12B13300   1.064   6.376   6.160  0.1042  1.1941 -0.1267
  125OSM    C1113301   1.139   6.199   6.259 -0.4229  0.0278 -0.1780
  125OSM   H11A13302   1.046   6.208   6.318  0.7799  0.1274  1.7370
  125OSM   H11B13303   1.220   6.235   6.326 -0.0102  1.3999 -1.3929
  125OSM      P13304   1.059   5.953   6.206  0.0596  0.1923  0.3220
  125OSM    O1313305   0.935   6.027   6.157 -0.2646  0.1386 -0.0324
  125OSM    O1413306   1.100   5.842   6.110  0.1415 -0.2699 -0.3143
  125OSM    O1113307   1.036   5.892   6.353  0.1678  0.2624  0.4116
  125OSM    O1213308   1.171   6.061   6.226  0.5231 -0.5435  0.0161
  125OSM    C1S13309   1.051   5.967   6.473 -0.4061  0.4794 -0.3158
  125OSM    H1S13310   0.982   6.054   6.473 -0.1944  0.6474 -0.3878
  125OSM    H1T13311   1.152   6.009   6.488 -0.7428  1.2000 -0.0060
  125OSM     NF13312   1.044   5.959   6.723  0.1498  0.1094 -0.2570
  125OSM    HNF13313   1.129   5.950   6.773  0.8313  1.0130 -1.2278
  125OSM    C2S13314   1.030   5.876   6.601 -0.3248 -0.2869 -0.9933
  125OSM    H2S13315   0.924   5.842   6.596 -0.8419  0.9982  0.7704
  125OSM    C3S13316   1.119   5.749   6.596  0.0365  0.2224 -0.5372
  125OSM    H3S13317   1.226   5.777   6.610  0.0296  0.4792 -0.9983
  125OSM     O313318   1.124   5.687   6.471  0.1768  0.3549  0.2559
  125OSM    HO313319   1.099   5.755   6.409  2.9723 -0.2192 -1.5973
  125OSM    C4S13320   1.073   5.657   6.706 -0.1286 -0.1999  0.8629
  125OSM    H4S13321   1.113   5.690   6.803 -4.4121  0.2740  2.5577
  125OSM    C5S13322   0.996   5.543   6.711 -0.0267  0.1603  0.0896
  125OSM    H5S13323   0.968   5.503   6.613 -1.2208  0.2750  0.3768
  125OSM    C6S13324   0.962   5.465   6.836  0.1258  0.2338 -0.2400
  125OSM    H6S13325   1.010   5.366   6.820 -0.7360 -0.2721  0.2060
  125OSM    H6T13326   0.852   5.444   6.839 -0.1859  1.7979 -0.4599
  125OSM    C7S13327   1.009   5.525   6.972 -1.1201 -0.6905  0.3993
  125OSM    H7S13328   0.960   5.624   6.986  0.5842  0.0534  1.2956
  125OSM    H7T13329   1.116   5.548   6.950 -0.5742 -3.2461  0.2511
  125OSM    C8S13330   0.985   5.426   7.082 -0.1071  0.1105  0.0283
  125OSM    H8S13331   1.053   5.340   7.068  1.9138  1.6774 -0.0372
  125OSM    H8T13332   0.882   5.393   7.060  1.0091 -1.6384 -2.7969
  125OSM    C9S13333   0.991   5.477   7.231 -0.0344 -0.5649 -0.0571
  125OSM    H9S13334   0.920   5.561   7.246  1.7392  1.0409 -0.3904
  125OSM    H9T13335   1.099   5.499   7.249 -0.1908  0.2102 -0.0510
  125OSM   C10S13336   0.957   5.375   7.336 -0.7896  0.4090 -0.0350
  125OSM   H10S13337   0.993   5.276   7.300 -3.6907 -0.5014 -0.5526
  125OSM   H10T13338   0.848   5.374   7.356 -0.2771  1.1499  3.0366
  125OSM   C11S13339   1.012   5.414   7.472  0.2094  0.1387 -0.4578
  125OSM   H11S13340   0.955   5.500   7.514 -0.5449 -0.3948 -0.3845
  125OSM   H11T13341   1.120   5.438   7.458  0.3492  0.3142  0.8993
  125OSM   C12S13342   0.998   5.291   7.567  0.0730 -0.1427 -0.1261
  125OSM   H12S13343   1.097   5.241   7.564  0.2994  0.3832 -1.8722
  125OSM   H12T13344   0.922   5.219   7.530  0.1634 -2.3994  3.7820
  125OSM   C13S13345   0.946   5.327   7.707 -0.1020  0.3517  0.4874
  125OSM   H13S13346   0.894   5.241   7.754 -2.1969  1.4111  0.1646
  125OSM   H13T13347   0.861   5.398   7.708 -1.3296 -1.0652 -0.9883
  125OSM   C14S13348   1.055   5.359   7.805 -0.0957  0.4757  1.0222
  125OSM   H14S13349   1.098   5.456   7.772 -0.4978 -0.0664 -1.1536
  125OSM   H14T13350   1.141   5.288   7.809 -0.9719 -0.5970  1.1325
  125OSM   C15S13351   0.990   5.397   7.940 -0.6554 -0.0004 -0.1436
  125OSM   H15S13352   0.936   5.306   7.974 -1.7900  0.0306 -1.7631
  125OSM   H15T13353   0.905   5.465   7.915 -0.1913  0.9065  0.7288
  125OSM   C16S13354   1.081   5.454   8.041  0.1161  0.4452  0.0189
  125OSM   H16S13355   1.151   5.528   7.996 -2.3361  0.9882 -3.0848
  125OSM   H16T13356   1.137   5.372   8.090  1.0643  0.4816 -0.9766
  125OSM   C17S13357   1.009   5.521   8.158 -0.1557 -0.2164  0.6055
  125OSM   H17S13358   0.949   5.607   8.122  3.3354  1.6562 -0.9604
  125OSM   H17T13359   1.075   5.582   8.224 -1.0933  0.6007  0.7950
  125OSM   C18S13360   0.926   5.432   8.254 -0.0388 -0.1611  0.2295
  125OSM   H18S13361   0.973   5.334   8.278 -0.6159 -0.3164  0.7225
  125OSM   H18T13362   0.828   5.399   8.213 -0.1501  0.8665 -0.3257
  125OSM   H18U13363   0.900   5.484   8.348  1.2115 -1.4305  1.3155
  125OSM    C1F13364   0.953   6.048   6.757 -0.7394 -0.3991 -0.6942
  125OSM     OF13365   0.858   6.074   6.691 -0.2250 -0.3581 -0.4530
  125OSM    C2F13366   0.956   6.109   6.894 -0.5935  0.2274  0.6271
  125OSM    H2F13367   1.042   6.066   6.949  0.4090 -0.9610 -1.8378
  125OSM    H2G13368   0.869   6.072   6.954 -0.2599  0.2297  1.1173
  125OSM    C3F13369   0.957   6.259   6.885 -0.0411  0.4755 -0.5539
  125OSM    H3F13370   0.858   6.297   6.854 -0.6685 -0.5566  0.1561
  125OSM    H3G13371   1.024   6.306   6.810 -0.4425  0.0796 -1.1595
  125OSM    C4F13372   1.003   6.324   7.017 -0.2133  0.0719  0.5012
  125OSM    H4F13373   1.107   6.293   7.043 -0.4055 -3.1297 -2.2039
  125OSM    H4G13374   0.934   6.282   7.092  0.9986 -2.4383  0.2683
  125OSM    C5F13375   0.987   6.480   7.016 -0.1144  0.7891 -0.2111
  125OSM    H5F13376   0.908   6.509   6.944  0.5808  2.4775 -0.3239
  125OSM    H5G13377   1.077   6.532   6.976 -0.6276  0.7781 -1.4099
  125OSM    C6F13378   0.965   6.536   7.156 -0.1579  0.1180 -0.3916
  125OSM    H6F13379   0.956   6.647   7.155 -0.6034  0.0950  0.5322
  125OSM    H6G13380   1.043   6.490   7.220 -1.7156 -1.6760  0.2492
  125OSM    C7F13381   0.827   6.498   7.208 -0.5087 -0.1484  0.0395
  125OSM    H7F13382   0.828   6.390   7.235  2.9599 -0.2361 -0.1897
  125OSM    H7G13383   0.762   6.504   7.118  0.7867  0.6761 -0.8670
  125OSM    C8F13384   0.799   6.590   7.322  0.7051 -0.1662  0.2458
  125OSM    H8F13385   0.825   6.693   7.290  2.1716 -0.5047  0.3034
  125OSM    H8G13386   0.866   6.559   7.405  0.2923  0.2966  0.7597
  125OSM    C9F13387   0.657   6.591   7.364 -0.1544  0.3130  0.1482
  125OSM    H9F13388   0.590   6.525   7.306  1.2980  0.7369 -2.0887
  125OSM   C10F13389   0.605   6.637   7.482 -0.9190  0.5887 -0.1806
  125OSM   H10F13390   0.496   6.646   7.496 -0.9944 -2.0321  1.3268
  125OSM   C11F13391   0.698   6.707   7.584 -0.0031  0.7614  0.5012
  125OSM   H11F13392   0.760   6.781   7.530  1.6163 -0.9260 -0.0191
  125OSM   H11G13393   0.754   6.627   7.638 -1.1607 -0.7254 -0.4768
  125OSM   C12F13394   0.604   6.760   7.693  0.1405  0.2355  0.3503
  125OSM   H12F13395   0.533   6.682   7.729 -1.2746  0.8181 -1.1005
  125OSM   H12G13396   0.550   6.848   7.653  1.3875  0.3349 -1.1923
  125OSM   C13F13397   0.671   6.815   7.815  0.9734  0.0618  0.5932
  125OSM   H13F13398   0.743   6.888   7.772 -0.9056  1.3983 -0.3369
  125OSM   H13G13399   0.741   6.741   7.859  0.4981  0.2068  1.6241
  125OSM   C14F13400   0.580   6.868   7.926  0.4007 -0.0209 -0.4764
  125OSM   H14F13401   0.490   6.804   7.934  1.2153 -1.0764  0.4097
  125OSM   H14G13402   0.544   6.966   7.890 -1.7603 -0.8307 -0.5696
  125OSM   C15F13403   0.652   6.874   8.061 -0.4378  0.2918 -1.1492
  125OSM   H15F13404   0.602   6.965   8.100 -0.0628  0.8187 -1.8936
  125OSM   H15G13405   0.759   6.901   8.047 -0.0398  0.4108  1.8244
  125OSM   C16F13406   0.651   6.738   8.132  0.2577  0.1323  0.6135
  125OSM   H16F13407   0.714   6.670   8.071 -0.0119 -0.4452  0.9761
  125OSM   H16G13408   0.551   6.689   8.134  0.3336 -0.2165 -2.6514
  125OSM   C17F13409   0.712   6.747   8.273 -0.3663 -0.2268  0.5108
  125OSM   H17F13410   0.720   6.643   8.311 -1.7891 -1.8194 -3.2484
  125OSM   H17G13411   0.650   6.805   8.345  1.1535 -2.1100  3.4300
  125OSM   C18F13412   0.856   6.797   8.274 -0.4269  0.4909  0.1915
  125OSM   H18F13413   0.924   6.783   8.187 -1.9023  3.1768 -1.4427
  125OSM   H18G13414   0.907   6.760   8.366  1.4066  0.1484 -0.9368
  125OSM   H18H13415   0.843   6.907   8.283 -0.1795  0.5021  0.3965
  126OSM      N13416   4.989   4.643   6.450 -0.1242  0.8967  0.5125
  126OSM    C1513417   4.887   4.745   6.432 -0.3144  0.2877 -0.1717
  126OSM   H15A13418   4.795   4.701   6.396  1.2276 -2.0130 -1.3482
  126OSM   H15B13419   4.913   4.826   6.365  0.1604  1.8443  1.8414
  126OSM   H15C13420   4.864   4.804   6.520  2.0598  0.7131  0.1812
  126OSM    C1413421   4.955   4.558   6.567 -0.3919 -0.4302 -0.1905
  126OSM   H14A13422   5.039   4.494   6.589  0.2117  0.5040  0.2271
  126OSM   H14B13423   4.857   4.513   6.557  1.1028 -3.5065 -1.7626
  126OSM   H14C13424   4.945   4.621   6.654 -2.8057 -0.5345 -0.3559
  126OSM    C1313425   4.994   4.563   6.330  0.2195 -0.5624  0.9797
  126OSM   H13A13426   5.017   4.633   6.250 -1.1225  0.2455  1.2895
  126OSM   H13B13427   4.901   4.512   6.309  0.6588 -1.5907  1.5297
  126OSM   H13C13428   5.072   4.488   6.324  0.0564 -0.6369 -0.6542
  126OSM    C1213429   5.129   4.709   6.465  0.7515 -0.5577  0.2331
  126OSM   H12A13430   5.133   4.789   6.393 -2.2358 -0.1355  0.4424
  126OSM   H12B13431   5.208   4.637   6.450  1.4511  0.2260  0.1155
  126OSM    C1113432   5.167   4.767   6.603 -0.0949  0.2500 -0.0953
  126OSM   H11A13433   5.274   4.792   6.618 -0.6842  2.2217  0.9265
  126OSM   H11B13434   5.138   4.701   6.688 -1.4920 -0.4347 -1.0702
  126OSM      P13435   5.105   5.017   6.530  0.0866  0.3630 -0.1420
  126OSM    O1313436   5.160   4.986   6.394  0.6042 -0.4760 -0.5520
  126OSM    O1413437   4.971   5.082   6.546 -0.3451  0.3026 -0.2301
  126OSM    O1113438   5.213   5.094   6.619 -0.0413 -0.2656 -0.5871
  126OSM    O1213439   5.098   4.891   6.622  0.1089  0.0464 -0.2221
  126OSM    C1S13440   5.176   5.180   6.725 -0.0632  0.7616 -0.6385
  126OSM    H1S13441   5.079   5.230   6.703  0.7563  1.9031 -1.6606
  126OSM    H1T13442   5.251   5.261   6.736 -0.3285  1.2533 -2.3072
  126OSM     NF13443   5.109   5.222   6.953  0.3156  0.0332 -0.1390
  126OSM    HNF13444   5.167   5.260   7.025 -0.9674 -0.9169  1.4160
  126OSM    C2S13445   5.160   5.113   6.871  0.5823  0.1996  0.2800
  126OSM    H2S13446   5.081   5.035   6.864  0.2873  0.3721  1.5282
  126OSM    C3S13447   5.289   5.046   6.922 -0.3913  0.3744  0.1008
  126OSM    H3S13448   5.376   5.112   6.942  1.0806 -2.4963  3.8236
  126OSM     O313449   5.350   4.948   6.830  0.0034 -0.5609 -0.6271
  126OSM    HO313450   5.304   4.966   6.747 -0.1472  0.3173 -0.3637
  126OSM    C4S13451   5.260   4.974   7.059 -0.0443 -0.1859 -0.1313
  126OSM    H4S13452   5.298   5.030   7.146 -1.2658 -0.2210  0.4498
  126OSM    C5S13453   5.217   4.844   7.087 -0.1374  0.4510 -0.3983
  126OSM    H5S13454   5.197   4.777   7.002  1.4232  0.4317 -0.7675
  126OSM    C6S13455   5.212   4.779   7.224  0.1237 -0.6258  0.2545
  126OSM    H6S13456   5.142   4.692   7.221  1.6070 -1.7929 -1.7331
  126OSM    H6T13457   5.183   4.854   7.300  0.3879  1.9794 -2.1226
  126OSM    C7S13458   5.341   4.705   7.253 -0.7134 -0.0770 -0.6088
  126OSM    H7S13459   5.425   4.768   7.216 -1.4147  1.1000 -0.2515
  126OSM    H7T13460   5.336   4.611   7.194  3.1200 -0.6986 -0.0577
  126OSM    C8S13461   5.337   4.686   7.402 -0.6554  0.2714  0.4538
  126OSM    H8S13462   5.357   4.578   7.422 -0.1503  0.0247 -1.2627
  126OSM    H8T13463   5.231   4.696   7.432 -1.4691 -0.5601 -2.0493
  126OSM    C9S13464   5.433   4.770   7.481 -0.1023 -0.5652 -0.5902
  126OSM    H9S13465   5.410   4.878   7.468  0.4330 -0.1808  1.4729
  126OSM    H9T13466   5.536   4.757   7.439 -0.5269  0.7187 -2.0714
  126OSM   C10S13467   5.446   4.738   7.632  0.4950 -0.2302 -0.1233
  126OSM   H10S13468   5.481   4.633   7.641  0.5032 -0.3122 -1.0878
  126OSM   H10T13469   5.345   4.730   7.677  0.4519 -0.7938 -0.3135
  126OSM   C11S13470   5.544   4.832   7.700  0.2357 -0.5537 -0.0158
  126OSM   H11S13471   5.514   4.938   7.690 -1.5495 -1.0100  0.2342
  126OSM   H11T13472   5.650   4.829   7.665  0.0997  1.7660 -0.6978
  126OSM   C12S13473   5.530   4.797   7.853 -0.2306 -1.0211  0.1651
  126OSM   H12S13474   5.526   4.688   7.868 -0.2413 -0.6969  2.6535
  126OSM   H12T13475   5.430   4.837   7.879 -0.1788 -0.7639 -0.0215
  126OSM   C13S13476   5.643   4.846   7.940  0.0398  0.4447 -0.0294
  126OSM   H13S13477   5.657   4.956   7.929  0.8058  0.3013 -0.5030
  126OSM   H13T13478   5.739   4.805   7.901 -0.1006 -0.4054  0.5205
  126OSM   C14S13479   5.629   4.801   8.086  0.5030  0.0266 -0.5041
  126OSM   H14S13480   5.646   4.692   8.094 -0.0138 -0.2251 -2.4285
  126OSM   H14T13481   5.525   4.827   8.115  0.0358 -1.9552 -0.3550
  126OSM   C15S13482   5.729   4.864   8.183 -0.1268 -0.0868  0.5887
  126OSM   H15S13483   5.729   4.975   8.186  0.3156 -0.0817  0.3196
  126OSM   H15T13484   5.828   4.827   8.151 -0.1617  1.0324 -0.8377
  126OSM   C16S13485   5.710   4.819   8.331  0.2945 -0.0173  0.2524
  126OSM   H16S13486   5.702   4.709   8.346  3.0232 -0.0473  1.6575
  126OSM   H16T13487   5.622   4.874   8.371  1.4402  1.2801  1.0508
  126OSM   C17S13488   5.827   4.864   8.420  0.2815 -0.9269  0.4870
  126OSM   H17S13489   5.833   4.975   8.419  0.7741 -0.9419 -1.4511
  126OSM   H17T13490   5.914   4.825   8.363 -0.2179  0.0676 -1.0197
  126OSM   C18S13491   5.819   4.802   8.562  0.1759  0.2975  0.4851
  126OSM   H18S13492   5.916   4.809   8.617 -0.5560  0.0682  1.8076
  126OSM   H18T13493   5.792   4.694   8.560  0.0323  0.3444 -0.1365
  126OSM   H18U13494   5.739   4.842   8.626  0.8784  1.8901  0.3789
  126OSM    C1F13495   4.986   5.265   6.950  0.3722 -0.5525  0.1622
  126OSM     OF13496   4.893   5.198   6.908  0.4605  0.3136 -0.1785
  126OSM    C2F13497   4.965   5.396   7.017  0.6804  0.3349  0.1587
  126OSM    H2F13498   4.898   5.469   6.967 -0.5376 -0.7829  0.1204
  126OSM    H2G13499   5.066   5.443   7.018 -0.5304  3.0083  0.7873
  126OSM    C3F13500   4.907   5.369   7.162 -0.5405  0.5617  0.9140
  126OSM    H3F13501   4.944   5.275   7.207 -1.2832 -0.7909 -1.2158
  126OSM    H3G13502   4.798   5.357   7.147 -0.8642 -0.0813  3.4963
  126OSM    C4F13503   4.938   5.477   7.263  0.1061 -0.0851 -0.8419
  126OSM    H4F13504   4.926   5.577   7.216  3.1288  1.0781  0.7331
  126OSM    H4G13505   5.047   5.483   7.283  0.0827 -0.2011 -0.6780
  126OSM    C5F13506   4.853   5.468   7.389 -0.7726  0.3840 -0.3410
  126OSM    H5F13507   4.904   5.389   7.448  1.6762  0.5091 -2.2339
  126OSM    H5G13508   4.747   5.434   7.385 -0.8915  0.6910  0.1669
  126OSM    C6F13509   4.847   5.605   7.457  1.3050  0.9929 -0.3739
  126OSM    H6F13510   4.780   5.679   7.408 -1.2550 -1.1896 -0.3071
  126OSM    H6G13511   4.946   5.654   7.466  0.7819  1.6465  2.5969
  126OSM    C7F13512   4.811   5.586   7.605 -0.6608  0.0518 -0.0931
  126OSM    H7F13513   4.888   5.528   7.661 -1.0332  1.8869  2.3632
  126OSM    H7G13514   4.722   5.521   7.617 -0.3119 -0.8896 -2.3725
  126OSM    C8F13515   4.779   5.718   7.673 -0.1138  0.3292  0.1770
  126OSM    H8F13516   4.684   5.748   7.624  0.8324  0.1826 -1.8036
  126OSM    H8G13517   4.850   5.802   7.651  3.0076 -1.8316  1.6013
  126OSM    C9F13518   4.742   5.692   7.821  0.3370 -0.3776  0.1638
  126OSM    H9F13519   4.635   5.678   7.845 -0.2383  0.5136 -1.7374
  126OSM   C10F13520   4.833   5.676   7.915 -0.1798  0.1613  0.0359
  126OSM   H10F13521   4.799   5.665   8.019 -0.4841 -1.7592 -0.2397
  126OSM   C11F13522   4.984   5.677   7.897  0.2844 -0.3934 -0.5746
  126OSM   H11F13523   5.009   5.716   7.796 -0.7268 -3.0337 -1.8874
  126OSM   H11G13524   5.022   5.578   7.931  0.6398 -0.0428  0.0593
  126OSM   C12F13525   5.039   5.775   8.002  0.2642  0.0608 -0.9017
  126OSM   H12F13526   4.986   5.746   8.095  1.3274  0.9084 -0.0173
  126OSM   H12G13527   5.008   5.881   7.988  0.1773  0.4846  2.1456
  126OSM   C13F13528   5.196   5.782   8.008 -0.1962 -0.6550 -0.9686
  126OSM   H13F13529   5.230   5.826   7.912  2.6291 -1.4429 -0.3661
  126OSM   H13G13530   5.230   5.677   8.020 -0.5967 -0.4797  2.2344
  126OSM   C14F13531   5.256   5.864   8.128 -0.6056  1.0684  0.3307
  126OSM   H14F13532   5.188   5.841   8.213 -1.4708  2.1280 -0.0605
  126OSM   H14G13533   5.246   5.974   8.116  0.4275  1.5835  3.5795
  126OSM   C15F13534   5.401   5.816   8.163  0.6403  0.7970 -0.6499
  126OSM   H15F13535   5.468   5.833   8.076  1.4099  0.2642 -0.1692
  126OSM   H15G13536   5.393   5.706   8.178 -1.0562  1.0574  0.4755
  126OSM   C16F13537   5.451   5.882   8.295 -0.4106 -1.0178 -0.0625
  126OSM   H16F13538   5.389   5.847   8.380 -1.3169  0.6888  0.0072
  126OSM   H16G13539   5.435   5.990   8.277 -1.6295 -1.3985 -1.3206
  126OSM   C17F13540   5.593   5.862   8.319  0.0636 -0.0662  0.0919
  126OSM   H17F13541   5.656   5.899   8.236 -0.1569  0.5002  0.1742
  126OSM   H17G13542   5.613   5.753   8.331  1.8881  0.0426 -1.7541
  126OSM   C18F13543   5.630   5.942   8.450 -0.6108 -0.6752  0.5029
  126OSM   H18F13544   5.737   5.932   8.478 -0.6735  0.6298  1.2622
  126OSM   H18G13545   5.564   5.916   8.536  0.8367  0.9618  2.1326
  126OSM   H18H13546   5.624   6.051   8.429 -2.3964 -0.8971 -0.2509
  127OSM      N13547   6.179   3.945   6.045 -0.5459  0.9499 -0.1773
  127OSM    C1513548   6.140   3.807   6.017 -0.2828  0.4099 -0.6036
  127OSM   H15A13549   6.034   3.799   5.998 -0.8639  1.5123  1.9582
  127OSM   H15B13550   6.154   3.744   6.104 -0.3129  0.2178 -0.7373
  127OSM   H15C13551   6.186   3.770   5.927 -0.7951 -0.0448 -0.6837
  127OSM    C1413552   6.331   3.941   6.046  0.3786 -0.2871 -0.1075
  127OSM   H14A13553   6.376   4.038   6.060  2.8119 -1.3038 -0.5780
  127OSM   H14B13554   6.358   3.902   5.949 -1.8225  0.6238 -1.1169
  127OSM   H14C13555   6.360   3.875   6.126 -0.0566  0.8815  1.0249
  127OSM    C1313556   6.122   4.042   5.945  0.4049  0.0137 -0.2507
  127OSM   H13A13557   6.014   4.050   5.946  0.3983 -0.1208  0.1122
  127OSM   H13B13558   6.131   4.008   5.843 -0.9088 -0.6403 -0.1598
  127OSM   H13C13559   6.157   4.144   5.952  0.0749  0.1421 -0.4475
  127OSM    C1213560   6.128   3.982   6.183 -0.3955 -1.1280  0.3023
  127OSM   H12A13561   6.020   3.978   6.187 -0.5519  1.6168 -0.1138
  127OSM   H12B13562   6.142   4.089   6.191  0.2145 -1.1526 -0.4024
  127OSM    C1113563   6.183   3.912   6.310 -0.1542 -0.2571 -0.9154
  127OSM   H11A13564   6.149   3.973   6.396  0.3438 -0.1179 -0.8129
  127OSM   H11B13565   6.294   3.918   6.313 -0.0266 -1.9815 -1.5717
  127OSM      P13566   5.997   3.735   6.375  0.5950 -0.3947 -0.1934
  127OSM    O1313567   5.904   3.850   6.333 -0.3910 -0.7941 -0.1363
  127OSM    O1413568   5.963   3.607   6.320 -0.0346 -0.7336 -0.1641
  127OSM    O1113569   6.009   3.715   6.529 -0.5312  0.1437  0.1470
  127OSM    O1213570   6.142   3.779   6.328 -0.0587 -0.9963 -0.0868
  127OSM    C1S13571   6.030   3.814   6.628 -0.2439  0.4359  0.0730
  127OSM    H1S13572   5.947   3.886   6.609 -2.4505 -2.2071 -0.7648
  127OSM    H1T13573   6.125   3.865   6.603 -0.0911 -0.2816 -0.8360
  127OSM     NF13574   6.010   3.884   6.860  0.0688 -0.1741 -0.1608
  127OSM    HNF13575   6.088   3.910   6.917  0.5694 -1.8618 -0.0425
  127OSM    C2S13576   6.025   3.766   6.777  0.8817  0.8815  0.8403
  127OSM    H2S13577   5.930   3.710   6.784  1.5010 -0.1908  0.8280
  127OSM    C3S13578   6.149   3.679   6.810  0.3455  0.0701 -0.0950
  127OSM    H3S13579   6.241   3.741   6.801 -0.2338  0.8967 -0.3135
  127OSM     O313580   6.160   3.581   6.713  0.3580 -0.2042 -0.0373
  127OSM    HO313581   6.090   3.606   6.651  0.6282  1.6232  0.3770
  127OSM    C4S13582   6.151   3.605   6.945 -0.0962 -0.6532 -0.2835
  127OSM    H4S13583   6.090   3.514   6.953  0.1466 -0.6286  2.2191
  127OSM    C5S13584   6.207   3.643   7.059  0.2470  0.0275 -0.2919
  127OSM    H5S13585   6.267   3.734   7.062 -0.9474  0.8368 -0.6640
  127OSM    C6S13586   6.206   3.563   7.193 -0.3874  0.9147  0.4361
  127OSM    H6S13587   6.110   3.510   7.207  0.1074  0.3208  1.6080
  127OSM    H6T13588   6.209   3.635   7.278 -0.9161  1.8026 -0.2879
  127OSM    C7S13589   6.330   3.472   7.200  0.0640 -0.3441  0.2122
  127OSM    H7S13590   6.424   3.530   7.203 -0.5905  0.8622 -1.8027
  127OSM    H7T13591   6.341   3.407   7.110 -0.7910 -0.2683  0.0514
  127OSM    C8S13592   6.345   3.380   7.322 -0.4673 -0.6385  0.0885
  127OSM    H8S13593   6.423   3.305   7.296  1.8359  2.0808 -1.1060
  127OSM    H8T13594   6.248   3.327   7.335 -1.5297  1.5559  1.3820
  127OSM    C9S13595   6.400   3.448   7.447 -0.0222 -0.4854  0.4673
  127OSM    H9S13596   6.345   3.543   7.458  0.7206  0.0179 -0.0922
  127OSM    H9T13597   6.508   3.474   7.438 -0.4846  0.4821 -2.8040
  127OSM   C10S13598   6.381   3.358   7.575 -0.1262 -0.1791 -0.0181
  127OSM   H10S13599   6.460   3.280   7.574  0.7513  0.6664  1.6988
  127OSM   H10T13600   6.283   3.306   7.567  0.2216 -1.0050  1.0359
  127OSM   C11S13601   6.391   3.427   7.706  0.3516  0.0103  0.0442
  127OSM   H11S13602   6.306   3.497   7.721  1.0905  1.3672 -1.9956
  127OSM   H11T13603   6.489   3.479   7.715  0.4314 -0.5258  2.9942
  127OSM   C12S13604   6.398   3.322   7.819  0.1658  0.2177 -0.8915
  127OSM   H12S13605   6.490   3.261   7.805  1.2111  1.7783 -0.9646
  127OSM   H12T13606   6.303   3.266   7.831 -1.0752  1.6838 -3.6362
  127OSM   C13S13607   6.387   3.391   7.963  0.0037  0.1184 -0.3288
  127OSM   H13S13608   6.297   3.454   7.976  1.0066  1.5566 -0.2757
  127OSM   H13T13609   6.468   3.467   7.960  1.5896 -1.5832 -1.9883
  127OSM   C14S13610   6.398   3.297   8.082 -0.5562  0.3362  0.8833
  127OSM   H14S13611   6.505   3.272   8.069 -0.4563  0.5589  1.2709
  127OSM   H14T13612   6.349   3.200   8.058 -1.0200  0.6721  0.4452
  127OSM   C15S13613   6.355   3.348   8.226  0.3883 -0.4621  0.1521
  127OSM   H15S13614   6.246   3.340   8.242  0.6265  0.5554  2.4346
  127OSM   H15T13615   6.379   3.456   8.224 -0.3346 -0.3077 -1.0480
  127OSM   C16S13616   6.431   3.290   8.343  0.3171  0.2576 -0.1219
  127OSM   H16S13617   6.521   3.349   8.370  0.2432 -0.0106  0.7088
  127OSM   H16T13618   6.465   3.187   8.319  0.6818  0.0054  1.4658
  127OSM   C17S13619   6.347   3.269   8.472  0.5313 -0.6311 -0.6731
  127OSM   H17S13620   6.264   3.205   8.435  0.3871 -1.2169  0.6552
  127OSM   H17T13621   6.315   3.367   8.515  0.8853 -0.8025 -0.0259
  127OSM   C18S13622   6.418   3.189   8.580  0.1820  0.9526 -0.3559
  127OSM   H18S13623   6.356   3.177   8.671  0.0657  1.6299 -0.3376
  127OSM   H18T13624   6.519   3.234   8.589  1.1579 -0.6846 -2.8739
  127OSM   H18U13625   6.443   3.092   8.533  3.5041  1.9703 -0.7938
  127OSM    C1F13626   5.905   3.961   6.876 -0.0690 -0.3445 -0.4791
  127OSM     OF13627   5.815   3.974   6.796  0.0616 -0.0825  0.8608
  127OSM    C2F13628   5.903   4.032   7.008  0.5754  0.1309  0.6131
  127OSM    H2F13629   5.870   4.137   6.998 -2.6304 -0.8579  0.2016
  127OSM    H2G13630   6.009   4.036   7.042  1.1064 -0.2539 -0.9607
  127OSM    C3F13631   5.805   3.976   7.112 -0.7682 -1.0832 -0.5063
  127OSM    H3F13632   5.714   3.954   7.052 -0.3809 -1.4793 -0.9438
  127OSM    H3G13633   5.792   4.060   7.185 -0.4350  0.6613 -2.4188
  127OSM    C4F13634   5.840   3.839   7.158  0.3137  0.0760  0.5267
  127OSM    H4F13635   5.840   3.780   7.064 -2.9697  2.1462 -0.8518
  127OSM    H4G13636   5.757   3.796   7.219 -1.0755 -1.8923 -2.6352
  127OSM    C5F13637   5.971   3.829   7.226 -0.0449 -0.4608 -0.8885
  127OSM    H5F13638   6.054   3.850   7.155 -0.9424 -1.8369 -2.3810
  127OSM    H5G13639   5.987   3.726   7.264  0.0831 -0.3209 -0.5648
  127OSM    C6F13640   5.975   3.932   7.348 -0.4540  0.2027  0.5616
  127OSM    H6F13641   5.874   3.938   7.395 -0.7150 -2.1951  0.3925
  127OSM    H6G13642   6.008   4.028   7.304  1.9647 -2.0204 -2.6917
  127OSM    C7F13643   6.073   3.896   7.461 -0.0456 -0.0944 -0.3534
  127OSM    H7F13644   6.061   3.978   7.535  0.4766  2.2488 -2.7705
  127OSM    H7G13645   6.172   3.910   7.412  1.5278  0.2759  2.8004
  127OSM    C8F13646   6.041   3.761   7.532  0.0353 -0.4585  0.3264
  127OSM    H8F13647   6.066   3.683   7.457  1.5386 -0.5159  0.8549
  127OSM    H8G13648   5.932   3.765   7.550 -0.2665  0.9120 -1.6615
  127OSM    C9F13649   6.121   3.749   7.657  0.0324 -0.0957  0.5607
  127OSM    H9F13650   6.216   3.695   7.644  1.0724  1.4183  1.8012
  127OSM   C10F13651   6.102   3.800   7.778 -1.0017  0.0850  0.0293
  127OSM   H10F13652   6.180   3.780   7.853 -0.7039  1.6143  0.1455
  127OSM   C11F13653   5.996   3.896   7.820  0.3799 -0.0540  0.4645
  127OSM   H11F13654   5.933   3.844   7.896  2.6118 -2.7853  0.5324
  127OSM   H11G13655   5.922   3.912   7.739  0.7638 -1.7299 -0.2457
  127OSM   C12F13656   6.046   4.035   7.873  0.3862  0.3801  0.3808
  127OSM   H12F13657   5.950   4.091   7.882 -0.1456 -0.5166  0.3462
  127OSM   H12G13658   6.108   4.081   7.793 -1.4325 -1.2359 -2.0121
  127OSM   C13F13659   6.114   4.034   8.012  0.7589 -0.0741  0.6259
  127OSM   H13F13660   6.137   4.140   8.039  2.8866 -0.3707  0.0774
  127OSM   H13G13661   6.207   3.974   8.000  1.5916  1.6929 -2.3699
  127OSM   C14F13662   6.026   3.976   8.125  0.2340 -0.5760  0.3971
  127OSM   H14F13663   6.026   3.866   8.112 -0.9877 -0.6134  0.7202
  127OSM   H14G13664   5.927   4.017   8.097 -0.4227 -2.7356 -0.4881
  127OSM   C15F13665   6.066   4.012   8.261 -0.2682 -0.5406  0.2409
  127OSM   H15F13666   5.995   4.002   8.345  0.6580 -0.5151  1.0421
  127OSM   H15G13667   6.072   4.123   8.257 -3.6414 -0.3661 -1.1664
  127OSM   C16F13668   6.195   3.948   8.304 -0.0506 -0.3341  0.1060
  127OSM   H16F13669   6.262   4.009   8.367 -0.6019 -0.3585  0.7199
  127OSM   H16G13670   6.261   3.937   8.215  0.1500 -1.6543  0.4191
  127OSM   C17F13671   6.164   3.824   8.378  0.6236 -0.4089 -0.8305
  127OSM   H17F13672   6.088   3.762   8.326 -0.2946  0.3750 -0.4229
  127OSM   H17G13673   6.121   3.852   8.476 -1.3394 -2.2719 -1.1248
  127OSM   C18F13674   6.284   3.741   8.410 -0.5859 -0.2620 -0.5099
  127OSM   H18F13675   6.354   3.791   8.480 -0.7179  0.8209 -1.1373
  127OSM   H18G13676   6.337   3.728   8.313 -2.3312 -3.2152 -1.1515
  127OSM   H18H13677   6.260   3.642   8.456  0.7556  0.1088  1.0450
  128OSM      N13678   1.233   0.466   6.114 -0.0105 -0.3573  0.2131
  128OSM    C1513679   1.274   0.333   6.164  0.4828 -0.1280 -0.0435
  128OSM   H15A13680   1.353   0.330   6.237  0.2372  0.2371  0.2421
  128OSM   H15B13681   1.296   0.267   6.081 -1.4061  0.3290 -0.9527
  128OSM   H15C13682   1.183   0.296   6.209 -0.8412  1.5146 -1.2531
  128OSM    C1413683   1.117   0.451   6.011 -0.2577  0.4279  0.0831
  128OSM   H14A13684   1.032   0.412   6.064 -0.8781  0.7490 -0.6754
  128OSM   H14B13685   1.136   0.368   5.944  1.5383  0.8408  0.0511
  128OSM   H14C13686   1.090   0.546   5.968 -0.5956  0.1411 -0.3382
  128OSM    C1313687   1.192   0.559   6.232  0.6148  0.3193  0.3886
  128OSM   H13A13688   1.158   0.653   6.192  3.5104  0.7154 -1.3251
  128OSM   H13B13689   1.287   0.573   6.282 -0.0356  0.1057  1.7035
  128OSM   H13C13690   1.120   0.518   6.301 -0.2002  0.2564 -0.4907
  128OSM    C1213691   1.344   0.533   6.040 -0.6812 -0.2616 -0.0822
  128OSM   H12A13692   1.326   0.638   6.027  2.2846  0.4809  1.3587
  128OSM   H12B13693   1.367   0.484   5.946 -0.3547  0.0781 -0.1810
  128OSM    C1113694   1.481   0.525   6.111  0.1888  0.2337 -0.3622
  128OSM   H11A13695   1.465   0.558   6.216 -0.6736 -0.1887 -0.3523
  128OSM   H11B13696   1.546   0.599   6.059  0.4324 -0.2680 -0.7746
  128OSM      P13697   1.693   0.397   6.171  0.1703 -0.2096 -0.0321
  128OSM    O1313698   1.743   0.256   6.150  0.8216 -0.4040  0.1065
  128OSM    O1413699   1.780   0.506   6.114  0.5792  0.1833 -0.0704
  128OSM    O1113700   1.667   0.426   6.331 -0.5787  0.3129  0.8684
  128OSM    O1213701   1.549   0.402   6.107  0.4190 -0.2251  0.6006
  128OSM    C1S13702   1.634   0.310   6.409  0.6820 -0.4859 -0.1771
  128OSM    H1S13703   1.708   0.227   6.402  1.7753  0.6086 -2.1436
  128OSM    H1T13704   1.536   0.263   6.388 -0.3078  0.6023  1.9166
  128OSM     NF13705   1.611   0.222   6.641 -0.2527  0.1745 -0.3255
  128OSM    HNF13706   1.531   0.207   6.698  1.1633 -0.9799  1.4311
  128OSM    C2S13707   1.616   0.343   6.563  0.3463  0.2698 -0.2006
  128OSM    H2S13708   1.703   0.396   6.608 -0.0646  1.5810 -0.9262
  128OSM    C3S13709   1.494   0.431   6.575 -0.0076 -0.2395  1.5119
  128OSM    H3S13710   1.401   0.370   6.572 -0.5997  0.7033 -1.0583
  128OSM     O313711   1.470   0.526   6.464  0.7313 -0.7351 -0.1965
  128OSM    HO313712   1.542   0.502   6.405  0.0373 -1.2841 -0.8305
  128OSM    C4S13713   1.491   0.502   6.706 -0.0374  0.4130  0.6361
  128OSM    H4S13714   1.421   0.453   6.775 -0.3710 -0.2111 -0.1414
  128OSM    C5S13715   1.562   0.611   6.746 -0.5199 -0.2650  0.1658
  128OSM    H5S13716   1.635   0.653   6.676  0.9506 -0.5516  1.5058
  128OSM    C6S13717   1.544   0.679   6.878 -0.1064  0.2938 -0.5446
  128OSM    H6S13718   1.467   0.631   6.942 -0.3868  3.0195  1.2106
  128OSM    H6T13719   1.498   0.778   6.861 -1.5575  0.0188  1.5753
  128OSM    C7S13720   1.663   0.692   6.977  0.0724 -0.1493 -0.2087
  128OSM    H7S13721   1.729   0.762   6.922  2.7069 -1.9564  0.5537
  128OSM    H7T13722   1.719   0.598   6.993  1.1347  0.3544 -0.9518
  128OSM    C8S13723   1.631   0.752   7.112  0.4060  0.3586 -0.1237
  128OSM    H8S13724   1.576   0.846   7.089 -0.5531 -0.1322  0.1488
  128OSM    H8T13725   1.730   0.765   7.161  0.7174  0.6971 -0.8316
  128OSM    C9S13726   1.551   0.664   7.199 -0.1008  0.6604  0.2654
  128OSM    H9S13727   1.581   0.557   7.199  2.3424  1.2437 -3.0601
  128OSM    H9T13728   1.447   0.666   7.160  0.4416 -0.8893 -1.3163
  128OSM   C10S13729   1.548   0.732   7.331  0.5099 -0.2332  0.4927
  128OSM   H10S13730   1.519   0.839   7.325 -0.6755 -0.5875 -0.2986
  128OSM   H10T13731   1.650   0.724   7.375 -0.0156 -1.5435  1.5448
  128OSM   C11S13732   1.459   0.656   7.425  0.0068  0.4194 -0.4366
  128OSM   H11S13733   1.470   0.546   7.416 -1.1092  0.1541  1.1302
  128OSM   H11T13734   1.352   0.682   7.411 -0.5543 -1.0911  0.8778
  128OSM   C12S13735   1.486   0.691   7.573  0.2526 -0.3637  0.1175
  128OSM   H12S13736   1.500   0.800   7.590 -0.9040 -0.3407  0.9419
  128OSM   H12T13737   1.586   0.644   7.587  1.4022  1.3220 -2.1591
  128OSM   C13S13738   1.386   0.620   7.669 -0.0387  0.2074 -2.0600
  128OSM   H13S13739   1.365   0.517   7.634 -2.2079 -0.9499  2.3078
  128OSM   H13T13740   1.294   0.679   7.690 -1.5794 -3.2994  1.7118
  128OSM   C14S13741   1.447   0.598   7.817 -0.1594 -0.3085  0.0447
  128OSM   H14S13742   1.493   0.695   7.848 -0.7633 -0.3661  1.1609
  128OSM   H14T13743   1.522   0.516   7.818  0.6067  0.3592  2.6394
  128OSM   C15S13744   1.340   0.567   7.918 -0.1208 -0.8400  0.0424
  128OSM   H15S13745   1.276   0.477   7.904  0.8378 -1.5354  0.0970
  128OSM   H15T13746   1.277   0.658   7.928  0.6691 -0.3360  0.4849
  128OSM   C16S13747   1.414   0.569   8.056 -0.4360  0.6510 -0.1069
  128OSM   H16S13748   1.471   0.661   8.077 -0.2949  0.1420  1.7831
  128OSM   H16T13749   1.490   0.488   8.055  1.5415  2.4490 -2.0102
  128OSM   C17S13750   1.320   0.547   8.170  0.6098 -0.0758  0.1935
  128OSM   H17S13751   1.239   0.479   8.136 -0.4546  1.4093 -0.2721
  128OSM   H17T13752   1.272   0.641   8.204  0.7826 -0.9200  2.8679
  128OSM   C18S13753   1.398   0.494   8.294  0.6019  0.0161 -0.1123
  128OSM   H18S13754   1.444   0.396   8.272  0.8785 -0.2124  1.4196
  128OSM   H18T13755   1.326   0.480   8.378 -0.5482  1.9210 -0.7185
  128OSM   H18U13756   1.464   0.577   8.328  1.6381 -1.0106  0.3996
  128OSM    C1F13757   1.717   0.145   6.645  0.5019  0.4696 -0.2623
  128OSM     OF13758   1.822   0.188   6.611  0.6415 -0.3290  0.4677
  128OSM    C2F13759   1.708   0.007   6.709  0.0889 -0.6086 -0.1306
  128OSM    H2F13760   1.671  -0.066   6.634  1.8404 -0.9979 -0.6460
  128OSM    H2G13761   1.633   0.001   6.791  0.9281 -1.9381  0.5551
  128OSM    C3F13762   1.852  -0.046   6.755 -0.1112 -0.9339 -0.5137
  128OSM    H3F13763   1.881   0.033   6.827 -1.4093 -1.7716  0.9528
  128OSM    H3G13764   1.927  -0.047   6.673  0.5641  0.2105  0.0827
  128OSM    C4F13765   1.851  -0.188   6.814 -0.3473  0.0373 -0.0628
  128OSM    H4F13766   1.952  -0.195   6.859 -0.1689  1.5109 -0.2041
  128OSM    H4G13767   1.838  -0.260   6.730 -0.5304 -0.9265  0.7734
  128OSM    C5F13768   1.744  -0.227   6.917  0.0434  0.0030 -0.5569
  128OSM    H5F13769   1.753  -0.336   6.936 -1.2502 -0.0807 -0.4241
  128OSM    H5G13770   1.643  -0.212   6.874 -0.8226  0.7038  1.6497
  128OSM    C6F13771   1.758  -0.149   7.047  0.1676  0.4565  0.0928
  128OSM    H6F13772   1.658  -0.131   7.092  1.5259  4.0037  1.8926
  128OSM    H6G13773   1.789  -0.048   7.014  0.3740  0.0482 -1.0020
  128OSM    C7F13774   1.840  -0.211   7.153 -0.3052 -0.1336 -0.6928
  128OSM    H7F13775   1.941  -0.252   7.129  0.6592  0.5289  2.0051
  128OSM    H7G13776   1.787  -0.297   7.199  2.5695 -0.7530  1.6357
  128OSM    C8F13777   1.883  -0.109   7.267  0.4772  0.2938  0.1127
  128OSM    H8F13778   1.939  -0.029   7.215 -0.8161 -0.4088 -2.4083
  128OSM    H8G13779   1.956  -0.152   7.339  0.9492 -0.6400 -0.9257
  128OSM    C9F13780   1.769  -0.057   7.355 -0.3625  0.1847 -0.8792
  128OSM    H9F13781   1.709   0.024   7.311 -0.4324  0.6425  0.0330
  128OSM   C10F13782   1.732  -0.106   7.473  0.3819  0.3748  0.1578
  128OSM   H10F13783   1.641  -0.068   7.522  0.2193  1.1397 -0.7114
  128OSM   C11F13784   1.794  -0.216   7.557 -0.2520 -0.5685  0.9053
  128OSM   H11F13785   1.889  -0.253   7.513 -0.7278  1.0124 -1.5711
  128OSM   H11G13786   1.722  -0.300   7.547 -0.3289 -0.1649 -2.6763
  128OSM   C12F13787   1.836  -0.177   7.703 -0.8001 -0.5648  0.4428
  128OSM   H12F13788   1.929  -0.118   7.688  0.4338 -1.4577  4.0773
  128OSM   H12G13789   1.864  -0.274   7.749 -1.4352 -1.2677 -0.6227
  128OSM   C13F13790   1.733  -0.117   7.790 -0.3179 -0.5960 -1.1455
  128OSM   H13F13791   1.639  -0.176   7.786 -1.8605  1.8431 -1.5719
  128OSM   H13G13792   1.708  -0.018   7.748 -1.2751 -0.7129 -0.8776
  128OSM   C14F13793   1.780  -0.101   7.940 -0.3311 -0.7066  0.0285
  128OSM   H14F13794   1.880  -0.050   7.939  0.7116 -2.7030 -1.5792
  128OSM   H14G13795   1.799  -0.208   7.963 -1.5654 -0.4924  2.1012
  128OSM   C15F13796   1.685  -0.041   8.043 -0.7420 -0.3003  0.1319
  128OSM   H15F13797   1.587  -0.093   8.049  1.2691 -4.3925 -1.0587
  128OSM   H15G13798   1.666   0.062   8.003  0.7089 -0.0631  0.0447
  128OSM   C16F13799   1.747  -0.042   8.184  0.6085 -0.1211  0.2134
  128OSM   H16F13800   1.832   0.029   8.192  0.1748  0.5048 -0.7267
  128OSM   H16G13801   1.779  -0.145   8.211  0.7704 -0.4093 -1.0530
  128OSM   C17F13802   1.636  -0.009   8.285 -0.0705  0.1103 -0.2419
  128OSM   H17F13803   1.667  -0.045   8.385  1.7384 -0.6878 -1.0740
  128OSM   H17G13804   1.543  -0.067   8.264 -0.4364  0.1884  1.1474
  128OSM   C18F13805   1.611   0.138   8.300  0.4436 -0.3462 -0.5997
  128OSM   H18F13806   1.702   0.199   8.322  0.0244  0.5719 -1.3664
  128OSM   H18G13807   1.546   0.153   8.389  2.0040 -1.9090  0.8341
  128OSM   H18H13808   1.555   0.193   8.221 -1.4512 -1.4294 -0.0233
  129OSM      N13809   4.886   3.852   6.089  0.3246  0.1091 -0.6904
  129OSM    C1513810   4.996   3.914   6.007 -0.1177  0.2064  0.4753
  129OSM   H15A13811   4.961   3.990   5.940 -2.2631  0.7326  2.1335
  129OSM   H15B13812   5.053   3.838   5.956  2.4384  1.4640  1.3694
  129OSM   H15C13813   5.068   3.961   6.073  0.4315  0.6081 -0.3960
  129OSM    C1413814   4.811   3.966   6.137 -0.0275 -0.1393 -0.9049
  129OSM   H14A13815   4.752   3.935   6.222  0.2569 -1.8045 -1.3047
  129OSM   H14B13816   4.754   3.999   6.051  0.7349  0.0500 -1.3382
  129OSM   H14C13817   4.871   4.047   6.175 -0.3995 -0.5658  0.6252
  129OSM    C1313818   4.817   3.763   5.995 -0.0079 -0.2420  0.0139
  129OSM   H13A13819   4.793   3.818   5.905  0.1660  1.6821  1.1146
  129OSM   H13B13820   4.731   3.715   6.040 -0.2554  0.4550  0.2947
  129OSM   H13C13821   4.890   3.693   5.957  0.1551  0.1249 -0.3533
  129OSM    C1213822   4.935   3.779   6.203 -0.3468 -0.3590 -0.6379
  129OSM   H12A13823   4.994   3.698   6.163 -0.6141 -1.3574  0.9283
  129OSM   H12B13824   4.857   3.734   6.263 -1.3014 -0.0805 -1.6556
  129OSM    C1113825   5.030   3.846   6.297 -0.2001  0.2623  0.3488
  129OSM   H11A13826   5.035   3.797   6.396  3.4791  0.7071  0.4785
  129OSM   H11B13827   4.998   3.950   6.320 -1.3961 -0.4232  1.8322
  129OSM      P13828   5.263   3.758   6.216 -0.2307  0.1030 -0.6084
  129OSM    O1313829   5.221   3.674   6.105  0.2002  0.9475 -0.1117
  129OSM    O1413830   5.391   3.825   6.193  0.3492  0.8712  0.0104
  129OSM    O1113831   5.274   3.684   6.357 -0.7345  1.2421 -0.6031
  129OSM    O1213832   5.157   3.870   6.244 -0.3254 -0.1731  0.4930
  129OSM    C1S13833   5.322   3.761   6.468 -0.5108  0.2328  0.4434
  129OSM    H1S13834   5.238   3.802   6.528  0.1457 -1.3928  2.5799
  129OSM    H1T13835   5.387   3.847   6.442 -0.6310  0.1900  0.0004
  129OSM     NF13836   5.429   3.760   6.680 -0.1736  0.2779 -0.5347
  129OSM    HNF13837   5.509   3.819   6.668 -0.2771  0.5534  0.0712
  129OSM    C2S13838   5.406   3.673   6.571 -0.0169  0.4963  0.5021
  129OSM    H2S13839   5.346   3.583   6.597 -0.5244 -0.0402 -2.4286
  129OSM    C3S13840   5.542   3.617   6.512 -0.2603 -0.5025  0.4019
  129OSM    H3S13841   5.616   3.698   6.498  2.3206 -3.1418 -1.9793
  129OSM     O313842   5.521   3.559   6.383  0.1531 -0.5312 -0.0082
  129OSM    HO313843   5.433   3.588   6.357  0.4595  0.9277  0.5447
  129OSM    C4S13844   5.600   3.523   6.611 -0.2482 -0.1547 -0.0128
  129OSM    H4S13845   5.524   3.451   6.646 -0.2246 -0.5254 -0.7062
  129OSM    C5S13846   5.720   3.523   6.677  0.2802 -0.3052  1.0444
  129OSM    H5S13847   5.780   3.612   6.653  0.1977 -0.5535 -0.0905
  129OSM    C6S13848   5.777   3.430   6.775 -0.1402 -0.1152  0.2539
  129OSM    H6S13849   5.886   3.423   6.757 -0.0253  2.5725 -0.3656
  129OSM    H6T13850   5.720   3.335   6.770 -1.7745  0.6789  2.5583
  129OSM    C7S13851   5.754   3.474   6.923 -0.4045  0.0625 -0.4267
  129OSM    H7S13852   5.648   3.504   6.934 -0.4064  0.0751 -0.4668
  129OSM    H7T13853   5.807   3.572   6.923 -2.5543  1.2916  2.3632
  129OSM    C8S13854   5.804   3.370   7.026  0.1439 -0.5203 -0.6735
  129OSM    H8S13855   5.911   3.350   7.002  0.3843 -0.9267  0.7518
  129OSM    H8T13856   5.753   3.275   6.999 -0.9338  0.5112 -2.3869
  129OSM    C9S13857   5.796   3.425   7.169  0.3319  0.2929  0.0662
  129OSM    H9S13858   5.690   3.436   7.203  0.5132  0.2947  0.6476
  129OSM    H9T13859   5.842   3.525   7.185  1.2339  0.1216 -1.4286
  129OSM   C10S13860   5.868   3.329   7.266 -0.3739 -0.6860  0.4347
  129OSM   H10S13861   5.969   3.312   7.223 -1.0518 -0.7433 -1.1431
  129OSM   H10T13862   5.811   3.234   7.267 -0.8880 -0.3993 -1.2481
  129OSM   C11S13863   5.896   3.390   7.405 -0.2890 -0.2116  0.2119
  129OSM   H11S13864   5.802   3.437   7.441 -1.0705  0.2273 -2.3034
  129OSM   H11T13865   5.967   3.471   7.378 -1.6058  0.4615 -1.3937
  129OSM   C12S13866   5.959   3.296   7.494 -0.0975  0.6083 -0.5868
  129OSM   H12S13867   6.036   3.245   7.432 -1.1239  0.0081 -1.3880
  129OSM   H12T13868   5.878   3.222   7.515 -1.0690  1.5314 -1.0670
  129OSM   C13S13869   6.017   3.360   7.622  0.3855 -0.1128  0.0389
  129OSM   H13S13870   6.065   3.457   7.597  0.8972 -0.4477 -0.2720
  129OSM   H13T13871   6.095   3.292   7.662 -1.1870 -0.6764  2.2001
  129OSM   C14S13872   5.901   3.369   7.727  0.5358 -0.1030 -0.9486
  129OSM   H14S13873   5.860   3.267   7.746 -1.1371  1.0637  2.1179
  129OSM   H14T13874   5.827   3.442   7.687 -0.0441  0.2535  0.7277
  129OSM   C15S13875   5.961   3.430   7.856 -0.0915  0.0048  0.1899
  129OSM   H15S13876   5.990   3.536   7.840  1.4629 -0.6818 -1.7474
  129OSM   H15T13877   6.060   3.386   7.881 -1.0543 -1.4757  1.4904
  129OSM   C16S13878   5.869   3.431   7.981  0.5592  0.1103  0.0872
  129OSM   H16S13879   5.843   3.325   8.001 -0.2115  0.2117 -0.3581
  129OSM   H16T13880   5.778   3.493   7.963 -1.2124 -1.7882  2.2277
  129OSM   C17S13881   5.945   3.479   8.104  1.3058 -0.2157 -0.1903
  129OSM   H17S13882   5.925   3.585   8.130 -0.3602 -0.4531 -0.4697
  129OSM   H17T13883   6.053   3.457   8.087  1.7675  2.1646 -0.4425
  129OSM   C18S13884   5.900   3.390   8.221  0.4247 -0.2920  0.7529
  129OSM   H18S13885   5.932   3.430   8.319 -0.4599  1.0746  0.4884
  129OSM   H18T13886   5.921   3.283   8.200 -0.0330  0.1108 -2.0285
  129OSM   H18U13887   5.789   3.387   8.222  0.4356 -0.5244  1.7326
  129OSM    C1F13888   5.339   3.767   6.781 -0.0159 -0.2438  0.7150
  129OSM     OF13889   5.235   3.708   6.762  0.4173 -0.5377 -0.0291
  129OSM    C2F13890   5.372   3.850   6.899 -0.3942  0.5892 -0.2182
  129OSM    H2F13891   5.316   3.945   6.887 -0.4344  0.4390 -1.2236
  129OSM    H2G13892   5.480   3.871   6.893  0.0369 -1.9641 -2.3798
  129OSM    C3F13893   5.344   3.770   7.030 -0.1643 -0.1177  0.4809
  129OSM    H3F13894   5.400   3.676   7.015 -1.1662 -0.3124 -2.4155
  129OSM    H3G13895   5.235   3.747   7.032 -0.7319  2.4480  1.1109
  129OSM    C4F13896   5.399   3.853   7.149  0.1073 -0.3973 -0.1779
  129OSM    H4F13897   5.337   3.944   7.163  1.5914  0.1402  3.6311
  129OSM    H4G13898   5.501   3.886   7.120 -0.2745  1.0209  0.0873
  129OSM    C5F13899   5.409   3.765   7.269 -0.3587 -0.1258  0.4094
  129OSM    H5F13900   5.477   3.679   7.251  1.4223  0.7185  2.7686
  129OSM    H5G13901   5.307   3.725   7.287 -1.0992  1.7786  0.6806
  129OSM    C6F13902   5.490   3.840   7.375  0.0800 -0.0056  0.5065
  129OSM    H6F13903   5.428   3.914   7.430 -1.3727 -1.6490  1.1467
  129OSM    H6G13904   5.568   3.893   7.318  1.0754 -2.0278 -0.0314
  129OSM    C7F13905   5.566   3.752   7.477  0.1137 -0.1892  0.0920
  129OSM    H7F13906   5.652   3.692   7.442  0.1282  0.6716 -1.3887
  129OSM    H7G13907   5.495   3.680   7.523 -1.0600  1.5139  0.9998
  129OSM    C8F13908   5.624   3.848   7.588 -0.0928  0.2874 -0.0323
  129OSM    H8F13909   5.536   3.906   7.622 -1.4866 -2.5441  1.3544
  129OSM    H8G13910   5.699   3.920   7.548  0.8390 -0.7666 -0.2236
  129OSM    C9F13911   5.689   3.767   7.700 -0.0532 -0.3361 -0.1037
  129OSM    H9F13912   5.771   3.700   7.671 -0.4198 -0.7865 -0.1089
  129OSM   C10F13913   5.661   3.759   7.827  0.2721  0.0492 -0.8135
  129OSM   H10F13914   5.708   3.686   7.895 -0.4910  0.0352 -0.3043
  129OSM   C11F13915   5.552   3.825   7.903 -0.5881 -0.7073  0.2172
  129OSM   H11F13916   5.487   3.748   7.951  0.7112 -0.7506  1.9187
  129OSM   H11G13917   5.490   3.887   7.835  0.0765  0.9725  1.1296
  129OSM   C12F13918   5.609   3.910   8.022  0.3786  0.5858 -0.2629
  129OSM   H12F13919   5.536   3.980   8.067  0.2253 -0.0590  0.5013
  129OSM   H12G13920   5.693   3.963   7.972  0.8110 -1.4937 -1.8198
  129OSM   C13F13921   5.666   3.828   8.144 -0.3984  0.5719 -0.6593
  129OSM   H13F13922   5.760   3.773   8.120 -0.0834  0.0779  1.5883
  129OSM   H13G13923   5.599   3.742   8.171  1.4517 -0.8411 -0.4661
  129OSM   C14F13924   5.689   3.927   8.259  0.0238  0.0505 -0.7476
  129OSM   H14F13925   5.594   3.974   8.293 -0.1913  1.9104 -3.7283
  129OSM   H14G13926   5.742   4.014   8.214  0.6451 -0.5783 -1.2475
  129OSM   C15F13927   5.771   3.865   8.375 -0.0053  0.0999 -0.3527
  129OSM   H15F13928   5.821   3.933   8.448 -0.7942  1.1013 -0.7480
  129OSM   H15G13929   5.854   3.802   8.337  2.1700  1.9431  1.1744
  129OSM   C16F13930   5.690   3.765   8.464 -0.2585  0.1969  0.1258
  129OSM   H16F13931   5.672   3.672   8.404 -0.6165  0.8096 -0.7340
  129OSM   H16G13932   5.603   3.827   8.491 -1.3111  1.6071 -5.8276
  129OSM   C17F13933   5.763   3.725   8.594  0.3953 -0.6695 -0.3006
  129OSM   H17F13934   5.781   3.822   8.644  1.4548 -1.2538  0.4832
  129OSM   H17G13935   5.864   3.687   8.568  0.8336  1.0518 -1.1296
  129OSM   C18F13936   5.688   3.616   8.674 -0.0435  0.1708 -1.0042
  129OSM   H18F13937   5.695   3.514   8.629  0.7028 -0.1363 -0.2112
  129OSM   H18G13938   5.581   3.645   8.684 -0.2866 -0.4831 -1.6591
  129OSM   H18H13939   5.733   3.587   8.772  3.3102 -0.4699 -2.6712
  130OSM      N13940   2.043   5.955   5.805  0.2830 -0.0575  0.3044
  130OSM    C1513941   1.956   6.041   5.720 -0.0204 -0.0600  0.7865
  130OSM   H15A13942   1.992   6.143   5.714  2.8741 -0.9539  2.1836
  130OSM   H15B13943   1.863   6.051   5.772 -0.2865 -1.0879  0.5130
  130OSM   H15C13944   1.935   5.998   5.623 -0.4487  1.3610  0.2411
  130OSM    C1413945   1.963   5.829   5.832  0.6163 -0.0331  0.6399
  130OSM   H14A13946   1.859   5.850   5.856  0.6726  0.9021  0.0761
  130OSM   H14B13947   2.022   5.781   5.909  0.9191  1.9913  1.7055
  130OSM   H14C13948   1.971   5.756   5.753  0.8631 -0.8225  1.3961
  130OSM    C1313949   2.174   5.910   5.741  0.4808  0.1166 -0.0981
  130OSM   H13A13950   2.231   5.847   5.807  0.7758 -0.7891 -1.1869
  130OSM   H13B13951   2.237   5.993   5.713  1.2369 -0.3464  0.1891
  130OSM   H13C13952   2.142   5.850   5.657 -2.1807  1.5034 -0.0958
  130OSM    C1213953   2.073   6.025   5.939 -0.0658 -0.0930  0.4271
  130OSM   H12A13954   1.997   6.101   5.936 -1.0810 -1.1279 -0.5529
  130OSM   H12B13955   2.165   6.079   5.922  0.5994 -0.9550  1.1901
  130OSM    C1113956   2.091   5.934   6.062 -0.7563 -0.3187 -0.8579
  130OSM   H11A13957   2.005   5.863   6.070 -0.5607 -0.5672 -0.9772
  130OSM   H11B13958   2.096   5.994   6.156  0.4342 -0.3359 -0.9069
  130OSM      P13959   2.366   5.900   6.093  0.0685  0.2369 -0.5079
  130OSM    O1313960   2.451   5.796   6.044 -0.6156 -0.0063 -0.1480
  130OSM    O1413961   2.389   6.038   6.047 -0.6813 -0.0047 -0.1689
  130OSM    O1113962   2.385   5.889   6.252  0.7739 -0.0490  0.0290
  130OSM    O1213963   2.213   5.855   6.061 -0.0073  0.4186  0.3834
  130OSM    C1S13964   2.315   5.979   6.337 -0.3611  0.5933  0.0859
  130OSM    H1S13965   2.205   5.968   6.323 -0.0021  1.1873 -3.4300
  130OSM    H1T13966   2.335   6.085   6.313 -0.4549 -0.1617 -3.4967
  130OSM     NF13967   2.273   6.024   6.583 -0.0507 -0.0473  0.5385
  130OSM    HNF13968   2.327   6.082   6.645 -2.1278  0.3853  1.9964
  130OSM    C2S13969   2.355   5.954   6.491 -0.4179 -0.0775  0.0008
  130OSM    H2S13970   2.338   5.845   6.500  1.5849 -0.4217 -0.1275
  130OSM    C3S13971   2.507   5.997   6.516  0.7849  0.1319  0.4583
  130OSM    H3S13972   2.516   6.106   6.532  0.5603  0.3880 -1.1136
  130OSM     O313973   2.589   5.979   6.405 -0.3679 -0.8846  0.2936
  130OSM    HO313974   2.539   5.940   6.334 -0.4115  0.0463 -0.1943
  130OSM    C4S13975   2.565   5.927   6.642  0.2804 -0.3138  0.1971
  130OSM    H4S13976   2.553   5.818   6.643  1.1754 -0.4428 -1.5144
  130OSM    C5S13977   2.629   5.994   6.738  0.7185  0.4432 -0.9447
  130OSM    H5S13978   2.640   6.103   6.731 -1.3365  1.0046  2.9511
  130OSM    C6S13979   2.688   5.929   6.857 -0.9116 -0.1907  0.2981
  130OSM    H6S13980   2.798   5.943   6.865 -0.5980 -1.6714 -1.1377
  130OSM    H6T13981   2.660   5.821   6.859 -1.3925 -0.0508  1.1347
  130OSM    C7S13982   2.625   5.990   6.982 -0.1575 -0.1144 -0.1405
  130OSM    H7S13983   2.516   5.976   6.967  0.0120 -1.2407 -0.3315
  130OSM    H7T13984   2.643   6.099   6.977  0.8890 -0.2198  1.0593
  130OSM    C8S13985   2.682   5.937   7.117 -0.2179  0.3918 -0.5847
  130OSM    H8S13986   2.793   5.940   7.110 -0.0730  1.6850  1.9062
  130OSM    H8T13987   2.648   5.831   7.120  2.7377 -0.5546  0.9608
  130OSM    C9S13988   2.612   6.015   7.232 -0.1395 -0.1098 -0.1396
  130OSM    H9S13989   2.504   6.005   7.210  0.1923 -4.2594 -0.2213
  130OSM    H9T13990   2.633   6.124   7.228 -0.8195  0.0280 -0.0660
  130OSM   C10S13991   2.648   5.949   7.368  0.1215  0.0533 -0.4851
  130OSM   H10S13992   2.757   5.964   7.386  0.2122 -1.0548 -0.0813
  130OSM   H10T13993   2.624   5.842   7.387 -2.7699  0.7329 -0.0953
  130OSM   C11S13994   2.584   6.032   7.478  0.0309  0.1565  0.4059
  130OSM   H11S13995   2.473   6.039   7.480  0.1201  1.6754  1.0018
  130OSM   H11T13996   2.605   6.140   7.462  1.8565 -0.4477 -1.3944
  130OSM   C12S13997   2.611   5.993   7.621  0.5346 -0.2684 -0.6310
  130OSM   H12S13998   2.718   6.015   7.641  1.2145 -2.4010 -1.7423
  130OSM   H12T13999   2.596   5.886   7.648 -0.9277  0.9501  3.9052
  130OSM   C13S14000   2.532   6.088   7.718  0.0054 -0.0413  0.0837
  130OSM   H13S14001   2.425   6.058   7.727  0.2974 -1.4346 -0.9202
  130OSM   H13T14002   2.544   6.189   7.674 -1.8466  0.5453  0.8717
  130OSM   C14S14003   2.572   6.080   7.872 -0.3802  0.6179 -0.2846
  130OSM   H14S14004   2.585   6.186   7.902 -5.1761  0.6981  1.9123
  130OSM   H14T14005   2.666   6.022   7.881  0.5575  2.4582  2.4636
  130OSM   C15S14006   2.465   6.016   7.957 -0.4089  0.3220 -0.1676
  130OSM   H15S14007   2.510   6.011   8.059  1.0643 -1.3283 -0.8630
  130OSM   H15T14008   2.451   5.910   7.926 -1.1783  1.0944 -2.5413
  130OSM   C16S14009   2.323   6.080   7.960 -0.6377 -0.9867 -0.3109
  130OSM   H16S14010   2.251   6.011   8.008 -1.1285  0.1548  0.6089
  130OSM   H16T14011   2.290   6.092   7.855  1.2228 -0.6640 -0.8794
  130OSM   C17S14012   2.313   6.206   8.055 -0.5599 -0.2003  0.0546
  130OSM   H17S14013   2.207   6.237   8.069 -0.4634  0.0988  0.1208
  130OSM   H17T14014   2.369   6.288   8.004 -0.8653  0.6605  1.0900
  130OSM   C18S14015   2.361   6.196   8.194 -0.5219  1.0213  0.6258
  130OSM   H18S14016   2.467   6.163   8.207 -1.0499 -1.5046 -1.1457
  130OSM   H18T14017   2.288   6.137   8.253  0.0101  0.5189  0.7831
  130OSM   H18U14018   2.354   6.296   8.242 -0.1876  1.7632 -0.8440
  130OSM    C1F14019   2.142   6.018   6.603 -0.0375 -0.5855  0.2597
  130OSM     OF14020   2.063   5.967   6.525  0.5305  0.1795 -0.1235
  130OSM    C2F14021   2.092   6.085   6.732  0.5127 -0.3496  0.8771
  130OSM    H2F14022   2.122   6.192   6.725 -1.3128  0.0086 -3.0430
  130OSM    H2G14023   2.144   6.045   6.821  0.3841 -0.8596  0.7241
  130OSM    C3F14024   1.944   6.080   6.750  0.2997  0.1464 -0.2157
  130OSM    H3F14025   1.915   5.976   6.777 -1.3740  0.3247 -1.1960
  130OSM    H3G14026   1.891   6.111   6.657 -0.4366  2.6418  0.9925
  130OSM    C4F14027   1.883   6.153   6.873 -0.4118  0.3292 -0.1677
  130OSM    H4F14028   1.780   6.113   6.883  0.6192 -1.9802  1.5712
  130OSM    H4G14029   1.884   6.264   6.865 -0.7420  0.4486  1.2893
  130OSM    C5F14030   1.943   6.109   7.013  0.4000 -0.3710  0.0186
  130OSM    H5F14031   2.053   6.129   7.016  0.2069  1.2417 -2.4366
  130OSM    H5G14032   1.929   5.999   7.013 -0.6722 -0.2743  2.6616
  130OSM    C6F14033   1.873   6.182   7.128 -0.1575 -0.1088  0.0373
  130OSM    H6F14034   1.766   6.153   7.118 -0.1358  0.1995 -1.2954
  130OSM    H6G14035   1.873   6.289   7.097  1.6740 -0.8920 -2.8506
  130OSM    C7F14036   1.933   6.151   7.259 -0.3118  0.1006 -0.4094
  130OSM    H7F14037   2.039   6.181   7.250 -0.5628  1.1820  0.0814
  130OSM    H7G14038   1.930   6.042   7.280  0.6503 -0.4407 -2.8456
  130OSM    C8F14039   1.876   6.227   7.375  0.2870  0.2975 -0.0869
  130OSM    H8F14040   1.786   6.178   7.417  0.0629  0.2474 -0.6217
  130OSM    H8G14041   1.855   6.328   7.334  0.7768 -0.1545 -1.4651
  130OSM    C9F14042   1.965   6.240   7.498  0.4800 -0.1485  0.2624
  130OSM    H9F14043   2.058   6.296   7.483  0.8299 -1.0332 -0.8552
  130OSM   C10F14044   1.940   6.228   7.630  0.7165 -0.3626  0.2199
  130OSM   H10F14045   2.028   6.223   7.695  1.1826 -0.7743 -0.4460
  130OSM   C11F14046   1.809   6.191   7.702  0.1650 -0.5350  0.0755
  130OSM   H11F14047   1.764   6.108   7.644 -1.6568 -0.3276  1.1476
  130OSM   H11G14048   1.740   6.278   7.697 -0.5739 -1.0719  0.9519
  130OSM   C12F14049   1.832   6.156   7.850 -0.2673  0.0137  0.4203
  130OSM   H12F14050   1.922   6.091   7.862  0.0443  0.0956 -1.4302
  130OSM   H12G14051   1.741   6.107   7.890 -1.3035  1.6581  0.1172
  130OSM   C13F14052   1.867   6.281   7.931  0.5116 -0.9744 -0.2889
  130OSM   H13F14053   1.783   6.352   7.948  1.3464 -0.0052 -0.1269
  130OSM   H13G14054   1.944   6.342   7.880 -0.9363 -0.0165 -1.3813
  130OSM   C14F14055   1.929   6.250   8.073  0.3758  0.4783 -0.0688
  130OSM   H14F14056   2.011   6.176   8.081 -0.6554 -1.1771 -3.6492
  130OSM   H14G14057   1.858   6.202   8.143  1.7196 -0.7229  0.4931
  130OSM   C15F14058   1.963   6.384   8.146 -0.5124 -0.2491  0.1321
  130OSM   H15F14059   1.886   6.463   8.133  0.2321  1.1086  3.3888
  130OSM   H15G14060   2.059   6.421   8.105 -0.2355 -0.7958  0.2789
  130OSM   C16F14061   1.994   6.359   8.296  0.0086  0.0983 -0.0468
  130OSM   H16F14062   2.085   6.295   8.299 -1.3427 -1.9007 -1.2872
  130OSM   H16G14063   1.909   6.317   8.354  1.2959 -0.8715  1.1771
  130OSM   C17F14064   2.041   6.494   8.371  0.1134  0.5398  0.2193
  130OSM   H17F14065   1.958   6.563   8.398  0.2735  1.5570 -1.7372
  130OSM   H17G14066   2.107   6.554   8.305 -0.7253  0.0697 -1.0750
  130OSM   C18F14067   2.128   6.467   8.498  0.1137 -0.1518  0.3348
  130OSM   H18F14068   2.178   6.562   8.526  0.6420  0.5931 -2.9455
  130OSM   H18G14069   2.214   6.398   8.481 -0.6080 -0.5261 -1.8356
  130OSM   H18H14070   2.067   6.429   8.584 -0.6584 -0.2241 -0.2423
  131OSM      N14071   6.625   2.847   6.077  0.5523  0.5152 -0.3976
  131OSM    C1514072   6.676   2.946   6.181  0.7705 -0.6480 -0.0782
  131OSM   H15A14073   6.718   2.900   6.269 -0.4690  1.9988  1.9992
  131OSM   H15B14074   6.604   3.018   6.218  0.3136 -0.8551 -0.5581
  131OSM   H15C14075   6.762   2.994   6.136 -1.7234  2.8951 -1.3085
  131OSM    C1414076   6.537   2.917   5.982  0.0929 -0.9173 -0.3954
  131OSM   H14A14077   6.464   2.976   6.035  2.1967  0.7242  0.7497
  131OSM   H14B14078   6.495   2.838   5.920 -0.6293 -0.7812 -0.0797
  131OSM   H14C14079   6.585   2.996   5.925 -1.5025  0.8673  0.6986
  131OSM    C1314080   6.741   2.807   6.008 -0.5628 -0.7253  0.2339
  131OSM   H13A14081   6.722   2.740   5.926 -1.4735 -1.2347  0.8493
  131OSM   H13B14082   6.817   2.777   6.079 -1.3438 -0.3258  1.2587
  131OSM   H13C14083   6.785   2.895   5.965 -0.2669 -0.4576  1.0736
  131OSM    C1214084   6.545   2.735   6.139  0.4590 -0.0227  0.4177
  131OSM   H12A14085   6.464   2.775   6.198 -0.3772 -1.8200  0.5325
  131OSM   H12B14086   6.597   2.682   6.218  1.0945 -0.5536 -0.3482
  131OSM    C1114087   6.482   2.625   6.040  0.1417 -0.4052 -0.0651
  131OSM   H11A14088   6.404   2.671   5.975  0.7687 -0.9599 -1.2164
  131OSM   H11B14089   6.421   2.553   6.100  1.0061  1.6133  3.3351
  131OSM      P14090   6.669   2.432   6.012 -0.0824  0.2229  0.4806
  131OSM    O1314091   6.598   2.310   5.965  0.5127 -0.1541 -0.8330
  131OSM    O1414092   6.810   2.447   5.973 -0.0619 -0.4708  0.1991
  131OSM    O1114093   6.636   2.420   6.172  0.0162  0.3400  0.5511
  131OSM    O1214094   6.589   2.563   5.966  0.5340 -0.1237 -0.3773
  131OSM    C1S14095   6.754   2.419   6.259 -0.2097  0.4332  0.3063
  131OSM    H1S14096   6.817   2.505   6.226 -0.0646 -0.4715 -1.9111
  131OSM    H1T14097   6.818   2.330   6.241 -0.7433  0.5008 -2.1868
  131OSM     NF14098   6.832   2.449   6.498  0.1669 -0.1216 -0.1855
  131OSM    HNF14099   6.877   2.374   6.547 -1.5366  0.5342  2.4565
  131OSM    C2S14100   6.716   2.423   6.409 -0.0518 -0.1565  0.6675
  131OSM    H2S14101   6.641   2.505   6.416  0.2821  0.2806 -0.6517
  131OSM    C3S14102   6.636   2.300   6.446  0.2375  0.0237 -0.7188
  131OSM    H3S14103   6.711   2.221   6.468  1.4210  1.0797 -0.8697
  131OSM     O314104   6.545   2.259   6.346  0.2573 -0.3569  0.0715
  131OSM    HO314105   6.566   2.331   6.286 -2.0068 -0.5031 -0.9273
  131OSM    C4S14106   6.566   2.300   6.573 -0.5750  0.4675  0.6178
  131OSM    H4S14107   6.632   2.267   6.655 -0.4000 -1.9775 -0.4524
  131OSM    C5S14108   6.447   2.354   6.598  0.2585  0.1252 -0.6516
  131OSM    H5S14109   6.380   2.393   6.520  1.4395  2.7428 -0.4364
  131OSM    C6S14110   6.391   2.361   6.733  0.5724  0.0117  0.3916
  131OSM    H6S14111   6.301   2.295   6.734 -0.6947  1.7027  2.6231
  131OSM    H6T14112   6.342   2.460   6.744  0.4532  0.3063 -2.5720
  131OSM    C7S14113   6.483   2.356   6.859  0.8950  0.3027  0.5545
  131OSM    H7S14114   6.551   2.443   6.849  0.0597  0.7215 -1.8351
  131OSM    H7T14115   6.559   2.276   6.872 -0.8228 -1.4025  0.4464
  131OSM    C8S14116   6.402   2.378   6.989 -0.6673  0.1009  0.3745
  131OSM    H8S14117   6.322   2.301   6.997 -0.0934 -0.3774  1.7027
  131OSM    H8T14118   6.355   2.476   6.971  1.7905  1.0903 -0.9509
  131OSM    C9S14119   6.482   2.404   7.108  0.5001  0.3869 -0.2182
  131OSM    H9S14120   6.557   2.484   7.091  0.0123  0.9281  0.1329
  131OSM    H9T14121   6.546   2.317   7.135 -2.1766 -1.1924  1.2344
  131OSM   C10S14122   6.403   2.448   7.233 -0.3632  0.2504 -0.3667
  131OSM   H10S14123   6.311   2.390   7.255 -0.1622  0.3223  0.6618
  131OSM   H10T14124   6.378   2.556   7.219 -0.0810  0.5862  1.6154
  131OSM   C11S14125   6.485   2.456   7.367 -0.5833  0.1655 -0.2508
  131OSM   H11S14126   6.432   2.509   7.449 -0.4353 -0.1360  0.0418
  131OSM   H11T14127   6.580   2.511   7.348  0.1977 -0.8404  0.6867
  131OSM   C12S14128   6.525   2.321   7.419 -0.0502  0.0751 -0.6361
  131OSM   H12S14129   6.599   2.267   7.356  0.2098 -2.1482  1.4928
  131OSM   H12T14130   6.429   2.266   7.426  0.6937 -1.0122  1.3909
  131OSM   C13S14131   6.590   2.344   7.560  0.8539 -0.1369  0.0606
  131OSM   H13S14132   6.520   2.401   7.625  1.2709 -0.7472  1.0701
  131OSM   H13T14133   6.689   2.395   7.554  0.1991  1.4357  1.9744
  131OSM   C14S14134   6.609   2.214   7.639 -0.2864  0.2170  0.0737
  131OSM   H14S14135   6.703   2.168   7.602 -0.3241  0.7608 -0.7011
  131OSM   H14T14136   6.523   2.144   7.629  0.0590 -0.3325  0.8092
  131OSM   C15S14137   6.652   2.235   7.783 -0.2051  0.7601  0.3330
  131OSM   H15S14138   6.572   2.271   7.852  0.0301  3.0338 -0.5356
  131OSM   H15T14139   6.717   2.325   7.791  2.8996 -1.4060  0.4627
  131OSM   C16S14140   6.738   2.136   7.865 -0.3460 -0.2074  0.0025
  131OSM   H16S14141   6.829   2.104   7.810  1.7027  1.9811  2.0104
  131OSM   H16T14142   6.677   2.043   7.873 -1.3792  0.5176  0.6323
  131OSM   C17S14143   6.789   2.181   8.008  0.4453 -0.6583 -0.4924
  131OSM   H17S14144   6.707   2.159   8.080  0.3012  2.5140  0.4027
  131OSM   H17T14145   6.811   2.290   8.021 -0.1918 -0.5955  0.0679
  131OSM   C18S14146   6.904   2.088   8.056 -0.0770 -0.2900  0.0979
  131OSM   H18S14147   6.989   2.086   7.984  0.2537  1.4814  0.4265
  131OSM   H18T14148   6.864   1.985   8.067 -1.9373  0.4028  0.1048
  131OSM   H18U14149   6.941   2.125   8.154 -0.9311 -0.3827  0.4594
  131OSM    C1F14150   6.877   2.571   6.509  0.0459  0.3235 -0.1431
  131OSM     OF14151   6.813   2.661   6.465 -0.2240  0.2542 -0.1636
  131OSM    C2F14152   7.005   2.602   6.576  0.0322  0.1795  0.7225
  131OSM    H2F14153   7.067   2.649   6.497  1.4122  0.1300  1.7551
  131OSM    H2G14154   7.051   2.504   6.602 -1.3822 -1.1227 -1.5434
  131OSM    C3F14155   6.990   2.701   6.690  0.3811 -0.1033  0.1467
  131OSM    H3F14156   6.938   2.790   6.648 -1.8558 -0.0440  2.9310
  131OSM    H3G14157   7.086   2.743   6.727 -0.6354 -0.4964  3.4290
  131OSM    C4F14158   6.908   2.659   6.814  0.0693  1.0209 -0.9700
  131OSM    H4F14159   6.956   2.574   6.867  0.4784  0.5234 -2.1320
  131OSM    H4G14160   6.807   2.636   6.775 -0.5657  1.5122  0.3593
  131OSM    C5F14161   6.896   2.779   6.916  0.0418 -0.2687  0.4844
  131OSM    H5F14162   6.826   2.855   6.874 -0.9000 -1.5205 -0.2535
  131OSM    H5G14163   7.000   2.818   6.920 -0.0411  0.0009  0.0609
  131OSM    C6F14164   6.859   2.728   7.060  0.5062  0.6543  0.2371
  131OSM    H6F14165   6.940   2.660   7.093  1.7086  0.2363 -3.2690
  131OSM    H6G14166   6.765   2.670   7.060  1.3607 -0.7517 -0.1641
  131OSM    C7F14167   6.860   2.842   7.160 -0.1671  0.6911  0.3786
  131OSM    H7F14168   6.801   2.923   7.112  0.0748  1.6912  1.7077
  131OSM    H7G14169   6.961   2.885   7.181 -0.3574  0.9301  0.7987
  131OSM    C8F14170   6.804   2.814   7.301 -0.0431  0.2335  0.0423
  131OSM    H8F14171   6.703   2.771   7.285 -0.6156  1.9468 -1.0775
  131OSM    H8G14172   6.786   2.908   7.359 -0.8149  2.1753 -3.2396
  131OSM    C9F14173   6.876   2.706   7.380  0.5916  1.3838  0.6086
  131OSM    H9F14174   6.913   2.619   7.323  2.2541  2.2751  0.2828
  131OSM   C10F14175   6.901   2.711   7.510 -0.4897 -0.2559 -0.5994
  131OSM   H10F14176   6.943   2.623   7.561  1.3791  0.2621 -1.2180
  131OSM   C11F14177   6.853   2.824   7.601 -0.1663 -0.0003 -0.4403
  131OSM   H11F14178   6.743   2.830   7.585 -0.2802 -1.2823 -0.2247
  131OSM   H11G14179   6.894   2.925   7.580 -0.9078  1.1785  3.3748
  131OSM   C12F14180   6.863   2.784   7.750 -1.3300 -0.6807  0.0457
  131OSM   H12F14181   6.791   2.845   7.808  1.8714  2.5793  0.7826
  131OSM   H12G14182   6.967   2.810   7.781 -1.4069 -1.1197  0.6728
  131OSM   C13F14183   6.816   2.642   7.792  0.0218  0.5023  0.0512
  131OSM   H13F14184   6.879   2.561   7.750  1.5480  1.8665 -0.3620
  131OSM   H13G14185   6.716   2.623   7.747 -0.4307  1.7859  0.4692
  131OSM   C14F14186   6.804   2.620   7.945  0.0118  0.1727  0.1551
  131OSM   H14F14187   6.796   2.513   7.974  3.4686 -0.4452 -0.9640
  131OSM   H14G14188   6.709   2.665   7.981 -1.4448 -1.0248 -2.1028
  131OSM   C15F14189   6.933   2.675   8.019  0.1265 -1.1770 -0.0845
  131OSM   H15F14190   6.938   2.785   8.001  0.0109 -1.0708  0.5091
  131OSM   H15G14191   7.025   2.625   7.984  1.2810  0.1035  1.0260
  131OSM   C16F14192   6.943   2.645   8.172 -0.5173  0.3982 -0.2353
  131OSM   H16F14193   6.939   2.535   8.191  2.0502  0.2115 -0.6633
  131OSM   H16G14194   6.854   2.684   8.227  0.6509  2.1764  0.3983
  131OSM   C17F14195   7.066   2.697   8.243 -0.3210  0.4885 -0.4304
  131OSM   H17F14196   7.160   2.661   8.196  0.3594  1.9055 -0.1770
  131OSM   H17G14197   7.059   2.663   8.348  1.2812  3.5982  0.7792
  131OSM   C18F14198   7.085   2.847   8.269  0.4355 -0.1470 -0.7644
  131OSM   H18F14199   7.178   2.868   8.326  0.1198 -0.5924 -0.0709
  131OSM   H18G14200   6.998   2.894   8.320  1.5570  1.2227 -0.0704
  131OSM   H18H14201   7.119   2.905   8.181  2.8769  1.1311  0.9742
  132OSM      N14202   1.759   2.698   5.916  0.2810 -0.9561  0.1653
  132OSM    C1514203   1.826   2.572   5.974  0.1375  0.0873 -0.0252
  132OSM   H15A14204   1.928   2.579   6.008  0.2778  1.9762 -0.7634
  132OSM   H15B14205   1.820   2.486   5.910 -0.0713 -1.2809  1.8023
  132OSM   H15C14206   1.776   2.536   6.062  1.0528 -1.5031 -0.1412
  132OSM    C1414207   1.817   2.726   5.779 -0.5831 -0.1557  0.1690
  132OSM   H14A14208   1.807   2.633   5.726 -1.3195 -0.6598  1.1591
  132OSM   H14B14209   1.924   2.736   5.781 -0.4976 -0.6978 -1.5909
  132OSM   H14C14210   1.770   2.808   5.726  0.9509  2.0363  2.0848
  132OSM    C1314211   1.613   2.668   5.913  0.5434  0.0836  0.3565
  132OSM   H13A14212   1.543   2.741   5.874  0.0897 -1.0573 -1.0114
  132OSM   H13B14213   1.591   2.656   6.018  2.5688 -0.0583  0.7828
  132OSM   H13C14214   1.592   2.578   5.857  1.7840  0.3483 -0.5591
  132OSM    C1214215   1.781   2.818   6.010 -0.8568 -0.1422  0.1706
  132OSM   H12A14216   1.730   2.903   5.966  1.1756  0.2397 -1.5350
  132OSM   H12B14217   1.886   2.839   5.998 -0.3086 -3.1111 -0.7285
  132OSM    C1114218   1.740   2.814   6.164  0.0165  0.3238 -0.1431
  132OSM   H11A14219   1.773   2.908   6.212  1.0976 -0.1290  0.0152
  132OSM   H11B14220   1.809   2.741   6.212 -1.3069  0.5634  2.2053
  132OSM      P14221   1.504   2.914   6.166 -0.1900  0.3648  0.3282
  132OSM    O1314222   1.532   2.993   6.042 -0.0243 -0.8266 -0.6748
  132OSM    O1414223   1.367   2.877   6.200 -0.2548  0.6777 -0.0353
  132OSM    O1114224   1.548   3.007   6.287 -0.4963  0.4009  0.4282
  132OSM    O1214225   1.598   2.787   6.180 -0.4487  0.0748 -0.2961
  132OSM    C1S14226   1.550   2.953   6.420  0.1440 -0.1741 -0.2393
  132OSM    H1S14227   1.630   2.877   6.432  0.0707 -0.6790 -2.7212
  132OSM    H1T14228   1.452   2.903   6.437  0.6030 -0.3216  2.2145
  132OSM     NF14229   1.548   2.983   6.654  0.2253 -0.0643 -0.1854
  132OSM    HNF14230   1.471   3.013   6.710 -0.2150 -0.0245 -0.8088
  132OSM    C2S14231   1.564   3.056   6.528 -0.4531 -0.1927 -0.0767
  132OSM    H2S14232   1.669   3.092   6.527 -0.3146 -0.3870  2.5045
  132OSM    C3S14233   1.465   3.174   6.522 -0.2174  0.8168 -0.1655
  132OSM    H3S14234   1.367   3.133   6.555  0.1372 -1.4153 -1.8039
  132OSM     O314235   1.435   3.234   6.394 -0.3642 -0.3969 -0.2204
  132OSM    HO314236   1.500   3.180   6.347  0.8160  1.3855 -0.6610
  132OSM    C4S14237   1.492   3.284   6.622  0.3355  0.2813  0.8434
  132OSM    H4S14238   1.420   3.293   6.705 -0.9561  0.5369 -0.2832
  132OSM    C5S14239   1.579   3.382   6.602 -0.4699 -1.3055  0.2186
  132OSM    H5S14240   1.634   3.387   6.507  1.4374  0.4203  1.3765
  132OSM    C6S14241   1.601   3.495   6.702  0.2331 -0.4571  0.7240
  132OSM    H6S14242   1.579   3.594   6.656  1.2443 -1.4104 -1.9452
  132OSM    H6T14243   1.709   3.511   6.723  0.6098 -1.0567 -0.6831
  132OSM    C7S14244   1.524   3.490   6.834 -0.6443  0.2381 -0.3353
  132OSM    H7S14245   1.563   3.410   6.900  0.8529 -0.3764 -1.9344
  132OSM    H7T14246   1.417   3.473   6.807 -0.7831 -0.3113  0.5418
  132OSM    C8S14247   1.520   3.623   6.906 -0.1460 -0.4111  0.1663
  132OSM    H8S14248   1.479   3.698   6.835 -1.3195 -1.7088 -0.5532
  132OSM    H8T14249   1.622   3.661   6.930 -0.4724 -0.0711  1.0040
  132OSM    C9S14250   1.441   3.619   7.038  0.6528 -0.4801 -0.0112
  132OSM    H9S14251   1.482   3.536   7.100 -0.0306 -2.4484 -2.1371
  132OSM    H9T14252   1.333   3.617   7.013  0.6770  2.2546 -0.5525
  132OSM   C10S14253   1.452   3.762   7.103  0.1490 -0.7840  0.9562
  132OSM   H10S14254   1.399   3.840   7.043 -1.4290 -2.1390  0.5676
  132OSM   H10T14255   1.561   3.783   7.100  0.1816 -1.0449  0.3025
  132OSM   C11S14256   1.403   3.774   7.250 -0.1969  0.3452 -0.5304
  132OSM   H11S14257   1.421   3.878   7.283  2.7428  0.1079 -1.2767
  132OSM   H11T14258   1.481   3.710   7.297  0.1957  1.9885  1.1048
  132OSM   C12S14259   1.267   3.733   7.292  0.1565  0.5370 -0.3253
  132OSM   H12S14260   1.254   3.622   7.288  0.7785  0.4298  0.5489
  132OSM   H12T14261   1.198   3.769   7.212  0.0194 -1.4262 -1.1241
  132OSM   C13S14262   1.220   3.797   7.419  0.0652  0.0160  0.1908
  132OSM   H13S14263   1.112   3.773   7.421 -0.0006  0.3444  0.5214
  132OSM   H13T14264   1.243   3.905   7.407  1.7247 -0.5655 -2.4133
  132OSM   C14S14265   1.302   3.754   7.543 -0.2235  0.5551 -0.1200
  132OSM   H14S14266   1.397   3.811   7.549 -0.3579  0.7770 -0.1073
  132OSM   H14T14267   1.337   3.649   7.532 -1.1156  0.1608  0.7772
  132OSM   C15S14268   1.232   3.767   7.672  0.4406 -0.1377 -0.3852
  132OSM   H15S14269   1.145   3.702   7.694  2.7839 -2.6796  1.7073
  132OSM   H15T14270   1.187   3.869   7.669 -1.7879 -1.0314  1.1576
  132OSM   C16S14271   1.319   3.759   7.792 -0.0384 -1.0178  0.5177
  132OSM   H16S14272   1.406   3.827   7.796 -1.1652  0.4112  0.9129
  132OSM   H16T14273   1.370   3.660   7.789  1.7140 -0.1186 -0.1795
  132OSM   C17S14274   1.240   3.773   7.916  0.5812  0.8572  0.0155
  132OSM   H17S14275   1.161   3.695   7.912  2.3130 -1.1320  2.8085
  132OSM   H17T14276   1.187   3.869   7.931 -2.2322 -0.5423 -0.6364
  132OSM   C18S14277   1.314   3.745   8.051  0.4394  0.0100  0.3443
  132OSM   H18S14278   1.231   3.760   8.124 -0.3391  3.1726 -1.0896
  132OSM   H18T14279   1.392   3.821   8.075  0.8727 -0.3926  0.2151
  132OSM   H18U14280   1.355   3.643   8.057  0.9661  0.1852 -0.2830
  132OSM    C1F14281   1.635   2.887   6.705 -0.1082  0.3524  0.0016
  132OSM     OF14282   1.729   2.843   6.642  0.2169  0.1328 -0.1445
  132OSM    C2F14283   1.606   2.834   6.838  0.5795 -0.4413  0.1585
  132OSM    H2F14284   1.575   2.727   6.831 -1.0833 -0.0412  1.3120
  132OSM    H2G14285   1.516   2.889   6.872 -0.5026 -2.4807  0.6813
  132OSM    C3F14286   1.731   2.839   6.929  0.5057 -0.4501 -0.0126
  132OSM    H3F14287   1.752   2.948   6.936 -3.2411  0.4292 -1.3580
  132OSM    H3G14288   1.819   2.786   6.887  0.7737 -0.9636  1.1706
  132OSM    C4F14289   1.706   2.800   7.081  0.3765 -0.3758  0.1676
  132OSM    H4F14290   1.668   2.699   7.105 -1.0923 -0.0410 -0.6781
  132OSM    H4G14291   1.630   2.874   7.114 -0.4432 -1.2507  0.2475
  132OSM    C5F14292   1.837   2.806   7.161 -0.4294 -0.3410  0.6742
  132OSM    H5F14293   1.887   2.905   7.150  0.9746 -1.0658  0.4110
  132OSM    H5G14294   1.905   2.731   7.115 -1.0707 -1.2697  1.2343
  132OSM    C6F14295   1.821   2.791   7.312  0.2785  0.3208  0.4195
  132OSM    H6F14296   1.778   2.690   7.332 -0.0239  0.1613 -0.9697
  132OSM    H6G14297   1.752   2.871   7.345  0.7868  1.3218 -0.8956
  132OSM    C7F14298   1.952   2.800   7.391 -0.7633 -0.3237  0.1862
  132OSM    H7F14299   2.009   2.888   7.356 -0.3684  0.0721  1.7636
  132OSM    H7G14300   2.002   2.703   7.371 -5.3472 -3.2726  1.9924
  132OSM    C8F14301   1.928   2.846   7.537  0.7561 -0.6300 -0.3139
  132OSM    H8F14302   1.851   2.926   7.536  1.8679  0.5387  2.0658
  132OSM    H8G14303   2.026   2.888   7.567  0.9393 -0.6941 -0.8154
  132OSM    C9F14304   1.876   2.741   7.632  0.0780 -1.0771  0.3825
  132OSM    H9F14305   1.769   2.717   7.634 -0.0738 -0.3165  2.1834
  132OSM   C10F14306   1.959   2.677   7.719 -0.1564  0.1343 -0.0648
  132OSM   H10F14307   1.900   2.610   7.783 -0.7037  0.5231 -0.1490
  132OSM   C11F14308   2.105   2.692   7.731 -0.3691 -0.1345  0.1719
  132OSM   H11F14309   2.117   2.785   7.790  0.5257 -0.4621  0.5168
  132OSM   H11G14310   2.150   2.720   7.634 -0.0882 -1.8870 -0.2272
  132OSM   C12F14311   2.182   2.572   7.785 -0.2924  0.7294 -0.4788
  132OSM   H12F14312   2.290   2.598   7.772  0.1739  0.0400  1.7745
  132OSM   H12G14313   2.163   2.484   7.719  1.9548  0.5818 -0.9959
  132OSM   C13F14314   2.155   2.526   7.924  0.4819 -0.1744  0.3636
  132OSM   H13F14315   2.072   2.453   7.918  0.5693 -0.4322  1.9563
  132OSM   H13G14316   2.122   2.614   7.983  1.4373 -1.1574  2.4288
  132OSM   C14F14317   2.274   2.459   7.994 -0.5261  0.4047  0.8888
  132OSM   H14F14318   2.369   2.516   8.000 -1.4592  1.9132  1.7661
  132OSM   H14G14319   2.301   2.366   7.939 -2.7876 -0.1041  0.5694
  132OSM   C15F14320   2.249   2.404   8.140 -0.2347 -0.6712  0.1329
  132OSM   H15F14321   2.307   2.310   8.150  0.0451 -0.4698  0.4199
  132OSM   H15G14322   2.143   2.376   8.160  0.0474 -1.4000  0.6353
  132OSM   C16F14323   2.317   2.502   8.245 -0.7318 -0.9260  0.5026
  132OSM   H16F14324   2.425   2.512   8.222  0.0882  0.6589  4.5385
  132OSM   H16G14325   2.291   2.472   8.349  0.8217  1.0650  1.4886
  132OSM   C17F14326   2.262   2.652   8.244 -0.0050  0.2385 -0.3084
  132OSM   H17F14327   2.153   2.634   8.248  0.1536 -0.4642  1.0672
  132OSM   H17G14328   2.280   2.693   8.142  1.6428  0.1173 -0.0831
  132OSM   C18F14329   2.291   2.758   8.350 -0.2977 -0.2339  0.8184
  132OSM   H18F14330   2.399   2.782   8.344 -0.9607  2.7950  0.2310
  132OSM   H18G14331   2.258   2.715   8.447 -0.3644 -0.8589  0.5279
  132OSM   H18H14332   2.234   2.850   8.323 -0.2517 -0.4139  0.0831
  133OSM      N14333   2.585   2.927   6.374 -0.2682 -0.4325  0.2626
  133OSM    C1514334   2.508   2.925   6.508 -0.1189 -0.0334  0.6201
  133OSM   H15A14335   2.533   3.012   6.566 -3.2188  0.6955  0.9773
  133OSM   H15B14336   2.522   2.843   6.577  1.6821  0.7992  1.2508
  133OSM   H15C14337   2.404   2.932   6.478 -0.2265  0.4824  1.1121
  133OSM    C1414338   2.566   3.064   6.315  0.0020  0.2068 -0.0112
  133OSM   H14A14339   2.624   3.080   6.225 -2.5161  0.7877 -1.5886
  133OSM   H14B14340   2.601   3.128   6.395  1.7044 -1.0062  0.2468
  133OSM   H14C14341   2.465   3.092   6.291  0.5425  1.8591 -0.4609
  133OSM    C1314342   2.728   2.910   6.407 -0.1992  0.6755 -0.0564
  133OSM   H13A14343   2.754   2.819   6.459  3.3587  2.7680  2.0116
  133OSM   H13B14344   2.772   2.987   6.467  0.8499 -2.1966  3.0194
  133OSM   H13C14345   2.784   2.901   6.314  0.4009 -1.3829  0.4649
  133OSM    C1214346   2.550   2.811   6.280 -0.7712  0.4394  0.0762
  133OSM   H12A14347   2.526   2.724   6.339  0.3351 -0.0547 -0.1736
  133OSM   H12B14348   2.635   2.785   6.219 -1.0077 -0.2994  0.0579
  133OSM    C1114349   2.440   2.847   6.179  0.2041  0.0307 -0.3247
  133OSM   H11A14350   2.439   2.768   6.100  1.6548  1.1327 -1.4798
  133OSM   H11B14351   2.465   2.936   6.118  1.7585  0.3376  0.7297
  133OSM      P14352   2.213   2.966   6.216  0.1968 -0.2750  0.0171
  133OSM    O1314353   2.276   3.081   6.154  0.1971  0.0728  0.2386
  133OSM    O1414354   2.089   2.913   6.145 -0.3846  0.3727  0.0742
  133OSM    O1114355   2.173   3.010   6.365  0.2951  0.1020  0.2758
  133OSM    O1214356   2.316   2.860   6.247 -0.5731  0.4476  0.2119
  133OSM    C1S14357   2.125   2.914   6.460 -0.0344  0.6516 -0.0076
  133OSM    H1S14358   2.200   2.834   6.481 -0.1568  0.4982 -0.1598
  133OSM    H1T14359   2.037   2.865   6.413  0.5973 -0.3337 -0.1790
  133OSM     NF14360   2.032   2.858   6.674 -0.5520 -0.5595 -0.2824
  133OSM    HNF14361   1.937   2.833   6.661 -0.7680  0.2443 -0.2782
  133OSM    C2S14362   2.079   2.972   6.596 -0.3338 -0.5239 -0.5158
  133OSM    H2S14363   2.166   3.013   6.650 -0.9189  0.8183 -0.5717
  133OSM    C3S14364   1.969   3.087   6.569 -0.2482  0.1502 -0.2779
  133OSM    H3S14365   1.874   3.043   6.531 -0.4481  0.3505 -0.0150
  133OSM     O314366   2.000   3.179   6.470 -0.4545 -0.5877 -0.5680
  133OSM    HO314367   2.079   3.146   6.426  0.1915 -0.7608  0.7009
  133OSM    C4S14368   1.928   3.140   6.705  0.0486  0.5245 -0.4398
  133OSM    H4S14369   1.877   3.062   6.764  0.9449  0.8642  0.8176
  133OSM    C5S14370   1.940   3.266   6.755  0.3698  0.1794 -0.2881
  133OSM    H5S14371   1.987   3.341   6.690 -0.7371 -0.4639 -1.8675
  133OSM    C6S14372   1.893   3.311   6.884 -0.2114 -0.3336 -0.1110
  133OSM    H6S14373   1.783   3.301   6.871 -0.2761  0.1924  0.0185
  133OSM    H6T14374   1.905   3.421   6.897  1.8750 -0.5152 -0.2660
  133OSM    C7S14375   1.945   3.227   7.011 -0.5431  0.8041  0.4546
  133OSM    H7S14376   2.050   3.207   6.980 -0.3194  0.5075  1.3878
  133OSM    H7T14377   1.892   3.129   7.018  1.6170 -0.7791 -3.3763
  133OSM    C8S14378   1.943   3.296   7.144  0.0539 -0.1697 -0.5458
  133OSM    H8S14379   1.846   3.347   7.159  0.6734  0.8827 -0.0673
  133OSM    H8T14380   2.024   3.372   7.142  1.3844 -1.5626 -0.6166
  133OSM    C9S14381   1.964   3.210   7.266  0.0562 -0.1971  0.1525
  133OSM    H9S14382   2.064   3.160   7.265  1.0274  1.7284 -1.3190
  133OSM    H9T14383   1.883   3.133   7.264 -0.1308  0.0084 -0.1417
  133OSM   C10S14384   1.963   3.293   7.394 -0.7590 -0.1065  0.1831
  133OSM   H10S14385   1.871   3.356   7.389 -0.4418  0.2127 -1.8801
  133OSM   H10T14386   2.054   3.355   7.394 -0.4378 -0.5706  0.6307
  133OSM   C11S14387   1.956   3.195   7.510 -0.2582  0.3423  0.1514
  133OSM   H11S14388   2.021   3.111   7.478 -0.8713  0.6191 -1.8923
  133OSM   H11T14389   1.848   3.175   7.521 -0.0935 -0.0072  1.1248
  133OSM   C12S14390   2.011   3.259   7.640 -0.6518 -0.4489 -0.3484
  133OSM   H12S14391   1.949   3.344   7.676  0.4049  0.8675 -1.6326
  133OSM   H12T14392   2.111   3.303   7.621 -2.1776  2.2141 -2.5696
  133OSM   C13S14393   2.024   3.162   7.762 -0.2685  0.1218  0.8322
  133OSM   H13S14394   2.102   3.199   7.832  1.1629  0.3441 -0.8437
  133OSM   H13T14395   2.051   3.060   7.727  2.9266  0.5143  2.0208
  133OSM   C14S14396   1.888   3.142   7.830  0.1812  0.7212  0.3547
  133OSM   H14S14397   1.801   3.124   7.763  0.4113 -1.8882  0.7121
  133OSM   H14T14398   1.856   3.240   7.874 -0.4323  0.2005  1.0845
  133OSM   C15S14399   1.890   3.048   7.947  0.0085  0.2062 -0.8138
  133OSM   H15S14400   1.965   3.094   8.015 -1.8603 -0.3733  1.6846
  133OSM   H15T14401   1.925   2.947   7.914  1.3214  0.1242  0.7538
  133OSM   C16S14402   1.747   3.044   8.010  0.3421  0.3100  0.2470
  133OSM   H16S14403   1.688   3.001   7.926 -0.9063 -0.7020  1.6315
  133OSM   H16T14404   1.711   3.148   8.020  0.4105  0.5448 -1.6668
  133OSM   C17S14405   1.747   2.959   8.138  0.8088 -0.0708  0.0785
  133OSM   H17S14406   1.743   2.851   8.111  0.1781 -0.4045  1.4419
  133OSM   H17T14407   1.651   2.971   8.193  0.4621  1.5705 -0.8477
  133OSM   C18S14408   1.857   2.984   8.246  0.2070  0.0943 -0.7588
  133OSM   H18S14409   1.843   3.089   8.279 -1.6887 -0.6309  0.8637
  133OSM   H18T14410   1.960   2.976   8.206  1.1370  1.6292  1.2093
  133OSM   H18U14411   1.847   2.918   8.335  4.2297 -0.1591 -0.4133
  133OSM    C1F14412   2.118   2.766   6.724 -0.8830 -0.4648 -0.2983
  133OSM     OF14413   2.244   2.777   6.714  0.1432 -0.0497 -0.1548
  133OSM    C2F14414   2.061   2.648   6.797  0.1978  0.3924 -0.5428
  133OSM    H2F14415   1.980   2.602   6.738  1.6314 -0.4971 -1.8599
  133OSM    H2G14416   2.022   2.690   6.892 -2.8558 -2.5866 -0.3789
  133OSM    C3F14417   2.149   2.532   6.839  0.3699  0.4772  0.1293
  133OSM    H3F14418   2.246   2.577   6.868  0.2957  0.3283  0.6122
  133OSM    H3G14419   2.185   2.482   6.746  1.9370 -0.6118  1.3106
  133OSM    C4F14420   2.102   2.440   6.959 -0.2548 -0.0149 -0.1010
  133OSM    H4F14421   2.171   2.354   6.953 -0.3801 -0.0342 -1.4075
  133OSM    H4G14422   1.997   2.406   6.948 -0.0552 -0.2393 -1.3864
  133OSM    C5F14423   2.104   2.500   7.093  0.1642  0.4085 -0.5069
  133OSM    H5F14424   2.025   2.577   7.083  0.3065  0.5657 -0.4338
  133OSM    H5G14425   2.196   2.561   7.109  0.1066  0.2336  0.4978
  133OSM    C6F14426   2.059   2.411   7.209 -0.4018 -0.4604 -0.1453
  133OSM    H6F14427   1.994   2.334   7.163 -1.1840 -0.1317  0.4170
  133OSM    H6G14428   2.006   2.483   7.274 -1.0179 -1.7266  0.7623
  133OSM    C7F14429   2.179   2.331   7.272 -0.2055  0.7743 -0.1068
  133OSM    H7F14430   2.251   2.389   7.334 -1.1562 -0.0596  1.8330
  133OSM    H7G14431   2.226   2.279   7.186  0.6696  1.9024 -0.3180
  133OSM    C8F14432   2.128   2.235   7.379  0.9419 -0.7235  0.1568
  133OSM    H8F14433   2.033   2.188   7.343  1.2603 -0.2649 -1.3368
  133OSM    H8G14434   2.099   2.279   7.477 -0.5235 -0.4239 -0.3958
  133OSM    C9F14435   2.226   2.121   7.390  0.8438 -0.0668  0.0662
  133OSM    H9F14436   2.231   2.053   7.304 -0.3506  0.4663 -0.4421
  133OSM   C10F14437   2.292   2.089   7.503 -0.1638  0.0876 -0.1553
  133OSM   H10F14438   2.350   1.996   7.504  1.2957  0.9969  1.7850
  133OSM   C11F14439   2.281   2.148   7.639  0.2453  0.6579  0.4633
  133OSM   H11F14440   2.217   2.239   7.637  0.8257  1.0595  0.0131
  133OSM   H11G14441   2.369   2.192   7.690 -1.2733 -0.1661  3.8999
  133OSM   C12F14442   2.203   2.061   7.731 -0.3232 -0.4054 -0.2267
  133OSM   H12F14443   2.242   1.958   7.733  0.1624 -0.2070  0.8935
  133OSM   H12G14444   2.106   2.068   7.678 -0.2816 -0.3105 -0.2927
  133OSM   C13F14445   2.165   2.122   7.864 -0.2141 -0.6000 -0.7770
  133OSM   H13F14446   2.130   2.227   7.867  1.7284  0.0124  1.0135
  133OSM   H13G14447   2.259   2.127   7.921  0.0515 -1.7662 -1.0947
  133OSM   C14F14448   2.073   2.024   7.943 -0.0920  0.8707  0.1247
  133OSM   H14F14449   2.108   1.919   7.948 -0.4539  0.6737 -1.2129
  133OSM   H14G14450   1.972   2.021   7.895 -0.3998  0.6822  0.7764
  133OSM   C15F14451   2.068   2.065   8.092 -0.1893  0.2878  0.3537
  133OSM   H15F14452   2.031   2.169   8.101 -0.7144  0.1393 -0.0204
  133OSM   H15G14453   2.168   2.043   8.136 -0.4714 -1.4649  0.1607
  133OSM   C16F14454   1.974   1.968   8.168  1.0822 -0.0351 -0.0210
  133OSM   H16F14455   2.029   1.872   8.172  2.1474  0.5384 -0.7217
  133OSM   H16G14456   1.879   1.959   8.112 -0.8747 -0.0748  3.1884
  133OSM   C17F14457   1.936   2.027   8.304 -0.0840  0.4833  0.6330
  133OSM   H17F14458   1.895   2.128   8.283  0.2620  0.0817 -2.2018
  133OSM   H17G14459   2.025   2.028   8.370  0.1102  0.3866  0.3735
  133OSM   C18F14460   1.821   1.941   8.366 -0.3449  0.7617  0.1640
  133OSM   H18F14461   1.858   1.836   8.361  0.5959  1.1044 -0.0902
  133OSM   H18G14462   1.730   1.953   8.303 -1.9370 -0.3730  2.2166
  133OSM   H18H14463   1.808   1.953   8.475  0.3045  0.2631  0.3025
  134OSM      N14464   2.642   0.164   6.495  0.2405 -0.7853 -0.9578
  134OSM    C1514465   2.696   0.259   6.388  0.1547  0.7611  0.3243
  134OSM   H15A14466   2.801   0.279   6.401  0.0034  1.0868  1.0466
  134OSM   H15B14467   2.638   0.349   6.399 -0.6108  0.2535  0.5223
  134OSM   H15C14468   2.667   0.210   6.296  1.0566 -2.5711  1.7253
  134OSM    C1414469   2.665   0.238   6.623 -0.1876 -0.0246  0.0000
  134OSM   H14A14470   2.627   0.338   6.617  0.8278  0.4156  0.8285
  134OSM   H14B14471   2.767   0.229   6.657 -0.7904  0.5403  2.0577
  134OSM   H14C14472   2.619   0.185   6.705  0.8281  1.5095  1.5816
  134OSM    C1314473   2.496   0.139   6.461  0.1382  0.3481  0.5320
  134OSM   H13A14474   2.454   0.239   6.455  1.3460  0.8286 -0.1451
  134OSM   H13B14475   2.442   0.091   6.541 -0.4119 -1.5078 -0.9358
  134OSM   H13C14476   2.480   0.068   6.381  0.9799  1.4852 -0.6745
  134OSM    C1214477   2.712   0.036   6.502 -0.8390 -0.3283 -0.3337
  134OSM   H12A14478   2.696  -0.020   6.411  0.5992 -4.8076  2.0178
  134OSM   H12B14479   2.672  -0.016   6.588  0.1902 -0.3796  0.1230
  134OSM    C1114480   2.859   0.052   6.505 -0.0561 -0.2830 -0.2384
  134OSM   H11A14481   2.888   0.120   6.588 -0.3648  0.0071 -0.3660
  134OSM   H11B14482   2.905   0.101   6.417 -0.8091  1.5354  0.3695
  134OSM      P14483   2.948  -0.162   6.390  0.2988  0.2886  0.1253
  134OSM    O1314484   2.838  -0.156   6.294  0.5968  0.0629 -0.2526
  134OSM    O1414485   3.083  -0.128   6.337  0.5295 -0.0360  0.1058
  134OSM    O1114486   2.950  -0.310   6.457 -0.2203 -0.3407 -0.1106
  134OSM    O1214487   2.919  -0.081   6.520  0.0074  0.6889 -0.1866
  134OSM    C1S14488   2.971  -0.333   6.599  0.4878 -0.4996  0.0005
  134OSM    H1S14489   2.911  -0.261   6.657  0.9376 -0.1741  0.0657
  134OSM    H1T14490   3.079  -0.317   6.623  0.5525  2.5456 -1.9789
  134OSM     NF14491   2.986  -0.506   6.776 -0.0466 -0.3444 -0.1726
  134OSM    HNF14492   3.076  -0.546   6.793  0.4941  0.7619 -0.3905
  134OSM    C2S14493   2.951  -0.477   6.637  0.1509  0.0455  0.4781
  134OSM    H2S14494   2.841  -0.490   6.635 -0.2592  3.4688 -1.6364
  134OSM    C3S14495   3.010  -0.573   6.536 -0.7060  0.7318  0.3902
  134OSM    H3S14496   3.119  -0.561   6.521 -0.4621 -1.4365  0.2395
  134OSM     O314497   2.945  -0.572   6.410 -0.3148 -0.6834  0.5680
  134OSM    HO314498   2.874  -0.509   6.424 -0.3357 -0.1040 -2.0418
  134OSM    C4S14499   2.997  -0.716   6.592  0.6192 -0.5348 -0.3573
  134OSM    H4S14500   2.898  -0.735   6.637  0.4215  2.5795  0.6670
  134OSM    C5S14501   3.082  -0.815   6.579 -0.4121  0.3475  0.2526
  134OSM    H5S14502   3.182  -0.804   6.535 -1.6025 -0.1857 -2.7012
  134OSM    C6S14503   3.048  -0.946   6.642  0.0158  0.3578 -0.6895
  134OSM    H6S14504   3.002  -1.015   6.569 -1.1136  0.1230  0.2353
  134OSM    H6T14505   2.971  -0.936   6.722  2.1111  0.1417  1.3926
  134OSM    C7S14506   3.167  -1.003   6.721 -0.6610  0.4310  0.4231
  134OSM    H7S14507   3.254  -1.038   6.660 -0.4946  1.9127 -0.2044
  134OSM    H7T14508   3.140  -1.091   6.782 -2.0932 -0.8782 -2.0056
  134OSM    C8S14509   3.229  -0.908   6.833 -0.8753  0.2443 -0.0681
  134OSM    H8S14510   3.283  -0.819   6.794 -0.3888 -1.4755 -3.5675
  134OSM    H8T14511   3.316  -0.969   6.867 -1.1347  0.6326  1.3117
  134OSM    C9S14512   3.132  -0.877   6.951  0.1699  0.3308  0.1837
  134OSM    H9S14513   3.093  -0.970   6.997  0.1910  0.0719 -0.3256
  134OSM    H9T14514   3.050  -0.811   6.918  0.1324  0.8648  1.3297
  134OSM   C10S14515   3.198  -0.805   7.071  0.0905 -0.0646 -0.1249
  134OSM   H10S14516   3.229  -0.701   7.050  0.6487 -0.0084  0.9140
  134OSM   H10T14517   3.296  -0.855   7.086 -1.0876 -1.8901  1.8016
  134OSM   C11S14518   3.107  -0.817   7.192  0.1448  0.2533  0.2043
  134OSM   H11S14519   3.102  -0.920   7.233  1.9214  0.4521  1.0038
  134OSM   H11T14520   3.003  -0.783   7.174 -0.0986 -0.2951  0.5753
  134OSM   C12S14521   3.168  -0.732   7.313 -0.0600  0.1086  0.1015
  134OSM   H12S14522   3.174  -0.623   7.291  1.0659  0.1054  0.3768
  134OSM   H12T14523   3.274  -0.763   7.323 -0.3929 -1.8697 -2.0851
  134OSM   C13S14524   3.090  -0.745   7.445 -0.1023 -0.4149  0.0499
  134OSM   H13S14525   3.076  -0.851   7.473 -1.5642  0.3744  2.4210
  134OSM   H13T14526   2.988  -0.704   7.433 -0.2267 -0.8754 -0.4851
  134OSM   C14S14527   3.160  -0.666   7.562  0.1815  0.0282  0.1676
  134OSM   H14S14528   3.150  -0.557   7.546  1.4229 -0.0383 -1.1451
  134OSM   H14T14529   3.269  -0.684   7.570  0.1483  0.6134  2.5696
  134OSM   C15S14530   3.092  -0.697   7.691  0.4978 -0.1378 -0.0574
  134OSM   H15S14531   3.101  -0.801   7.730 -0.0300 -0.5121 -0.9172
  134OSM   H15T14532   2.983  -0.685   7.674  1.1688  3.7305 -2.0536
  134OSM   C16S14533   3.129  -0.598   7.810 -0.4406 -0.4831  0.6062
  134OSM   H16S14534   3.070  -0.621   7.902 -2.2986  2.6942  0.3139
  134OSM   H16T14535   3.087  -0.498   7.785 -0.0407 -0.7360 -1.0717
  134OSM   C17S14536   3.272  -0.587   7.847 -0.2137  0.4216 -0.0374
  134OSM   H17S14537   3.277  -0.502   7.918 -0.2019 -0.3609  0.9222
  134OSM   H17T14538   3.320  -0.542   7.758 -2.3105 -2.9154 -3.0054
  134OSM   C18S14539   3.340  -0.716   7.879 -0.4012  0.8792  0.0692
  134OSM   H18S14540   3.447  -0.700   7.905  0.0222 -1.1149 -0.3133
  134OSM   H18T14541   3.336  -0.769   7.781 -1.6719 -1.3570  1.2812
  134OSM   H18U14542   3.296  -0.773   7.964 -0.7707  1.5346  0.3151
  134OSM    C1F14543   2.910  -0.465   6.881  0.4433  0.1785 -0.4436
  134OSM     OF14544   2.802  -0.419   6.850  0.0921  0.2203  0.2220
  134OSM    C2F14545   2.944  -0.500   7.027  0.4933  0.5975 -0.7053
  134OSM    H2F14546   3.049  -0.466   7.041  0.4848  0.0161  1.0001
  134OSM    H2G14547   2.944  -0.610   7.045 -0.5590  0.0741 -3.6784
  134OSM    C3F14548   2.863  -0.424   7.136 -0.3261 -0.4408  0.4662
  134OSM    H3F14549   2.759  -0.452   7.109 -0.7667  1.7827 -0.2799
  134OSM    H3G14550   2.870  -0.314   7.118 -1.9194 -0.7541 -2.4035
  134OSM    C4F14551   2.899  -0.469   7.278 -0.5759  0.0711  1.0051
  134OSM    H4F14552   3.005  -0.441   7.299 -1.1345  2.0161  1.3273
  134OSM    H4G14553   2.889  -0.580   7.280  0.1242 -0.1164 -2.3434
  134OSM    C5F14554   2.802  -0.404   7.378 -0.1831 -0.0827 -0.2514
  134OSM    H5F14555   2.694  -0.420   7.360 -0.6141  1.2770  1.0384
  134OSM    H5G14556   2.813  -0.294   7.368 -0.6790 -0.0857 -0.8229
  134OSM    C6F14557   2.842  -0.437   7.522  0.0357  0.0418  0.6375
  134OSM    H6F14558   2.950  -0.426   7.545  0.5426 -3.0263 -0.0900
  134OSM    H6G14559   2.818  -0.542   7.548 -2.9700  0.7237  0.8743
  134OSM    C7F14560   2.768  -0.356   7.631 -1.1040  0.5696  0.0063
  134OSM    H7F14561   2.660  -0.382   7.631 -0.4862 -2.0538 -0.9335
  134OSM    H7G14562   2.784  -0.248   7.606 -1.3791  0.6816  0.3096
  134OSM    C8F14563   2.832  -0.385   7.761 -0.0913 -0.3215 -0.8599
  134OSM    H8F14564   2.937  -0.349   7.754 -1.2333  2.7459 -3.0185
  134OSM    H8G14565   2.842  -0.494   7.783 -0.1961  0.0967  1.3746
  134OSM    C9F14566   2.754  -0.326   7.878 -0.5756 -0.3273 -0.1696
  134OSM    H9F14567   2.682  -0.249   7.848  0.0821 -0.2042 -1.4666
  134OSM   C10F14568   2.755  -0.355   8.009 -0.3853 -0.4756  0.0284
  134OSM   H10F14569   2.687  -0.306   8.081 -1.0083  0.6969 -1.3259
  134OSM   C11F14570   2.852  -0.459   8.062 -0.0148  0.0054  0.2157
  134OSM   H11F14571   2.864  -0.550   7.999  1.5251  0.4945 -0.2064
  134OSM   H11G14572   2.815  -0.475   8.166  1.6518  2.1142  1.1576
  134OSM   C12F14573   2.991  -0.400   8.083  0.9840  0.6690  0.5278
  134OSM   H12F14574   2.994  -0.298   8.128  3.5232  0.6774  0.4365
  134OSM   H12G14575   3.052  -0.392   7.990  2.6651 -0.7045  1.4781
  134OSM   C13F14576   3.090  -0.484   8.173 -0.2676  0.1480 -0.7387
  134OSM   H13F14577   3.181  -0.423   8.193  0.0136  0.0560 -1.6924
  134OSM   H13G14578   3.132  -0.565   8.109 -2.5668 -2.4509  0.9488
  134OSM   C14F14579   3.030  -0.526   8.306  0.0471  0.1692 -0.5131
  134OSM   H14F14580   2.971  -0.615   8.276 -0.5114  1.1129 -2.2730
  134OSM   H14G14581   2.969  -0.440   8.339 -1.1561 -0.5334 -0.8678
  134OSM   C15F14582   3.136  -0.571   8.415  0.1506 -0.1716  0.0359
  134OSM   H15F14583   3.082  -0.569   8.512  1.5206 -1.1015  0.8464
  134OSM   H15G14584   3.210  -0.489   8.418 -0.6650  0.5282  1.5141
  134OSM   C16F14585   3.199  -0.714   8.390  0.8017  0.2314  0.1206
  134OSM   H16F14586   3.254  -0.703   8.294  0.1479  1.2208 -0.1458
  134OSM   H16G14587   3.123  -0.791   8.364  3.0801 -1.4342 -1.8521
  134OSM   C17F14588   3.289  -0.761   8.502  0.1003 -0.2688  0.7986
  134OSM   H17F14589   3.223  -0.769   8.592 -0.0181 -0.3168  0.7079
  134OSM   H17G14590   3.367  -0.684   8.522 -0.4344  1.2586 -2.5923
  134OSM   C18F14591   3.357  -0.889   8.483  0.1198 -0.0070 -0.0658
  134OSM   H18F14592   3.447  -0.889   8.548  1.6471  0.5034 -2.1095
  134OSM   H18G14593   3.410  -0.900   8.386 -0.3378  0.9728 -0.4263
  134OSM   H18H14594   3.299  -0.982   8.499  0.5935 -0.1573  0.8043
  135OSM      N14595   2.609   6.283   6.047  0.1384 -0.2430  0.2615
  135OSM    C1514596   2.642   6.165   5.962 -0.1326 -0.7980  0.6680
  135OSM   H15A14597   2.558   6.102   5.938  0.1421 -0.9672  0.1547
  135OSM   H15B14598   2.717   6.102   6.008 -0.0002 -1.7958 -0.8842
  135OSM   H15C14599   2.667   6.202   5.864 -2.1372  1.7391  1.0661
  135OSM    C1414600   2.737   6.358   6.082  0.5247  0.8885  0.3087
  135OSM   H14A14601   2.790   6.381   5.991  2.2026  1.1898  1.3398
  135OSM   H14B14602   2.797   6.298   6.150  0.8227 -2.2725 -2.6499
  135OSM   H14C14603   2.715   6.456   6.123  2.1576  1.5380 -0.3255
  135OSM    C1314604   2.523   6.384   5.982  0.5774  0.1021 -0.1426
  135OSM   H13A14605   2.499   6.467   6.047 -1.1917  1.1871 -2.1151
  135OSM   H13B14606   2.427   6.344   5.953 -1.0110  3.4137  0.3284
  135OSM   H13C14607   2.570   6.413   5.890  2.2346 -0.5070  0.4845
  135OSM    C1214608   2.545   6.242   6.176 -0.9777  0.0301  0.0511
  135OSM   H12A14609   2.610   6.163   6.211 -0.6358  0.5545  0.6070
  135OSM   H12B14610   2.450   6.192   6.160 -0.7424 -0.2196 -0.5896
  135OSM    C1114611   2.519   6.350   6.282 -0.9653 -0.5164 -0.3439
  135OSM   H11A14612   2.588   6.438   6.283 -0.4046 -0.9437  1.5510
  135OSM   H11B14613   2.542   6.302   6.380 -0.7996 -1.2091 -0.7164
  135OSM      P14614   2.342   6.539   6.329 -0.4088 -0.0524 -0.2883
  135OSM    O1314615   2.425   6.653   6.287 -0.1816  0.0384 -0.2062
  135OSM    O1414616   2.198   6.551   6.309 -0.3029 -0.1862  0.1848
  135OSM    O1114617   2.374   6.501   6.477 -0.2180 -0.1992  0.2867
  135OSM    O1214618   2.387   6.406   6.251 -0.5230  0.2724  0.2455
  135OSM    C1S14619   2.494   6.548   6.551 -0.6049 -0.3288 -0.1212
  135OSM    H1S14620   2.487   6.659   6.558  0.2117 -0.3490  1.0706
  135OSM    H1T14621   2.587   6.513   6.502 -0.3618  0.7362 -0.4245
  135OSM     NF14622   2.615   6.542   6.766 -0.0210 -0.0330 -0.1074
  135OSM    HNF14623   2.691   6.480   6.781  0.6758  0.6641 -0.7244
  135OSM    C2S14624   2.484   6.507   6.701 -0.6535 -0.9132  0.1861
  135OSM    H2S14625   2.404   6.562   6.754 -0.5100 -2.3863  1.9792
  135OSM    C3S14626   2.449   6.363   6.726 -0.2038 -0.0810 -0.5955
  135OSM    H3S14627   2.527   6.287   6.707 -1.2653 -0.6755 -2.7844
  135OSM     O314628   2.343   6.302   6.648 -0.2347  0.6892 -0.4862
  135OSM    HO314629   2.330   6.367   6.579  0.6039 -0.2674 -1.5562
  135OSM    C4S14630   2.416   6.337   6.874 -0.1299  0.1628  0.1658
  135OSM    H4S14631   2.510   6.313   6.926  2.0326  3.4928 -2.0597
  135OSM    C5S14632   2.304   6.365   6.947 -0.1427 -0.1380  0.4253
  135OSM    H5S14633   2.222   6.416   6.893 -0.2721 -1.9776 -1.1624
  135OSM    C6S14634   2.287   6.350   7.099  0.1183  0.5231  0.5289
  135OSM    H6S14635   2.367   6.282   7.138 -0.3488 -0.3961 -0.0883
  135OSM    H6T14636   2.182   6.318   7.117  0.2894  0.5530  1.6154
  135OSM    C7S14637   2.299   6.475   7.183 -0.2437  0.9154 -0.1665
  135OSM    H7S14638   2.206   6.534   7.172 -0.8358  0.3818  1.7877
  135OSM    H7T14639   2.389   6.527   7.141  0.0147 -0.5862 -1.5400
  135OSM    C8S14640   2.318   6.436   7.329  0.7046 -0.2575  0.5122
  135OSM    H8S14641   2.417   6.386   7.341 -0.3983 -2.9011 -0.9194
  135OSM    H8T14642   2.251   6.351   7.352  0.9121 -0.4053  0.5745
  135OSM    C9S14643   2.284   6.540   7.422 -0.4147 -0.2425 -0.5068
  135OSM    H9S14644   2.176   6.563   7.419 -0.7299 -1.5071  0.5062
  135OSM    H9T14645   2.328   6.638   7.395  2.1573 -1.0798  0.4773
  135OSM   C10S14646   2.322   6.500   7.569 -0.1934  0.1311 -0.1667
  135OSM   H10S14647   2.431   6.509   7.588 -0.2379 -1.3279  0.9288
  135OSM   H10T14648   2.296   6.393   7.584  0.1080  0.2165  1.0476
  135OSM   C11S14649   2.253   6.594   7.663  0.5114 -0.5342  0.3405
  135OSM   H11S14650   2.144   6.573   7.672  0.1244  1.5898  0.8378
  135OSM   H11T14651   2.268   6.696   7.623  0.0202 -0.6526 -0.1497
  135OSM   C12S14652   2.308   6.600   7.809  1.0539 -0.0085  0.6583
  135OSM   H12S14653   2.418   6.616   7.807  0.6167  3.2384 -2.3890
  135OSM   H12T14654   2.282   6.508   7.866 -0.1678 -2.1394 -3.1167
  135OSM   C13S14655   2.249   6.717   7.889  0.0747  0.3419  0.2903
  135OSM   H13S14656   2.141   6.697   7.904 -0.6585  2.0582 -2.4618
  135OSM   H13T14657   2.244   6.811   7.831  1.5900  1.4103  1.8220
  135OSM   C14S14658   2.317   6.749   8.021 -0.0978  0.1503 -0.2318
  135OSM   H14S14659   2.414   6.786   7.983  0.4402  1.5986  2.4523
  135OSM   H14T14660   2.335   6.660   8.085  0.6930  0.6953  0.2982
  135OSM   C15S14661   2.255   6.867   8.088 -0.7978 -0.1029  0.1730
  135OSM   H15S14662   2.147   6.851   8.106 -1.3620  2.0420 -1.0991
  135OSM   H15T14663   2.254   6.950   8.014 -0.2382 -0.7924 -0.6178
  135OSM   C16S14664   2.312   6.902   8.226  0.2870 -0.4325 -1.1209
  135OSM   H16S14665   2.271   6.991   8.277  1.5357 -0.4331 -0.0833
  135OSM   H16T14666   2.421   6.922   8.220 -0.1062  1.9524 -0.7936
  135OSM   C17S14667   2.295   6.789   8.327 -0.1244  0.1690 -0.1829
  135OSM   H17S14668   2.355   6.702   8.293  0.1812 -0.2588  1.4126
  135OSM   H17T14669   2.188   6.759   8.328  0.9058 -3.7505  1.0618
  135OSM   C18S14670   2.356   6.823   8.459  0.6607 -0.1638  0.3948
  135OSM   H18S14671   2.360   6.734   8.526  2.2721  0.2880  0.9068
  135OSM   H18T14672   2.310   6.912   8.507  0.6292  0.5573 -0.9711
  135OSM   H18U14673   2.464   6.846   8.449  0.4130  0.2925 -1.2663
  135OSM    C1F14674   2.641   6.667   6.800  0.1442 -0.7035 -1.0457
  135OSM     OF14675   2.559   6.752   6.771  0.6872  0.0967  0.1651
  135OSM    C2F14676   2.760   6.688   6.875  0.2343 -1.0036  0.3549
  135OSM    H2F14677   2.846   6.645   6.819  1.6216  1.0091  0.8714
  135OSM    H2G14678   2.754   6.626   6.966 -0.8240  0.1552  1.0945
  135OSM    C3F14679   2.802   6.837   6.915 -0.2338 -0.1969 -0.0294
  135OSM    H3F14680   2.820   6.896   6.823  0.8892  1.3274  1.1557
  135OSM    H3G14681   2.902   6.806   6.953 -0.3809 -0.1516  0.3988
  135OSM    C4F14682   2.718   6.896   7.028 -0.0427  0.5159 -0.1332
  135OSM    H4F14683   2.620   6.939   6.998  1.0563  2.2609 -1.3768
  135OSM    H4G14684   2.783   6.980   7.060  1.6232  0.1866 -2.4505
  135OSM    C5F14685   2.686   6.797   7.140 -0.0334 -0.0778 -0.2009
  135OSM    H5F14686   2.763   6.717   7.148  0.7559  0.7344  0.5136
  135OSM    H5G14687   2.590   6.745   7.119 -0.7634  0.5208  1.5098
  135OSM    C6F14688   2.697   6.879   7.273  0.2065 -0.7536  0.1482
  135OSM    H6F14689   2.618   6.957   7.282  0.2643 -0.6224 -0.4429
  135OSM    H6G14690   2.792   6.936   7.283 -0.8183  1.1621 -0.5265
  135OSM    C7F14691   2.671   6.789   7.400 -0.7545 -0.2099 -0.0596
  135OSM    H7F14692   2.768   6.745   7.432 -0.4392  0.5412  0.0225
  135OSM    H7G14693   2.596   6.709   7.381 -0.9652 -0.1541  0.5409
  135OSM    C8F14694   2.611   6.875   7.515  0.9264 -0.6714 -0.5076
  135OSM    H8F14695   2.507   6.900   7.487 -0.1155 -1.2668  2.6313
  135OSM    H8G14696   2.662   6.974   7.525 -0.3269  0.2224 -2.6464
  135OSM    C9F14697   2.610   6.795   7.644 -1.2135 -0.1136  0.7323
  135OSM    H9F14698   2.534   6.715   7.646 -1.7536  0.3562 -0.2194
  135OSM   C10F14699   2.682   6.817   7.753 -0.0525 -0.1488  0.6754
  135OSM   H10F14700   2.669   6.756   7.843 -0.3890  1.2635  1.5843
  135OSM   C11F14701   2.776   6.937   7.767 -0.0107  0.3200  0.0894
  135OSM   H11F14702   2.752   7.031   7.712 -1.7515 -1.4297 -2.2097
  135OSM   H11G14703   2.875   6.906   7.726  0.6827  2.2836  0.1971
  135OSM   C12F14704   2.793   6.991   7.915 -0.1739 -0.9739  0.1805
  135OSM   H12F14705   2.696   7.038   7.941  0.4112  0.4770 -0.2150
  135OSM   H12G14706   2.875   7.067   7.916  0.0039 -1.1565 -0.4033
  135OSM   C13F14707   2.841   6.894   8.022  0.2950  0.0900  0.4587
  135OSM   H13F14708   2.940   6.859   7.986 -1.1410 -2.7719 -0.9418
  135OSM   H13G14709   2.779   6.802   8.028 -0.7396  0.4563 -3.6618
  135OSM   C14F14710   2.858   6.955   8.158  0.1316  0.7587  0.4378
  135OSM   H14F14711   2.759   7.001   8.176 -2.0620 -3.0515 -1.2813
  135OSM   H14G14712   2.930   7.040   8.159 -0.4576  1.2537  1.0079
  135OSM   C15F14713   2.893   6.848   8.263 -0.5536  0.4567 -0.1248
  135OSM   H15F14714   2.962   6.778   8.210 -0.0374  0.4143  0.5893
  135OSM   H15G14715   2.802   6.789   8.287 -0.1300  0.0105  0.4316
  135OSM   C16F14716   2.959   6.899   8.389  0.0913 -0.0882  0.1317
  135OSM   H16F14717   2.896   6.984   8.422 -0.4181  0.2750 -1.6820
  135OSM   H16G14718   3.064   6.930   8.368 -0.7425  1.7633 -1.5097
  135OSM   C17F14719   2.946   6.796   8.503  0.4577 -0.0630  0.9705
  135OSM   H17F14720   2.839   6.768   8.506  0.5724 -0.5987  0.2228
  135OSM   H17G14721   2.990   6.837   8.596 -0.9999  2.7037  0.4977
  135OSM   C18F14722   3.021   6.661   8.475 -0.8220  0.3148 -0.3645
  135OSM   H18F14723   2.990   6.631   8.373  1.7319  1.8915 -1.6475
  135OSM   H18G14724   3.003   6.579   8.548 -2.6873 -0.7397 -1.9711
  135OSM   H18H14725   3.132   6.674   8.480 -0.8582  1.1741 -1.5674
  136OSM      N14726   0.570   0.882   5.788 -0.3079 -0.7641 -0.5128
  136OSM    C1514727   0.527   0.736   5.792  0.3628  0.0318 -0.0278
  136OSM   H15A14728   0.434   0.732   5.847  1.0604 -1.0766  1.0947
  136OSM   H15B14729   0.597   0.669   5.841  3.1818  2.5022 -0.4887
  136OSM   H15C14730   0.495   0.701   5.696  0.3343  0.1593 -0.0643
  136OSM    C1414731   0.718   0.880   5.752  0.2385  0.5793  0.3415
  136OSM   H14A14732   0.728   0.841   5.652 -0.2726  3.7153 -0.9894
  136OSM   H14B14733   0.774   0.817   5.819 -0.0061  0.4383  0.4134
  136OSM   H14C14734   0.762   0.979   5.753  0.8764  0.3272 -1.5991
  136OSM    C1314735   0.495   0.969   5.683  1.0258  0.1216 -0.1322
  136OSM   H13A14736   0.393   0.989   5.710  1.3946 -1.1785  2.4310
  136OSM   H13B14737   0.512   0.931   5.584 -0.1137 -0.7188 -0.0096
  136OSM   H13C14738   0.540   1.067   5.676 -3.4668  2.2786 -0.3237
  136OSM    C1214739   0.556   0.940   5.924 -0.2020  0.4898 -0.5234
  136OSM   H12A14740   0.454   0.974   5.918 -1.1042 -2.4995 -3.8628
  136OSM   H12B14741   0.607   1.034   5.938 -0.0272  0.3840 -0.4584
  136OSM    C1114742   0.576   0.845   6.044  0.3861 -0.3621 -0.1525
  136OSM   H11A14743   0.508   0.757   6.046  0.4853 -0.4811 -1.5939
  136OSM   H11B14744   0.551   0.896   6.139 -0.8095 -0.7874 -0.2335
  136OSM      P14745   0.834   0.891   6.101 -0.2705  0.2054 -0.0728
  136OSM    O1314746   0.958   0.831   6.057  0.6890  0.5669 -0.3612
  136OSM    O1414747   0.817   1.034   6.076  0.6277 -0.0120  0.2457
  136OSM    O1114748   0.811   0.869   6.258  0.0087  0.2176  0.0729
  136OSM    O1214749   0.717   0.804   6.047 -0.8264 -0.0652 -0.4909
  136OSM    C1S14750   0.859   0.742   6.312  0.0271 -0.3295  0.1141
  136OSM    H1S14751   0.970   0.745   6.319  0.0903 -0.6379 -0.7136
  136OSM    H1T14752   0.820   0.651   6.262  0.7989 -0.0203 -1.0830
  136OSM     NF14753   0.875   0.606   6.527  0.2916 -0.1001  0.6489
  136OSM    HNF14754   0.810   0.553   6.581  3.2918 -3.9124  0.7842
  136OSM    C2S14755   0.818   0.718   6.465 -0.0588  0.9032  0.1694
  136OSM    H2S14756   0.861   0.799   6.528 -0.8413 -0.1413  2.0938
  136OSM    C3S14757   0.663   0.716   6.492 -0.8277 -0.1212  0.1572
  136OSM    H3S14758   0.623   0.616   6.467  2.1936 -0.9593 -1.4663
  136OSM     O314759   0.588   0.802   6.404 -0.3712 -0.1087 -0.4370
  136OSM    HO314760   0.652   0.828   6.337 -0.2318 -0.2188 -0.3468
  136OSM    C4S14761   0.619   0.738   6.634  0.5168 -0.0843 -0.7840
  136OSM    H4S14762   0.614   0.645   6.693  0.2426  0.5053  0.1378
  136OSM    C5S14763   0.566   0.845   6.690  0.9249 -0.2651 -0.1153
  136OSM    H5S14764   0.550   0.940   6.636  0.5989 -0.7759 -0.9135
  136OSM    C6S14765   0.509   0.853   6.835  0.0161 -0.2877 -0.2650
  136OSM    H6S14766   0.518   0.750   6.875 -0.2197 -0.5179 -0.8076
  136OSM    H6T14767   0.401   0.875   6.846 -0.3599 -1.5936 -1.3507
  136OSM    C7S14768   0.583   0.961   6.928  0.1731 -0.1901 -0.0352
  136OSM    H7S14769   0.576   1.056   6.872 -3.8579  0.0603  0.7770
  136OSM    H7T14770   0.690   0.936   6.944 -0.7441 -2.2101  3.7204
  136OSM    C8S14771   0.515   0.965   7.064 -1.0812 -0.2651  0.6138
  136OSM    H8S14772   0.552   0.880   7.125 -1.8570 -0.6191  0.5920
  136OSM    H8T14773   0.404   0.955   7.064 -1.0839 -0.2378  0.8225
  136OSM    C9S14774   0.541   1.105   7.133  0.1204 -0.0169 -0.1109
  136OSM    H9S14775   0.519   1.188   7.062 -3.3957 -0.7824 -0.0263
  136OSM    H9T14776   0.646   1.116   7.168  0.9826 -1.7082 -2.1093
  136OSM   C10S14777   0.448   1.120   7.251  0.1494 -0.1493 -0.2940
  136OSM   H10S14778   0.497   1.176   7.333  0.0854  2.3460 -1.8841
  136OSM   H10T14779   0.428   1.016   7.285  1.2350  0.8712  3.7064
  136OSM   C11S14780   0.316   1.198   7.212 -0.3085 -0.2428 -0.2432
  136OSM   H11S14781   0.268   1.157   7.121  0.3499  0.5772 -0.9629
  136OSM   H11T14782   0.335   1.306   7.198 -1.4336  0.0928  0.7650
  136OSM   C12S14783   0.211   1.196   7.317  0.1600  0.5956  0.1115
  136OSM   H12S14784   0.181   1.093   7.346  0.3330  0.7123  0.7201
  136OSM   H12T14785   0.133   1.265   7.280  0.2000  0.1610 -0.7870
  136OSM   C13S14786   0.275   1.256   7.445 -0.0122 -0.4337 -0.8842
  136OSM   H13S14787   0.313   1.357   7.417  0.8903 -0.4843  0.1307
  136OSM   H13T14788   0.357   1.187   7.475  0.0110 -0.5970 -1.3207
  136OSM   C14S14789   0.178   1.259   7.563 -0.1784 -0.2451  0.4507
  136OSM   H14S14790   0.148   1.157   7.596  0.2456 -0.7258 -0.6040
  136OSM   H14T14791   0.087   1.314   7.530  2.5924  3.6331 -1.1512
  136OSM   C15S14792   0.242   1.319   7.686  0.6940  0.0601 -0.0363
  136OSM   H15S14793   0.260   1.426   7.661  2.6692 -0.8219 -2.5890
  136OSM   H15T14794   0.347   1.286   7.704  0.7255 -0.1880 -0.6766
  136OSM   C16S14795   0.164   1.309   7.819 -0.3729  0.6433 -0.0337
  136OSM   H16S14796   0.057   1.337   7.813 -0.5869 -0.4147 -1.2697
  136OSM   H16T14797   0.203   1.386   7.889 -0.0794  0.1615  0.3378
  136OSM   C17S14798   0.168   1.173   7.892  0.4368  0.4055  0.3965
  136OSM   H17S14799   0.126   1.089   7.832  1.3728 -0.2109  0.5914
  136OSM   H17T14800   0.105   1.171   7.984 -2.0488  0.6969 -1.2500
  136OSM   C18S14801   0.309   1.140   7.931 -0.0941 -0.2241 -0.2143
  136OSM   H18S14802   0.294   1.049   7.994 -1.5381 -0.2599 -0.5842
  136OSM   H18T14803   0.358   1.224   7.985 -2.5596 -0.2073  2.1335
  136OSM   H18U14804   0.378   1.127   7.845 -1.1143 -0.9008 -0.9440
  136OSM    C1F14805   1.001   0.574   6.535 -0.3691 -0.1453 -0.1714
  136OSM     OF14806   1.090   0.658   6.508  0.4790 -0.2443  0.0013
  136OSM    C2F14807   1.032   0.442   6.594 -0.2560  0.4676  0.7280
  136OSM    H2F14808   1.102   0.381   6.533 -0.9391 -0.3006  0.7035
  136OSM    H2G14809   0.939   0.382   6.603  0.7636 -1.3132 -0.3318
  136OSM    C3F14810   1.110   0.457   6.726  0.3430  0.2423 -0.0786
  136OSM    H3F14811   1.211   0.501   6.710 -0.0743  0.8438 -1.1206
  136OSM    H3G14812   1.129   0.356   6.768 -0.5642  1.1627  2.6481
  136OSM    C4F14813   1.043   0.540   6.838 -0.7234 -0.5987  0.0354
  136OSM    H4F14814   0.939   0.500   6.837 -0.8141 -0.3798 -1.4024
  136OSM    H4G14815   1.041   0.645   6.803  1.6166 -0.2446  0.9029
  136OSM    C5F14816   1.110   0.527   6.978 -0.3397  0.8241  0.2123
  136OSM    H5F14817   1.208   0.579   6.969 -0.2724  0.1928 -3.4710
  136OSM    H5G14818   1.132   0.418   6.987 -0.1409  0.5119 -3.4394
  136OSM    C6F14819   1.039   0.578   7.098 -0.0884 -0.0963 -0.3315
  136OSM    H6F14820   0.933   0.547   7.082  0.0388 -0.9548  0.4805
  136OSM    H6G14821   1.028   0.689   7.099  2.6150  0.1860  0.8884
  136OSM    C7F14822   1.090   0.520   7.228  0.4384 -0.0047 -0.7494
  136OSM    H7F14823   1.198   0.544   7.230  0.2289  0.9377 -0.5669
  136OSM    H7G14824   1.078   0.410   7.218 -0.6376 -0.3249  3.1245
  136OSM    C8F14825   1.015   0.567   7.355 -0.3470 -0.5816 -0.1801
  136OSM    H8F14826   1.061   0.510   7.438  2.0044  0.2176 -0.8802
  136OSM    H8G14827   0.907   0.549   7.342 -0.6472  0.6249  0.5188
  136OSM    C9F14828   1.033   0.714   7.386 -0.4542  0.4715 -0.1848
  136OSM    H9F14829   1.128   0.755   7.350 -0.2697  1.0987  1.0042
  136OSM   C10F14830   0.950   0.798   7.455  0.2258 -0.3729 -0.3424
  136OSM   H10F14831   0.974   0.904   7.468  1.6340 -0.8925  1.5047
  136OSM   C11F14832   0.807   0.765   7.501 -0.1039  1.0129 -0.0618
  136OSM   H11F14833   0.804   0.655   7.487 -0.5371  0.8893  0.9279
  136OSM   H11G14834   0.732   0.808   7.432 -0.5004 -1.1746 -1.0285
  136OSM   C12F14835   0.786   0.805   7.644  0.0049  0.6434  0.2100
  136OSM   H12F14836   0.859   0.754   7.709 -1.3319 -0.7829  0.6049
  136OSM   H12G14837   0.688   0.767   7.680  0.6424  1.2025  2.5892
  136OSM   C13F14838   0.800   0.961   7.664  0.1658 -0.0128  0.4937
  136OSM   H13F14839   0.743   1.009   7.582  0.1182 -1.0172 -0.0693
  136OSM   H13G14840   0.906   0.994   7.660 -0.4854  2.0491 -0.1633
  136OSM   C14F14841   0.739   1.002   7.799  0.1709 -0.1069 -0.1189
  136OSM   H14F14842   0.631   0.979   7.811 -0.3490  2.0844 -0.4089
  136OSM   H14G14843   0.737   1.113   7.808 -0.9351 -0.2250  1.2749
  136OSM   C15F14844   0.812   0.946   7.928  0.2896 -0.5073  0.0521
  136OSM   H15F14845   0.915   0.987   7.926  0.2433 -0.2865  1.6519
  136OSM   H15G14846   0.814   0.838   7.901  0.2082 -0.3837 -0.4653
  136OSM   C16F14847   0.739   0.988   8.059  0.3526 -0.6431  0.0276
  136OSM   H16F14848   0.629   0.975   8.046  0.4246 -1.2382 -0.0220
  136OSM   H16G14849   0.765   1.096   8.063  1.2713 -0.9084  1.5191
  136OSM   C17F14850   0.790   0.912   8.184  0.2758  0.2154  0.5859
  136OSM   H17F14851   0.901   0.903   8.177  0.3572  1.6622 -0.2137
  136OSM   H17G14852   0.749   0.808   8.184  0.1703  0.2083 -2.2185
  136OSM   C18F14853   0.758   0.966   8.317  0.8730 -0.1324  0.2005
  136OSM   H18F14854   0.791   0.898   8.398  0.6761 -1.4468 -0.8118
  136OSM   H18G14855   0.652   0.998   8.330  1.3406  2.2174 -1.4323
  136OSM   H18H14856   0.814   1.060   8.336  3.7918 -1.7190 -0.2038
  137OSM      N14857   4.213   5.753   6.280 -0.4081 -0.3158 -0.5307
  137OSM    C1514858   4.220   5.887   6.351  0.6983  0.1461  0.4439
  137OSM   H15A14859   4.247   5.959   6.275 -1.5283 -0.6549 -1.1736
  137OSM   H15B14860   4.300   5.888   6.424  1.2459 -0.1532 -0.1464
  137OSM   H15C14861   4.130   5.925   6.397 -0.0724 -1.7275  0.5517
  137OSM    C1414862   4.106   5.765   6.174  0.2078 -0.5866  0.5238
  137OSM   H14A14863   4.015   5.807   6.213  0.4156  0.5386 -0.1569
  137OSM   H14B14864   4.088   5.666   6.135  1.2810 -0.1228 -1.2039
  137OSM   H14C14865   4.139   5.833   6.097 -1.7043 -1.4949 -1.1359
  137OSM    C1314866   4.344   5.714   6.220  0.0624  0.1454 -0.1518
  137OSM   H13A14867   4.329   5.639   6.145 -1.8916 -0.4398  0.7964
  137OSM   H13B14868   4.413   5.659   6.283  0.3421 -0.0921 -0.6647
  137OSM   H13C14869   4.386   5.804   6.176 -1.2177  0.8986  0.1247
  137OSM    C1214870   4.163   5.649   6.385 -0.3959 -0.2465 -0.3786
  137OSM   H12A14871   4.077   5.697   6.430  0.8739  1.5898  0.1285
  137OSM   H12B14872   4.232   5.647   6.469 -3.0899  0.9332  1.9590
  137OSM    C1114873   4.127   5.516   6.327  0.5579  0.1100  0.2687
  137OSM   H11A14874   4.046   5.525   6.253  2.3912 -0.8023 -1.9202
  137OSM   H11B14875   4.082   5.445   6.400  1.5870 -1.3511 -0.4718
  137OSM      P14876   4.358   5.389   6.354  0.0627 -0.4008 -0.1264
  137OSM    O1314877   4.402   5.261   6.294 -0.4935 -1.1491 -0.1631
  137OSM    O1414878   4.459   5.488   6.391 -0.1309 -0.0833 -0.3520
  137OSM    O1114879   4.275   5.351   6.486  0.0287 -0.6385  0.2704
  137OSM    O1214880   4.242   5.455   6.266  0.1529 -0.2926  0.6004
  137OSM    C1S14881   4.288   5.401   6.614 -0.6678 -0.9909 -0.0278
  137OSM    H1S14882   4.328   5.504   6.609  0.9797 -1.5023  1.7710
  137OSM    H1T14883   4.363   5.346   6.675 -0.8398  0.2295  1.3032
  137OSM     NF14884   4.157   5.462   6.823 -0.0281 -0.1004  0.4010
  137OSM    HNF14885   4.144   5.413   6.909  3.2658  0.4298  1.2510
  137OSM    C2S14886   4.155   5.399   6.689  0.5250 -0.3470 -1.0150
  137OSM    H2S14887   4.080   5.456   6.631  0.2081  1.5744  1.2216
  137OSM    C3S14888   4.089   5.263   6.695  0.5187  0.4015  0.4629
  137OSM    H3S14889   4.151   5.185   6.744 -0.2689 -1.9699 -2.1996
  137OSM     O314890   4.070   5.207   6.561 -0.4384  0.3372 -0.4121
  137OSM    HO314891   4.132   5.253   6.503 -1.0695 -1.4518 -2.6091
  137OSM    C4S14892   3.957   5.270   6.757  0.6894  0.6559 -0.5534
  137OSM    H4S14893   3.875   5.326   6.708 -1.5182  0.2210  2.5176
  137OSM    C5S14894   3.920   5.200   6.867  0.6668 -0.2715 -0.2882
  137OSM    H5S14895   4.005   5.140   6.902  1.2499 -0.3938 -1.8978
  137OSM    C6S14896   3.788   5.173   6.942  0.1816  0.4287 -0.1049
  137OSM    H6S14897   3.744   5.072   6.927  0.2572  0.6906 -2.3101
  137OSM    H6T14898   3.710   5.237   6.895 -1.8608 -1.7651  0.1876
  137OSM    C7S14899   3.797   5.202   7.092 -0.1246 -0.3651 -1.0179
  137OSM    H7S14900   3.870   5.136   7.144 -0.2910  1.9834  2.3518
  137OSM    H7T14901   3.695   5.180   7.129 -0.9370  2.8417 -1.2082
  137OSM    C8S14902   3.818   5.339   7.134 -0.2903 -0.4205  0.6358
  137OSM    H8S14903   3.735   5.407   7.105  1.3249  1.0529 -0.6785
  137OSM    H8T14904   3.913   5.367   7.083 -0.9980  1.3616  0.2475
  137OSM    C9S14905   3.860   5.353   7.284  0.7494 -0.3224  0.6038
  137OSM    H9S14906   3.927   5.441   7.294  0.5025  0.0079 -0.5685
  137OSM    H9T14907   3.903   5.259   7.324  0.6488 -0.5855  0.0942
  137OSM   C10S14908   3.737   5.390   7.370  0.0804 -0.5379  0.1834
  137OSM   H10S14909   3.667   5.304   7.361  1.1437 -1.3538 -0.4449
  137OSM   H10T14910   3.689   5.482   7.331  0.7014 -0.8099 -1.2878
  137OSM   C11S14911   3.757   5.403   7.521  0.6497 -0.1345  0.5012
  137OSM   H11S14912   3.667   5.442   7.573  0.7977 -0.9926  1.4187
  137OSM   H11T14913   3.844   5.470   7.539 -0.1399  0.7121  1.2546
  137OSM   C12S14914   3.785   5.266   7.586 -0.8673  0.2425  1.0508
  137OSM   H12S14915   3.872   5.226   7.530 -1.5097  1.3580 -0.7899
  137OSM   H12T14916   3.703   5.194   7.567  1.4298 -2.1350 -0.1264
  137OSM   C13S14917   3.834   5.264   7.731 -0.6413  0.0933 -0.6411
  137OSM   H13S14918   3.894   5.357   7.744 -0.4300 -0.1316  0.0362
  137OSM   H13T14919   3.890   5.169   7.746 -1.0820 -0.1486 -0.5308
  137OSM   C14S14920   3.719   5.255   7.830 -0.9330  0.5589 -0.2581
  137OSM   H14S14921   3.678   5.152   7.823  0.2597  0.1107 -0.7073
  137OSM   H14T14922   3.645   5.338   7.820 -0.0303  1.2974 -0.8768
  137OSM   C15S14923   3.755   5.263   7.983  0.7799 -0.7134 -0.6323
  137OSM   H15S14924   3.802   5.166   8.011  2.5304  0.5501  0.9222
  137OSM   H15T14925   3.655   5.257   8.031  0.1035  0.7195 -1.7999
  137OSM   C16S14926   3.850   5.373   8.020 -0.1005 -0.2526  0.4544
  137OSM   H16S14927   3.788   5.465   8.008  0.7610  0.3855  0.8239
  137OSM   H16T14928   3.936   5.375   7.950  0.0495  1.8277  0.6482
  137OSM   C17S14929   3.913   5.366   8.159  0.2640  0.6802 -0.0915
  137OSM   H17S14930   3.964   5.464   8.170  1.4959 -0.2486  3.1482
  137OSM   H17T14931   3.981   5.279   8.156 -1.7411 -0.8709 -1.7109
  137OSM   C18S14932   3.806   5.355   8.265 -0.3506 -0.4382  0.6519
  137OSM   H18S14933   3.862   5.377   8.359  1.4224  1.1292 -0.7359
  137OSM   H18T14934   3.775   5.248   8.272 -1.6889 -0.1695 -0.7675
  137OSM   H18U14935   3.718   5.423   8.255  0.6492  0.7095 -0.5020
  137OSM    C1F14936   4.169   5.590   6.834 -0.3621  0.3704 -0.0118
  137OSM     OF14937   4.171   5.662   6.729  0.0035  0.2501  0.0278
  137OSM    C2F14938   4.155   5.653   6.975  0.3882 -0.1917 -0.0335
  137OSM    H2F14939   4.252   5.703   6.996  0.2255 -0.6520  1.9614
  137OSM    H2G14940   4.123   5.577   7.049  1.5727  0.0833  0.7716
  137OSM    C3F14941   4.051   5.767   6.965 -0.5521  0.5249  0.3308
  137OSM    H3F14942   3.957   5.732   6.918 -0.5292  1.3348 -0.3330
  137OSM    H3G14943   4.089   5.847   6.897  0.1015 -0.5504 -0.5812
  137OSM    C4F14944   4.033   5.841   7.096 -0.1772 -0.1420 -0.0547
  137OSM    H4F14945   3.935   5.893   7.085 -0.6106 -0.4867  1.9245
  137OSM    H4G14946   4.116   5.914   7.110 -0.3146 -0.1994  1.1379
  137OSM    C5F14947   4.011   5.756   7.224 -1.0210 -0.3743  0.9000
  137OSM    H5F14948   4.102   5.696   7.246 -0.6091 -0.1787 -0.2322
  137OSM    H5G14949   3.930   5.680   7.213  1.2016 -2.5573 -0.8799
  137OSM    C6F14950   3.970   5.835   7.346  0.4765 -0.6897 -0.3995
  137OSM    H6F14951   3.873   5.883   7.321 -0.0588 -1.9330 -0.7086
  137OSM    H6G14952   4.041   5.905   7.396  0.4222 -3.0082  3.1301
  137OSM    C7F14953   3.948   5.738   7.469 -0.0599  0.0980  0.4752
  137OSM    H7F14954   4.044   5.688   7.493 -0.9090 -1.4810  0.6658
  137OSM    H7G14955   3.867   5.666   7.446  0.2505  0.4157 -1.6686
  137OSM    C8F14956   3.900   5.811   7.599  0.8060  0.2732 -0.0995
  137OSM    H8F14957   3.827   5.892   7.577  1.1469  0.5190 -0.3352
  137OSM    H8G14958   3.991   5.849   7.650  1.0709 -0.7951  0.2386
  137OSM    C9F14959   3.841   5.710   7.699  0.5968 -1.0211  0.6602
  137OSM    H9F14960   3.773   5.641   7.646 -0.4327  0.7473 -0.3864
  137OSM   C10F14961   3.854   5.706   7.831 -0.2656  0.6586 -0.1270
  137OSM   H10F14962   3.808   5.620   7.882  0.1022  0.0552 -0.8048
  137OSM   C11F14963   3.942   5.802   7.904 -0.1962 -0.2786 -0.6444
  137OSM   H11F14964   3.965   5.892   7.843  0.6443 -2.0964 -3.0446
  137OSM   H11G14965   4.038   5.755   7.935  0.6512  0.0629 -2.7054
  137OSM   C12F14966   3.880   5.850   8.035 -0.0300  0.5306  0.0301
  137OSM   H12F14967   3.779   5.896   8.033 -0.5580 -0.4563  2.2653
  137OSM   H12G14968   3.950   5.919   8.086 -1.9446  1.7607  1.0408
  137OSM   C13F14969   3.871   5.735   8.136 -0.4028 -0.0432  0.3691
  137OSM   H13F14970   3.965   5.683   8.164 -0.3611 -0.3126 -0.2573
  137OSM   H13G14971   3.808   5.654   8.094  0.6400  0.0492 -1.4111
  137OSM   C14F14972   3.807   5.786   8.269  0.1858 -0.0519 -0.1198
  137OSM   H14F14973   3.765   5.708   8.335  0.0397  0.7726  0.7767
  137OSM   H14G14974   3.718   5.846   8.239  1.7533  2.4887  0.1709
  137OSM   C15F14975   3.892   5.885   8.351 -0.2798 -0.4514 -0.9002
  137OSM   H15F14976   3.922   5.965   8.279 -0.9174  0.8928  0.3060
  137OSM   H15G14977   3.982   5.829   8.385 -2.3817 -1.6960  2.9167
  137OSM   C16F14978   3.833   5.945   8.480  0.2352 -0.3523  0.0741
  137OSM   H16F14979   3.750   6.014   8.457 -0.4351 -0.9607  0.6311
  137OSM   H16G14980   3.901   5.999   8.550  1.2116 -0.3240 -0.8722
  137OSM   C17F14981   3.772   5.834   8.561  1.1792  0.2998  0.2834
  137OSM   H17F14982   3.837   5.756   8.606 -2.8159 -2.4665  1.5229
  137OSM   H17G14983   3.687   5.783   8.512  0.7750 -0.6803  1.9702
  137OSM   C18F14984   3.696   5.903   8.679 -0.0843  0.0193  0.0642
  137OSM   H18F14985   3.632   5.988   8.647 -2.4504 -0.7213  2.6330
  137OSM   H18G14986   3.777   5.933   8.749  0.4699  0.3265 -0.7007
  137OSM   H18H14987   3.633   5.825   8.728  1.6561 -1.8120 -0.5521
  138OSM      N14988   5.021   0.680   6.128  0.2209  0.1730  0.3801
  138OSM    C1514989   4.963   0.664   5.996  0.2240  0.3529  0.1143
  138OSM   H15A14990   5.028   0.623   5.919 -0.6812 -0.8183 -0.0396
  138OSM   H15B14991   4.921   0.754   5.954 -0.2766 -0.2569 -0.7079
  138OSM   H15C14992   4.881   0.594   6.003  0.5374  0.1072  1.6108
  138OSM    C1414993   5.057   0.542   6.182  0.5782  0.0760 -0.5324
  138OSM   H14A14994   4.976   0.475   6.159  1.6277 -0.0529 -4.1418
  138OSM   H14B14995   5.084   0.545   6.286 -2.8352  0.2285  0.3722
  138OSM   H14C14996   5.142   0.493   6.135 -0.2599 -2.4741  0.5192
  138OSM    C1314997   5.136   0.772   6.116  0.0933  0.6114  0.7558
  138OSM   H13A14998   5.217   0.720   6.065 -0.0812  0.8794  0.1965
  138OSM   H13B14999   5.165   0.801   6.216 -0.9525  2.6445  0.4894
  138OSM   H13C15000   5.110   0.868   6.073  1.1484  1.3090  1.6396
  138OSM    C1215001   4.915   0.743   6.215 -0.5439  0.4583  0.6292
  138OSM   H12A15002   4.896   0.845   6.182  2.1327  0.0770 -2.3944
  138OSM   H12B15003   4.964   0.745   6.311  0.7098  0.0539  0.0153
  138OSM    C1115004   4.781   0.663   6.228 -0.0815  0.2909  0.9386
  138OSM   H11A15005   4.734   0.693   6.324  1.3948  0.6447  1.5572
  138OSM   H11B15006   4.813   0.557   6.241 -2.7951 -0.6865 -0.0799
  138OSM      P15007   4.590   0.796   6.096 -0.4011 -0.2551 -0.2976
  138OSM    O1315008   4.665   0.914   6.043 -0.0214 -0.2578 -0.4645
  138OSM    O1415009   4.483   0.737   6.007  0.4965 -0.5764 -0.0067
  138OSM    O1115010   4.533   0.832   6.234 -0.0318 -0.3970 -0.3267
  138OSM    O1215011   4.694   0.678   6.110 -0.2829  0.1145  0.8369
  138OSM    C1S15012   4.428   0.746   6.286  0.9864  0.5403  0.3288
  138OSM    H1S15013   4.465   0.641   6.293  0.3129  0.2565 -0.2276
  138OSM    H1T15014   4.335   0.735   6.226 -0.3362  1.6544  2.1296
  138OSM     NF15015   4.310   0.676   6.502  0.8431 -0.1733 -0.0700
  138OSM    HNF15016   4.211   0.678   6.495  0.6458 -0.2363  2.2677
  138OSM    C2S15017   4.384   0.788   6.433 -0.4759 -0.2932  0.2989
  138OSM    H2S15018   4.470   0.807   6.501 -0.2734 -0.9916  0.2413
  138OSM    C3S15019   4.306   0.919   6.440  0.4813  0.0452 -0.1228
  138OSM    H3S15020   4.210   0.903   6.387  1.6467 -0.0604 -2.2826
  138OSM     O315021   4.368   1.019   6.365 -0.0942  0.1736  0.0814
  138OSM    HO315022   4.436   0.984   6.307 -1.3108 -0.2895 -1.0901
  138OSM    C4S15023   4.285   0.959   6.578 -0.1559  0.0282  0.4821
  138OSM    H4S15024   4.180   0.946   6.609 -0.1950 -2.6289 -0.5990
  138OSM    C5S15025   4.376   1.005   6.667 -0.3816  0.2234  0.0794
  138OSM    H5S15026   4.483   1.004   6.644 -0.2843  0.0378  0.5451
  138OSM    C6S15027   4.337   1.045   6.808 -0.4129  0.4360 -0.3255
  138OSM    H6S15028   4.365   0.973   6.888  1.4066  4.2892  2.6677
  138OSM    H6T15029   4.230   1.063   6.830 -0.6400 -1.1264 -0.1102
  138OSM    C7S15030   4.401   1.177   6.851 -0.2742 -0.0305 -0.4354
  138OSM    H7S15031   4.374   1.260   6.782  0.5703  0.4531 -0.1910
  138OSM    H7T15032   4.512   1.174   6.848 -0.3405 -3.1150 -1.8248
  138OSM    C8S15033   4.372   1.228   6.989  0.3297  0.2793  0.4775
  138OSM    H8S15034   4.455   1.189   7.051  1.5772  0.0858 -1.2752
  138OSM    H8T15035   4.278   1.187   7.031  0.5414 -1.1410 -0.4232
  138OSM    C9S15036   4.386   1.379   7.002 -0.3730  0.5209 -0.5029
  138OSM    H9S15037   4.290   1.430   6.978 -1.0948  0.2946  1.7392
  138OSM    H9T15038   4.461   1.429   6.938  0.2772  0.3611  0.1278
  138OSM   C10S15039   4.436   1.424   7.140  0.1436 -0.4063  0.6258
  138OSM   H10S15040   4.455   1.533   7.147  2.2923 -0.8224  1.5855
  138OSM   H10T15041   4.522   1.360   7.166 -0.1360  0.0822  2.8921
  138OSM   C11S15042   4.333   1.397   7.250 -0.1871  0.1045 -0.2523
  138OSM   H11S15043   4.317   1.288   7.262  1.8096  0.1120  2.9259
  138OSM   H11T15044   4.237   1.438   7.211 -1.6656 -2.0058  1.0590
  138OSM   C12S15045   4.390   1.449   7.380  0.5153 -0.0176 -0.6866
  138OSM   H12S15046   4.398   1.558   7.359 -1.1816  0.0040 -1.3258
  138OSM   H12T15047   4.488   1.398   7.388  1.3460  1.7512  0.9948
  138OSM   C13S15048   4.295   1.413   7.502  0.2781 -0.4042 -0.2013
  138OSM   H13S15049   4.284   1.303   7.504  0.6763 -0.4621 -0.9536
  138OSM   H13T15050   4.194   1.450   7.474  0.1659 -2.2001 -2.3069
  138OSM   C14S15051   4.343   1.452   7.638 -0.1162 -0.0424 -0.0514
  138OSM   H14S15052   4.359   1.561   7.628  1.3562 -0.4771 -2.9264
  138OSM   H14T15053   4.441   1.404   7.660  0.4968  1.6981  1.0591
  138OSM   C15S15054   4.235   1.408   7.742 -0.4051 -0.2429  0.4567
  138OSM   H15S15055   4.255   1.301   7.767 -1.1145 -0.3506  0.5706
  138OSM   H15T15056   4.135   1.420   7.695  0.3950  0.1898 -1.1659
  138OSM   C16S15057   4.256   1.496   7.873  0.3578 -0.4851  0.3636
  138OSM   H16S15058   4.205   1.592   7.850 -1.1462 -0.9456  1.6339
  138OSM   H16T15059   4.364   1.506   7.896  0.1420  0.0807  1.1539
  138OSM   C17S15060   4.201   1.413   7.995  0.5696 -0.1122 -0.2189
  138OSM   H17S15061   4.221   1.475   8.086  1.8456 -0.0172 -0.5555
  138OSM   H17T15062   4.256   1.319   8.018 -1.0593 -0.3834  2.8684
  138OSM   C18S15063   4.049   1.390   7.982  0.0301 -0.1552  0.4365
  138OSM   H18S15064   4.007   1.493   7.984  1.4166  0.5308 -2.4777
  138OSM   H18T15065   4.002   1.333   8.065 -1.0274  2.6122  1.7969
  138OSM   H18U15066   4.021   1.345   7.884 -0.4952 -0.5748  0.7758
  138OSM    C1F15067   4.367   0.568   6.545 -0.1191 -0.3442  0.2701
  138OSM     OF15068   4.488   0.555   6.515 -0.0924  0.1826  0.0152
  138OSM    C2F15069   4.290   0.472   6.626  0.5689 -0.3094  0.3887
  138OSM    H2F15070   4.250   0.392   6.559  0.5513 -0.4330  0.5469
  138OSM    H2G15071   4.202   0.516   6.678  0.7450 -0.4609  0.8109
  138OSM    C3F15072   4.380   0.421   6.738 -0.3076  0.2625  0.3344
  138OSM    H3F15073   4.423   0.511   6.787 -2.5504  0.4753  2.0054
  138OSM    H3G15074   4.469   0.362   6.706 -0.6118  0.4098 -0.7822
  138OSM    C4F15075   4.312   0.319   6.835 -0.1816  0.3652  0.5708
  138OSM    H4F15076   4.286   0.238   6.763 -0.6473  1.8511 -0.9744
  138OSM    H4G15077   4.215   0.362   6.869 -1.2632 -1.2560 -0.3262
  138OSM    C5F15078   4.396   0.268   6.946 -0.2238  0.7745 -0.3699
  138OSM    H5F15079   4.495   0.233   6.909  0.8929  1.9423  1.4520
  138OSM    H5G15080   4.347   0.180   6.993  2.8009 -1.0526 -0.5346
  138OSM    C6F15081   4.428   0.375   7.065  0.4744 -0.6843  0.7290
  138OSM    H6F15082   4.334   0.420   7.102  1.5484  0.9370  1.5495
  138OSM    H6G15083   4.492   0.461   7.034  1.0474  0.1235  3.9721
  138OSM    C7F15084   4.496   0.304   7.186  0.1043  0.0951  0.2655
  138OSM    H7F15085   4.571   0.238   7.138  0.6297 -0.6406  2.0447
  138OSM    H7G15086   4.418   0.241   7.234 -1.0066  2.5339  1.7369
  138OSM    C8F15087   4.552   0.405   7.289  0.2212 -0.6263 -0.2428
  138OSM    H8F15088   4.599   0.486   7.230 -0.7071 -0.2027 -0.3959
  138OSM    H8G15089   4.629   0.349   7.346 -0.4952 -1.3978 -0.0236
  138OSM    C9F15090   4.454   0.477   7.376  0.6498 -0.0007  0.9052
  138OSM    H9F15091   4.346   0.467   7.361  0.6954  0.7974 -0.0298
  138OSM   C10F15092   4.501   0.565   7.469 -0.1285  0.4080  0.2049
  138OSM   H10F15093   4.420   0.613   7.526 -0.8345 -1.2162  0.5828
  138OSM   C11F15094   4.639   0.609   7.510 -0.5060  0.3042  0.0494
  138OSM   H11F15095   4.633   0.717   7.538 -0.2973  0.1038  0.8750
  138OSM   H11G15096   4.702   0.608   7.418  0.1813  1.0957  0.5039
  138OSM   C12F15097   4.711   0.523   7.604 -0.2528  0.0710  0.6624
  138OSM   H12F15098   4.815   0.559   7.591 -0.8439  1.5583 -0.0927
  138OSM   H12G15099   4.704   0.419   7.564  0.9952  0.5037 -0.6982
  138OSM   C13F15100   4.655   0.533   7.748  0.0791 -0.8151 -0.1637
  138OSM   H13F15101   4.694   0.447   7.807 -2.0820 -1.5669  0.1985
  138OSM   H13G15102   4.545   0.515   7.750  0.0015 -0.2751  1.1771
  138OSM   C14F15103   4.690   0.672   7.810 -0.0373 -0.2754 -0.1299
  138OSM   H14F15104   4.640   0.673   7.909  0.2353  1.5012  0.0233
  138OSM   H14G15105   4.643   0.761   7.764 -3.3975 -2.6081 -1.3183
  138OSM   C15F15106   4.846   0.701   7.814  0.4018  0.1243  0.7918
  138OSM   H15F15107   4.879   0.719   7.709  1.5955 -0.1305  1.1171
  138OSM   H15G15108   4.898   0.613   7.859  0.2062 -0.6089 -0.3949
  138OSM   C16F15109   4.871   0.827   7.895 -1.0669  0.5882 -0.3648
  138OSM   H16F15110   4.823   0.810   7.994 -0.4185 -1.8999 -0.4575
  138OSM   H16G15111   4.829   0.913   7.838 -0.5382 -1.0624 -3.3440
  138OSM   C17F15112   5.025   0.847   7.896  0.3980 -0.3597 -0.6514
  138OSM   H17F15113   5.051   0.861   7.789 -1.4101 -3.0102 -1.4750
  138OSM   H17G15114   5.095   0.767   7.929  1.1217  1.3333  2.1334
  138OSM   C18F15115   5.072   0.981   7.970 -0.0101 -0.6094  0.6143
  138OSM   H18F15116   4.996   1.059   7.950  0.6852  0.3780  1.7785
  138OSM   H18G15117   5.173   1.010   7.932 -0.1803 -0.7990  0.0080
  138OSM   H18H15118   5.071   0.979   8.081 -1.0266 -1.8264  0.5902
  139OSM      N15119   4.225   1.162   6.003 -0.0259  0.3269  0.0638
  139OSM    C1515120   4.216   1.111   5.857 -0.3875 -0.8474 -0.2419
  139OSM   H15A15121   4.146   1.174   5.805  0.6617  0.3651 -0.2144
  139OSM   H15B15122   4.186   1.007   5.853  0.8978 -1.2079 -0.8001
  139OSM   H15C15123   4.316   1.104   5.815 -0.1322 -0.8830  0.3638
  139OSM    C1415124   4.317   1.071   6.079 -0.3190  0.1906 -0.3194
  139OSM   H14A15125   4.418   1.095   6.049  1.0786 -3.6005  1.1191
  139OSM   H14B15126   4.301   0.966   6.062  2.2569 -0.6380  1.9696
  139OSM   H14C15127   4.308   1.087   6.185  1.3636  1.7520 -0.3855
  139OSM    C1315128   4.273   1.306   6.010 -0.2608 -0.6352 -0.0729
  139OSM   H13A15129   4.224   1.364   5.932  2.5990  0.9573 -0.7678
  139OSM   H13B15130   4.379   1.320   5.996 -0.4438 -1.3105 -2.3526
  139OSM   H13C15131   4.250   1.347   6.107  0.7161  0.8780 -0.4614
  139OSM    C1215132   4.084   1.156   6.064  0.6125  0.1578  0.3070
  139OSM   H12A15133   4.036   1.061   6.044 -0.9804  1.2312 -1.0934
  139OSM   H12B15134   4.011   1.217   6.013  1.0582  0.3311 -0.1236
  139OSM    C1115135   4.075   1.194   6.209  0.3793  0.1022 -0.2141
  139OSM   H11A15136   4.147   1.129   6.264 -0.5683 -0.4179  0.4257
  139OSM   H11B15137   3.976   1.161   6.248  0.4595 -2.0204 -1.6764
  139OSM      P15138   3.987   1.424   6.175 -0.0478  0.2692 -0.3294
  139OSM    O1315139   4.045   1.555   6.149  0.2519  0.1123  0.5859
  139OSM    O1415140   3.903   1.368   6.066  0.3621  0.0339  0.5191
  139OSM    O1115141   3.888   1.440   6.295 -0.2305 -0.4771 -0.1177
  139OSM    O1215142   4.098   1.326   6.232  0.7072 -0.2425  0.6444
  139OSM    C1S15143   3.936   1.408   6.421  0.4553 -0.6715  0.4844
  139OSM    H1S15144   4.040   1.445   6.430  0.0129  0.1259  2.6577
  139OSM    H1T15145   3.937   1.300   6.449  2.4743 -0.3000  1.9633
  139OSM     NF15146   3.923   1.467   6.658 -0.4041 -0.1593 -0.3950
  139OSM    HNF15147   3.891   1.407   6.731  0.8482  0.4860  0.7035
  139OSM    C2S15148   3.853   1.473   6.538 -0.6923 -0.0860  0.4601
  139OSM    H2S15149   3.834   1.581   6.518  2.6350  0.1971 -1.4912
  139OSM    C3S15150   3.720   1.399   6.538  0.2315  0.0367 -0.3143
  139OSM    H3S15151   3.731   1.289   6.536 -0.1662 -0.0085 -0.1539
  139OSM     O315152   3.643   1.438   6.428  0.2673  0.1381 -0.1765
  139OSM    HO315153   3.700   1.443   6.351  0.1387  0.6661 -0.2413
  139OSM    C4S15154   3.640   1.431   6.665 -0.6499 -0.4703  0.1972
  139OSM    H4S15155   3.673   1.369   6.749 -0.5722 -1.8937 -0.8571
  139OSM    C5S15156   3.536   1.524   6.685  0.2127 -0.6566 -0.0067
  139OSM    H5S15157   3.499   1.571   6.592  0.7564 -1.5544 -0.6875
  139OSM    C6S15158   3.460   1.561   6.807 -0.0941  0.0068 -0.1237
  139OSM    H6S15159   3.371   1.494   6.802 -0.6571  0.7251  0.1881
  139OSM    H6T15160   3.409   1.659   6.798  1.6608  1.5215  5.0553
  139OSM    C7S15161   3.538   1.549   6.941  0.0214  0.1249  0.8413
  139OSM    H7S15162   3.620   1.623   6.938 -0.9451  1.2313  1.2918
  139OSM    H7T15163   3.584   1.448   6.950  1.1938  0.5859  0.1126
  139OSM    C8S15164   3.439   1.566   7.058  0.1708 -0.2315  0.2210
  139OSM    H8S15165   3.357   1.494   7.034 -2.3923  2.7495 -0.2943
  139OSM    H8T15166   3.379   1.659   7.070  2.5101  1.1334  1.8281
  139OSM    C9S15167   3.514   1.524   7.191  0.4916  0.1150  0.4193
  139OSM    H9S15168   3.599   1.594   7.202 -0.7678  1.1803  4.1623
  139OSM    H9T15169   3.548   1.419   7.186  1.3936  0.4803 -1.8235
  139OSM   C10S15170   3.429   1.523   7.317 -0.3214 -0.2045  0.3155
  139OSM   H10S15171   3.339   1.462   7.294  0.5344 -2.6631  3.0829
  139OSM   H10T15172   3.396   1.626   7.342  1.9259 -0.1969  3.5685
  139OSM   C11S15173   3.511   1.456   7.432 -0.3793  0.5156  0.0630
  139OSM   H11S15174   3.613   1.501   7.424  0.3544 -1.1072  0.0865
  139OSM   H11T15175   3.530   1.348   7.415  0.1907  0.4930  0.8059
  139OSM   C12S15176   3.468   1.489   7.577  0.2521 -0.3105  0.2055
  139OSM   H12S15177   3.364   1.454   7.597  0.3384 -1.4863 -1.3182
  139OSM   H12T15178   3.443   1.597   7.579 -0.1397 -0.2933 -2.7456
  139OSM   C13S15179   3.565   1.426   7.678  0.4567  0.1840 -0.2975
  139OSM   H13S15180   3.656   1.488   7.697  0.5048  0.2734 -0.8227
  139OSM   H13T15181   3.605   1.327   7.647  1.1632  1.0081 -2.0677
  139OSM   C14S15182   3.504   1.405   7.821 -0.7844  0.4766  0.6822
  139OSM   H14S15183   3.584   1.356   7.881 -1.7503  1.4666  2.8353
  139OSM   H14T15184   3.423   1.329   7.818  0.0370 -0.4090  0.7728
  139OSM   C15S15185   3.448   1.528   7.880  0.1986  0.0397 -0.1027
  139OSM   H15S15186   3.363   1.561   7.817  0.8221  0.6002 -0.6640
  139OSM   H15T15187   3.527   1.606   7.874 -0.5108  0.8671  1.0348
  139OSM   C16S15188   3.419   1.529   8.030 -0.1449 -0.1335  0.5885
  139OSM   H16S15189   3.390   1.628   8.070 -0.6036  0.8534 -2.0754
  139OSM   H16T15190   3.517   1.499   8.073  0.5950 -0.9142 -1.5787
  139OSM   C17S15191   3.318   1.426   8.080 -0.0580 -0.0442  0.1032
  139OSM   H17S15192   3.320   1.329   8.025 -1.6779 -0.6744  1.1206
  139OSM   H17T15193   3.218   1.469   8.060 -0.3763 -0.5058  0.6795
  139OSM   C18S15194   3.325   1.396   8.225 -0.1934  0.3841 -0.2543
  139OSM   H18S15195   3.316   1.483   8.294 -1.9593  1.4885 -1.8014
  139OSM   H18T15196   3.420   1.343   8.242  1.0077  2.9441  1.3534
  139OSM   H18U15197   3.242   1.328   8.252  2.1958 -2.7960 -0.6491
  139OSM    C1F15198   4.024   1.553   6.678 -0.0171 -0.7979 -0.8726
  139OSM     OF15199   4.060   1.623   6.584 -0.1806 -0.4052  0.1067
  139OSM    C2F15200   4.084   1.550   6.812  0.0916 -0.0557 -0.1625
  139OSM    H2F15201   4.195   1.553   6.803  0.2099 -0.7677  0.9443
  139OSM    H2G15202   4.063   1.461   6.876 -1.4132 -0.1042 -0.7147
  139OSM    C3F15203   4.028   1.665   6.895  0.2438  0.2207  0.2238
  139OSM    H3F15204   3.918   1.685   6.892  0.4359  1.1979 -0.5230
  139OSM    H3G15205   4.072   1.760   6.858 -1.3055  0.3611 -1.3553
  139OSM    C4F15206   4.082   1.664   7.040  0.0710  0.1351 -0.7558
  139OSM    H4F15207   4.130   1.761   7.063 -0.1542 -0.3428  1.8017
  139OSM    H4G15208   4.171   1.598   7.053  2.2006  3.2088  0.8238
  139OSM    C5F15209   3.963   1.655   7.144  0.5437  0.6750  0.9131
  139OSM    H5F15210   3.900   1.568   7.113 -1.6678  3.2075 -2.0056
  139OSM    H5G15211   3.890   1.738   7.133 -0.7855 -0.4249  1.2310
  139OSM    C6F15212   3.998   1.635   7.285  1.2598  0.0110  0.5368
  139OSM    H6F15213   4.037   1.735   7.313  0.5572  0.5427 -0.3231
  139OSM    H6G15214   4.081   1.562   7.287  1.7730  0.4702 -2.1113
  139OSM    C7F15215   3.874   1.591   7.367  0.8566 -1.3312  0.2912
  139OSM    H7F15216   3.855   1.482   7.352 -1.0722 -0.6197 -2.8624
  139OSM    H7G15217   3.791   1.658   7.337  0.3617 -1.9357  0.2935
  139OSM    C8F15218   3.903   1.595   7.518  0.1469 -0.5263  0.6567
  139OSM    H8F15219   3.989   1.527   7.537 -0.4085 -1.2875  0.4743
  139OSM    H8G15220   3.812   1.549   7.562  0.0118 -1.1391 -0.2450
  139OSM    C9F15221   3.942   1.727   7.582 -0.5481  0.6976  0.6023
  139OSM    H9F15222   4.032   1.768   7.534 -0.6117 -2.4311 -2.4056
  139OSM   C10F15223   3.900   1.781   7.699 -0.2063  0.4584  0.1848
  139OSM   H10F15224   3.946   1.878   7.723 -1.6759  0.8806  1.3382
  139OSM   C11F15225   3.811   1.705   7.798  0.3894  0.0647 -0.1022
  139OSM   H11F15226   3.859   1.613   7.838 -0.5297 -0.2378  0.3340
  139OSM   H11G15227   3.710   1.685   7.755  0.1292 -1.1837  1.0311
  139OSM   C12F15228   3.794   1.779   7.934  0.6980 -0.5640  0.4961
  139OSM   H12F15229   3.719   1.722   7.993 -1.8592  2.5269  0.3144
  139OSM   H12G15230   3.731   1.866   7.908 -0.4130 -1.9649 -1.6307
  139OSM   C13F15231   3.913   1.811   8.020 -0.0551 -0.0064 -0.1937
  139OSM   H13F15232   3.978   1.885   7.969  1.0412 -0.5983  0.3265
  139OSM   H13G15233   3.981   1.723   8.031  0.6495  0.4898 -0.5330
  139OSM   C14F15234   3.874   1.863   8.159  0.4584 -0.0387  0.8935
  139OSM   H14F15235   3.821   1.961   8.149  1.0190  0.0616 -1.2340
  139OSM   H14G15236   3.967   1.886   8.214  1.9945 -1.4761 -1.0471
  139OSM   C15F15237   3.798   1.767   8.252  0.3951 -0.2023 -0.4150
  139OSM   H15F15238   3.702   1.738   8.204  1.2890 -0.9027 -1.8130
  139OSM   H15G15239   3.776   1.822   8.346 -1.0983 -1.5618  0.0485
  139OSM   C16F15240   3.875   1.634   8.295  0.4809 -0.8524  0.8986
  139OSM   H16F15241   3.954   1.670   8.364 -0.5361  0.4567  1.3838
  139OSM   H16G15242   3.919   1.600   8.199  0.2424  0.4517  0.3277
  139OSM   C17F15243   3.788   1.530   8.358  0.3420 -0.5033  0.8559
  139OSM   H17F15244   3.707   1.505   8.285 -0.7501 -2.3618  2.6573
  139OSM   H17G15245   3.741   1.580   8.445  2.7608  1.2952  1.1903
  139OSM   C18F15246   3.860   1.411   8.406 -0.1502  0.3126  0.2756
  139OSM   H18F15247   3.903   1.353   8.321 -0.2407  0.1028  0.3737
  139OSM   H18G15248   3.792   1.336   8.452  0.1849 -0.8830 -1.1056
  139OSM   H18H15249   3.935   1.428   8.486 -1.7674 -0.8377  2.0706
  140OSM      N15250   4.209   4.025   6.121 -0.2385 -0.5585 -0.0736
  140OSM    C1515251   4.233   4.132   6.228 -0.2791  0.1438 -0.3710
  140OSM   H15A15252   4.137   4.142   6.275 -0.3097 -0.6995 -0.2356
  140OSM   H15B15253   4.253   4.233   6.195  0.2328  0.6884  1.5247
  140OSM   H15C15254   4.318   4.106   6.291 -0.2294  2.0677  0.3913
  140OSM    C1415255   4.332   4.031   6.039 -0.0933  1.0939 -0.3605
  140OSM   H14A15256   4.334   3.979   5.944  0.3494 -0.3886  0.4491
  140OSM   H14B15257   4.421   3.996   6.088  0.8794  1.1400 -2.0662
  140OSM   H14C15258   4.354   4.129   5.999  1.6347  0.5588 -0.7325
  140OSM    C1315259   4.212   3.879   6.178  0.0601 -0.7069  0.2748
  140OSM   H13A15260   4.116   3.867   6.226 -0.9985 -0.4936 -1.7073
  140OSM   H13B15261   4.288   3.863   6.252 -1.1536  2.3286  2.2706
  140OSM   H13C15262   4.223   3.810   6.095  0.0907 -0.8133  0.3659
  140OSM    C1215263   4.092   4.050   6.040  0.6344  0.0421 -0.1692
  140OSM   H12A15264   4.089   3.962   5.978  1.7792  0.8107 -1.3511
  140OSM   H12B15265   4.103   4.133   5.972  0.7298 -0.2395 -0.4999
  140OSM    C1115266   3.958   4.052   6.106 -0.8673 -0.1212  1.0648
  140OSM   H11A15267   3.885   4.088   6.030  1.3161 -2.4093 -2.2595
  140OSM   H11B15268   3.964   4.129   6.187 -0.8135  1.4800 -0.4245
  140OSM      P15269   3.841   3.815   6.102  0.3138 -0.0924  0.0863
  140OSM    O1315270   3.703   3.850   6.059 -0.5812 -0.0941  0.0467
  140OSM    O1415271   3.931   3.754   6.004 -0.3689 -0.1121  0.5157
  140OSM    O1115272   3.823   3.722   6.226 -0.2798  0.0214  0.4923
  140OSM    O1215273   3.928   3.933   6.169  0.0500  0.5980 -0.2211
  140OSM    C1S15274   3.920   3.717   6.335  0.0020 -0.4438 -0.0012
  140OSM    H1S15275   3.937   3.819   6.375  0.1819 -0.7298  0.6710
  140OSM    H1T15276   4.017   3.677   6.301  0.8022  0.9750  0.5616
  140OSM     NF15277   3.932   3.620   6.561 -0.0019 -0.5382 -0.2057
  140OSM    HNF15278   4.006   3.553   6.563  1.2500  0.7922  1.9350
  140OSM    C2S15279   3.855   3.622   6.438 -0.1502  0.1264 -0.3747
  140OSM    H2S15280   3.753   3.659   6.463 -0.8243 -2.6949  1.2222
  140OSM    C3S15281   3.847   3.478   6.376  0.6010  0.0772 -1.0184
  140OSM    H3S15282   3.951   3.445   6.355 -0.1057 -2.8764 -0.1392
  140OSM     O315283   3.780   3.478   6.246  0.3973  0.6155 -0.8966
  140OSM    HO315284   3.795   3.572   6.231 -0.5379  0.9899  0.4533
  140OSM    C4S15285   3.794   3.389   6.479 -0.4236  0.7594 -0.6992
  140OSM    H4S15286   3.876   3.360   6.547  1.7535  0.9693 -3.1367
  140OSM    C5S15287   3.669   3.356   6.507  0.7422 -0.5937 -0.4837
  140OSM    H5S15288   3.586   3.407   6.456  0.8852  2.4293  2.1495
  140OSM    C6S15289   3.628   3.270   6.621 -0.1229 -0.5028  0.1869
  140OSM    H6S15290   3.710   3.199   6.648  0.6448 -0.2686 -1.4676
  140OSM    H6T15291   3.536   3.209   6.610 -0.3854 -0.0206 -0.2891
  140OSM    C7S15292   3.594   3.359   6.743 -0.3361 -0.1865 -0.1002
  140OSM    H7S15293   3.524   3.317   6.818  0.0170  1.0869  0.9560
  140OSM    H7T15294   3.552   3.457   6.712 -0.5570 -0.0666  0.5857
  140OSM    C8S15295   3.727   3.388   6.821  0.3114  0.2851 -0.4049
  140OSM    H8S15296   3.795   3.433   6.746 -0.2112 -0.2278 -1.2000
  140OSM    H8T15297   3.768   3.291   6.856  1.3269  0.2961 -1.5674
  140OSM    C9S15298   3.708   3.482   6.943 -0.3195  0.2260  0.1113
  140OSM    H9S15299   3.702   3.579   6.890 -1.0312 -0.4204 -1.0007
  140OSM    H9T15300   3.799   3.482   7.007 -0.6420  1.6328  0.6021
  140OSM   C10S15301   3.584   3.470   7.023  0.5578  0.2880 -0.1615
  140OSM   H10S15302   3.553   3.373   7.066 -1.8832  1.0138 -0.2277
  140OSM   H10T15303   3.498   3.497   6.958  0.6508  0.4661 -0.2125
  140OSM   C11S15304   3.567   3.582   7.129 -0.2422  0.0478  0.4687
  140OSM   H11S15305   3.461   3.585   7.162  0.2797 -1.5220  2.3664
  140OSM   H11T15306   3.601   3.675   7.077 -1.4936  0.4659  0.3795
  140OSM   C12S15307   3.663   3.568   7.252 -0.1681 -0.8852 -0.0567
  140OSM   H12S15308   3.766   3.555   7.212 -0.0407  0.1046 -0.0706
  140OSM   H12T15309   3.630   3.482   7.313  0.0863 -1.0101 -0.0940
  140OSM   C13S15310   3.669   3.703   7.340 -0.1488  0.1468 -0.0683
  140OSM   H13S15311   3.703   3.782   7.270 -2.0177  1.7748  0.8152
  140OSM   H13T15312   3.740   3.686   7.424  0.0056 -0.7527 -0.3651
  140OSM   C14S15313   3.534   3.753   7.400  0.2493  0.5123  0.1769
  140OSM   H14S15314   3.462   3.773   7.318  0.1868  0.7346  0.2827
  140OSM   H14T15315   3.556   3.852   7.447  3.4006 -0.8628  1.6917
  140OSM   C15S15316   3.479   3.668   7.513  0.0737 -0.5767  0.5900
  140OSM   H15S15317   3.539   3.664   7.606  1.3690  0.3441 -0.1938
  140OSM   H15T15318   3.454   3.568   7.473 -1.0530 -0.5044  1.0737
  140OSM   C16S15319   3.341   3.724   7.567  0.1217  0.3887 -0.0501
  140OSM   H16S15320   3.273   3.719   7.479  1.3721 -1.6483 -0.9512
  140OSM   H16T15321   3.357   3.831   7.594  0.0667  0.1506  0.9128
  140OSM   C17S15322   3.290   3.642   7.678  0.2913  0.3669  0.0075
  140OSM   H17S15323   3.375   3.629   7.748  0.2765  1.3013  0.2089
  140OSM   H17T15324   3.255   3.545   7.637  2.6647 -0.5208  0.0154
  140OSM   C18S15325   3.171   3.717   7.743 -1.1254 -0.9268 -0.8833
  140OSM   H18S15326   3.121   3.660   7.824  0.0320  1.2533  1.4284
  140OSM   H18T15327   3.096   3.744   7.666  0.1503  1.2825 -1.3966
  140OSM   H18U15328   3.203   3.811   7.793 -0.5137 -0.7949 -1.5085
  140OSM    C1F15329   3.928   3.719   6.648 -0.0736  0.2027  0.2608
  140OSM     OF15330   3.842   3.804   6.633 -0.0265  0.2729 -0.1467
  140OSM    C2F15331   4.036   3.714   6.757  0.7062 -0.1120 -0.3015
  140OSM    H2F15332   4.137   3.718   6.712  1.4055 -2.4753  0.9887
  140OSM    H2G15333   4.021   3.620   6.815 -1.4714  0.0292 -0.5761
  140OSM    C3F15334   4.030   3.843   6.846 -0.2270  0.0767 -0.5879
  140OSM    H3F15335   4.027   3.929   6.775 -0.4074  0.1235 -0.5206
  140OSM    H3G15336   4.131   3.849   6.892 -0.3513 -1.3900 -0.0905
  140OSM    C4F15337   3.913   3.845   6.947  0.6128 -0.4224  0.3171
  140OSM    H4F15338   3.924   3.755   7.011  0.8920 -2.1226 -2.0589
  140OSM    H4G15339   3.817   3.851   6.891  0.3550  2.2019  0.9484
  140OSM    C5F15340   3.904   3.969   7.039 -0.5680 -0.1650 -0.3617
  140OSM    H5F15341   3.806   3.979   7.090 -0.6646 -0.2348 -0.5371
  140OSM    H5G15342   3.919   4.051   6.966  1.5605  1.6605  2.0231
  140OSM    C6F15343   4.007   3.957   7.150 -0.1398 -0.3772  0.3245
  140OSM    H6F15344   4.110   3.936   7.114  0.8379  0.0450  2.7877
  140OSM    H6G15345   3.996   3.876   7.226  2.1763  0.6004  1.7610
  140OSM    C7F15346   4.018   4.080   7.233  0.1693 -0.3201 -0.2660
  140OSM    H7F15347   3.920   4.114   7.273 -0.4437 -2.7264  0.3751
  140OSM    H7G15348   4.048   4.164   7.167 -0.1374  0.3601  0.4539
  140OSM    C8F15349   4.125   4.070   7.351 -0.3100 -0.7190 -0.0192
  140OSM    H8F15350   4.128   3.968   7.393 -0.1667  0.1909  2.2591
  140OSM    H8G15351   4.085   4.146   7.422 -0.3800  0.8276 -1.6697
  140OSM    C9F15352   4.265   4.100   7.304  0.1424 -0.3422  0.0093
  140OSM    H9F15353   4.292   4.049   7.210  0.5883  0.3855 -0.2553
  140OSM   C10F15354   4.355   4.182   7.362 -0.6013  0.2128 -1.4378
  140OSM   H10F15355   4.453   4.203   7.316 -0.2129  1.5020 -0.0738
  140OSM   C11F15356   4.337   4.260   7.496  0.0077  0.3574 -0.3449
  140OSM   H11F15357   4.232   4.263   7.533 -0.2314  0.7339 -1.0539
  140OSM   H11G15358   4.345   4.370   7.481 -1.9994  0.3281 -1.9599
  140OSM   C12F15359   4.426   4.207   7.605  0.4452  0.4881 -0.7263
  140OSM   H12F15360   4.398   4.101   7.624  2.2786 -0.3542 -2.4452
  140OSM   H12G15361   4.406   4.265   7.697  1.8610 -1.3303  0.7667
  140OSM   C13F15362   4.576   4.221   7.581  0.0986  0.2410  0.3438
  140OSM   H13F15363   4.604   4.327   7.560 -2.0228  1.0328  1.3239
  140OSM   H13G15364   4.611   4.163   7.493  0.4911  0.4860  0.3344
  140OSM   C14F15365   4.663   4.186   7.706 -0.1376 -0.2871  0.1673
  140OSM   H14F15366   4.768   4.169   7.674 -0.6184 -0.9697 -1.0759
  140OSM   H14G15367   4.625   4.093   7.754 -0.9556 -0.4573 -0.7995
  140OSM   C15F15368   4.664   4.290   7.820 -0.0055  0.4490  0.3734
  140OSM   H15F15369   4.564   4.337   7.834 -0.1508 -0.7071  3.5257
  140OSM   H15G15370   4.727   4.377   7.791  0.5111  0.4018  1.3290
  140OSM   C16F15371   4.710   4.233   7.960 -0.5425 -0.4312 -0.5120
  140OSM   H16F15372   4.783   4.149   7.961 -0.9411 -0.7841  1.5541
  140OSM   H16G15373   4.618   4.191   8.006 -0.5211 -1.0920 -1.0578
  140OSM   C17F15374   4.769   4.356   8.042  0.6538  0.5017  0.9881
  140OSM   H17F15375   4.700   4.443   8.042 -1.8042 -1.3312  3.4459
  140OSM   H17G15376   4.860   4.381   7.984  1.2029 -1.3422  1.0210
  140OSM   C18F15377   4.795   4.321   8.190 -0.3520  0.4525  0.5192
  140OSM   H18F15378   4.711   4.258   8.228 -0.5979  0.7924  0.5347
  140OSM   H18G15379   4.817   4.409   8.254 -0.6876  1.2096 -0.3998
  140OSM   H18H15380   4.872   4.240   8.188  0.3997  1.1725 -2.6825
  141OSM      N15381   3.221   5.851   6.108  0.1422 -0.0457  0.0153
  141OSM    C1515382   3.299   5.940   6.193 -1.1607  0.4036 -1.0563
  141OSM   H15A15383   3.346   5.890   6.277 -0.5677 -1.4431 -2.4503
  141OSM   H15B15384   3.238   6.027   6.209 -1.0529  0.1114  1.1380
  141OSM   H15C15385   3.382   5.982   6.138 -1.7445  0.5798 -1.8000
  141OSM    C1415386   3.149   5.935   6.006 -0.6510 -0.0291  0.1544
  141OSM   H14A15387   3.220   5.976   5.937 -0.8180  0.6953  0.4124
  141OSM   H14B15388   3.079   5.999   6.058 -1.4084 -0.1398 -0.7241
  141OSM   H14C15389   3.075   5.876   5.953 -0.2596 -2.3826  2.1067
  141OSM    C1315390   3.313   5.764   6.033 -0.6366  0.9274 -0.2027
  141OSM   H13A15391   3.251   5.697   5.975 -0.0650  0.0451  0.1935
  141OSM   H13B15392   3.374   5.704   6.099  0.0343 -0.1494 -1.7847
  141OSM   H13C15393   3.381   5.820   5.971 -1.6620 -0.7728 -2.9830
  141OSM    C1215394   3.118   5.766   6.186 -0.2829  0.4410 -0.4021
  141OSM   H12A15395   3.056   5.708   6.118  0.3092 -2.5305  1.5082
  141OSM   H12B15396   3.046   5.837   6.223  1.4657  2.7059 -1.2451
  141OSM    C1115397   3.170   5.675   6.297  0.5305 -0.3884 -0.4220
  141OSM   H11A15398   3.094   5.636   6.369 -0.1828  4.3027  1.5361
  141OSM   H11B15399   3.237   5.742   6.354  1.7278 -1.6820 -0.2807
  141OSM      P15400   3.198   5.435   6.194  0.3313  0.3923 -0.0154
  141OSM    O1315401   3.057   5.450   6.152  0.4646  0.7497 -0.2764
  141OSM    O1415402   3.285   5.372   6.091  0.4328  0.6671  0.0036
  141OSM    O1115403   3.199   5.343   6.322  0.1146 -0.1545 -0.1743
  141OSM    O1215404   3.259   5.573   6.243  0.1712  0.3818 -0.0753
  141OSM    C1S15405   3.302   5.349   6.419  0.2505 -0.0484 -0.1117
  141OSM    H1S15406   3.392   5.404   6.384  0.4708  0.1488  0.7518
  141OSM    H1T15407   3.343   5.247   6.438 -2.8629 -1.0608  1.6223
  141OSM     NF15408   3.343   5.413   6.658 -0.8176 -0.3809  0.9076
  141OSM    HNF15409   3.344   5.341   6.726  2.1204 -0.5747  0.7638
  141OSM    C2S15410   3.250   5.397   6.547  0.6336 -0.4809  0.1161
  141OSM    H2S15411   3.208   5.496   6.522  1.2712 -0.2438 -0.0387
  141OSM    C3S15412   3.129   5.322   6.602  0.6466  0.5278  0.0570
  141OSM    H3S15413   3.158   5.225   6.646 -0.0796 -0.6001 -1.8665
  141OSM     O315414   3.026   5.283   6.509  0.5878  0.0155 -0.1290
  141OSM    HO315415   3.059   5.305   6.422  1.9082 -1.5576 -0.0421
  141OSM    C4S15416   3.059   5.399   6.711 -0.0606 -0.6952 -0.0075
  141OSM    H4S15417   3.114   5.388   6.806  1.2165 -0.5282 -0.7184
  141OSM    C5S15418   2.942   5.474   6.705 -0.3556  0.1617  0.2803
  141OSM    H5S15419   2.883   5.476   6.612 -0.5868 -1.3214  0.3890
  141OSM    C6S15420   2.874   5.535   6.822 -0.1534  0.1549 -0.2903
  141OSM    H6S15421   2.782   5.472   6.831  0.6304 -0.8147  1.0555
  141OSM    H6T15422   2.847   5.640   6.800  1.3227  0.2616 -1.6252
  141OSM    C7S15423   2.940   5.524   6.960  0.5556 -0.3258  0.3308
  141OSM    H7S15424   3.043   5.559   6.939  0.7394  0.2796  2.1952
  141OSM    H7T15425   2.946   5.422   7.004  2.3509 -0.3585  0.0299
  141OSM    C8S15426   2.872   5.619   7.061 -0.1315 -0.7393 -0.1652
  141OSM    H8S15427   2.772   5.574   7.077 -0.3414 -0.1465  0.1987
  141OSM    H8T15428   2.845   5.715   7.012  0.0875 -0.9668 -0.7365
  141OSM    C9S15429   2.957   5.621   7.192  1.2615  0.2405  0.5293
  141OSM    H9S15430   3.059   5.656   7.166  0.5793  2.0266  0.1411
  141OSM    H9T15431   2.971   5.514   7.215  0.4796  0.1434  0.5709
  141OSM   C10S15432   2.886   5.700   7.305  0.4840  0.1361  0.2459
  141OSM   H10S15433   2.777   5.678   7.297  0.6987 -0.9314  0.1339
  141OSM   H10T15434   2.905   5.809   7.303 -0.4739  0.3548  1.9893
  141OSM   C11S15435   2.945   5.649   7.439  0.5365 -0.3925  0.1504
  141OSM   H11S15436   3.054   5.668   7.432  0.5743 -1.0391 -1.1731
  141OSM   H11T15437   2.925   5.541   7.450  2.5202 -0.9784 -1.6002
  141OSM   C12S15438   2.885   5.730   7.553  0.2176  0.6533 -0.0253
  141OSM   H12S15439   2.775   5.714   7.562  0.7087 -1.9445  2.0071
  141OSM   H12T15440   2.899   5.840   7.540 -0.9021  0.9918  1.4525
  141OSM   C13S15441   2.950   5.689   7.688  0.1523 -0.8396  0.0075
  141OSM   H13S15442   3.054   5.728   7.691 -0.5734  1.0482  2.3870
  141OSM   H13T15443   2.941   5.580   7.706  0.3313 -0.5129  2.2647
  141OSM   C14S15444   2.879   5.755   7.812 -0.3903 -0.5028  0.2032
  141OSM   H14S15445   2.800   5.685   7.847 -2.4413  1.7041  0.0986
  141OSM   H14T15446   2.841   5.850   7.767  2.2743  0.4363 -0.1316
  141OSM   C15S15447   2.972   5.787   7.923 -0.9152 -0.1957  0.7007
  141OSM   H15S15448   3.062   5.828   7.873 -0.7685 -1.2962  0.0463
  141OSM   H15T15449   3.006   5.692   7.969 -2.5479 -0.2221  1.8974
  141OSM   C16S15450   2.927   5.888   8.032 -0.5794  0.3188  0.6648
  141OSM   H16S15451   2.908   5.985   7.980  3.0715  0.6800 -0.0921
  141OSM   H16T15452   3.018   5.897   8.094 -0.3033 -0.6797  0.4029
  141OSM   C17S15453   2.798   5.834   8.103  0.7447 -0.2789  0.2039
  141OSM   H17S15454   2.838   5.748   8.161 -0.2572  0.0120  1.3448
  141OSM   H17T15455   2.717   5.788   8.043  0.8778 -1.3786  0.8545
  141OSM   C18S15456   2.743   5.925   8.213 -0.0499  0.0523 -0.4072
  141OSM   H18S15457   2.636   5.904   8.233 -0.3160  1.3052 -0.4482
  141OSM   H18T15458   2.741   6.025   8.166  0.0244  0.8347  1.2023
  141OSM   H18U15459   2.809   5.937   8.302 -1.6782 -2.0489  1.1338
  141OSM    C1F15460   3.451   5.487   6.637 -0.1395 -0.7055  0.1050
  141OSM     OF15461   3.445   5.579   6.557  0.0218  0.3290  0.3272
  141OSM    C2F15462   3.579   5.450   6.702 -0.2170  0.2149 -0.1546
  141OSM    H2F15463   3.644   5.403   6.625  1.1661  1.1023  0.4512
  141OSM    H2G15464   3.547   5.369   6.770 -3.4825  0.3634 -1.3968
  141OSM    C3F15465   3.642   5.562   6.786 -0.5696 -0.0229 -0.6400
  141OSM    H3F15466   3.672   5.652   6.728 -0.2858  0.0921 -0.3196
  141OSM    H3G15467   3.742   5.530   6.822  0.4141  1.7992 -1.6658
  141OSM    C4F15468   3.555   5.593   6.910 -0.1053 -0.2217  0.6166
  141OSM    H4F15469   3.519   5.498   6.958  0.4149  0.2617  1.9898
  141OSM    H4G15470   3.467   5.656   6.884 -0.8090 -1.9926 -1.4166
  141OSM    C5F15471   3.631   5.669   7.024  0.4987 -0.1505 -0.4947
  141OSM    H5F15472   3.686   5.748   6.968 -0.5747  1.1522  0.2252
  141OSM    H5G15473   3.709   5.608   7.074 -0.5963 -1.1633  0.0051
  141OSM    C6F15474   3.537   5.730   7.125  0.5480 -0.1190  0.9840
  141OSM    H6F15475   3.462   5.797   7.078 -1.1067 -0.9772  2.3402
  141OSM    H6G15476   3.595   5.791   7.196  1.7141  1.1776 -1.0197
  141OSM    C7F15477   3.449   5.630   7.201 -0.1757  0.2524 -0.0688
  141OSM    H7F15478   3.525   5.554   7.229 -3.5248 -2.3988  2.2729
  141OSM    H7G15479   3.375   5.582   7.134  0.7526  0.6117 -1.3812
  141OSM    C8F15480   3.395   5.693   7.326  0.1939 -0.8436  0.5034
  141OSM    H8F15481   3.302   5.643   7.361  0.5588 -0.9015  1.4096
  141OSM    H8G15482   3.376   5.801   7.311  0.8125 -1.1523 -2.7855
  141OSM    C9F15483   3.499   5.695   7.440  0.2598  0.3232  0.0835
  141OSM    H9F15484   3.602   5.719   7.409  1.0079 -0.1394  2.1654
  141OSM   C10F15485   3.481   5.659   7.571  0.2688  0.4977  0.1686
  141OSM   H10F15486   3.569   5.662   7.637  1.1964  0.7623 -1.0521
  141OSM   C11F15487   3.344   5.623   7.630  0.0770  0.3278  0.1035
  141OSM   H11F15488   3.322   5.514   7.626 -2.9760  0.9004  0.1361
  141OSM   H11G15489   3.252   5.663   7.582  0.3499  2.1388  1.0119
  141OSM   C12F15490   3.339   5.661   7.777  0.3796  0.1718 -0.3113
  141OSM   H12F15491   3.240   5.628   7.816  0.9577 -0.9049  0.2684
  141OSM   H12G15492   3.354   5.770   7.791  2.1792 -0.2090  0.8528
  141OSM   C13F15493   3.437   5.594   7.874  0.5463  0.2480  0.3325
  141OSM   H13F15494   3.540   5.615   7.838 -0.1506  0.7579 -1.4498
  141OSM   H13G15495   3.409   5.486   7.874  0.2556  0.2976 -1.6039
  141OSM   C14F15496   3.401   5.645   8.019 -0.7637  1.1750 -0.5041
  141OSM   H14F15497   3.291   5.641   8.036 -0.9188  2.3908 -1.1488
  141OSM   H14G15498   3.433   5.749   8.038 -0.8073  0.8121  1.6876
  141OSM   C15F15499   3.479   5.557   8.127 -0.5975  0.0488  0.0614
  141OSM   H15F15500   3.562   5.628   8.145  1.6174 -2.3068 -0.5498
  141OSM   H15G15501   3.534   5.466   8.096  0.4069  0.4120  0.7615
  141OSM   C16F15502   3.403   5.548   8.261 -0.5680  0.2022 -0.3247
  141OSM   H16F15503   3.361   5.647   8.290 -2.6668 -1.0582  1.1042
  141OSM   H16G15504   3.470   5.520   8.345 -0.7301  1.6313  0.2976
  141OSM   C17F15505   3.289   5.451   8.260  0.4240 -0.6730 -0.2982
  141OSM   H17F15506   3.331   5.350   8.280 -0.6337 -1.1295 -0.3205
  141OSM   H17G15507   3.227   5.442   8.168  2.1722 -0.9793 -1.4687
  141OSM   C18F15508   3.197   5.495   8.376  0.3657 -0.7541 -0.2386
  141OSM   H18F15509   3.111   5.426   8.389 -1.1275  1.4791  2.2420
  141OSM   H18G15510   3.156   5.598   8.371 -1.4032 -1.2765  2.2979
  141OSM   H18H15511   3.254   5.483   8.471  0.4666 -1.1776 -0.3515
  142OSM      N15512   3.389   0.295   6.072 -0.4795 -0.2965 -0.0951
  142OSM    C1515513   3.311   0.256   5.941  0.0174 -0.1518 -0.0916
  142OSM   H15A15514   3.215   0.217   5.971 -0.0465  1.7249  2.2386
  142OSM   H15B15515   3.372   0.173   5.907  2.1740  1.3324  0.0951
  142OSM   H15C15516   3.292   0.340   5.876  1.5695  0.7434  0.5768
  142OSM    C1415517   3.397   0.190   6.179 -0.1641 -0.0584 -0.4627
  142OSM   H14A15518   3.297   0.182   6.217 -1.3771  1.6490 -3.1401
  142OSM   H14B15519   3.465   0.227   6.255  0.8194 -1.2849 -0.7312
  142OSM   H14C15520   3.433   0.092   6.153  0.2897 -0.0002 -0.0670
  142OSM    C1315521   3.531   0.325   6.038  0.4586  0.2794  0.4614
  142OSM   H13A15522   3.592   0.357   6.122  0.4145 -1.7849  1.3011
  142OSM   H13B15523   3.543   0.400   5.961  0.5883 -0.9138 -0.6853
  142OSM   H13C15524   3.566   0.230   6.001 -0.0062 -0.9553  3.0355
  142OSM    C1215525   3.330   0.416   6.133 -0.2521  0.0615  0.4787
  142OSM   H12A15526   3.316   0.486   6.052 -0.6174  0.5357  0.9475
  142OSM   H12B15527   3.395   0.458   6.209 -0.9168  0.4012  0.8691
  142OSM    C1115528   3.200   0.397   6.206  0.0283  0.5511 -0.5282
  142OSM   H11A15529   3.199   0.308   6.274  0.4869 -1.3165 -2.8916
  142OSM   H11B15530   3.129   0.384   6.122 -0.2540  1.3444 -0.4151
  142OSM      P15531   3.039   0.533   6.357 -0.0093 -0.1598 -0.5650
  142OSM    O1315532   3.017   0.680   6.334 -0.1167 -0.2259 -0.0327
  142OSM    O1415533   2.931   0.449   6.302 -0.0856  0.5441  0.0500
  142OSM    O1115534   3.079   0.508   6.498  0.5603  0.0718  0.3459
  142OSM    O1215535   3.170   0.509   6.278 -0.5460 -0.0294 -0.2941
  142OSM    C1S15536   3.216   0.517   6.546  0.2355  0.4063  0.2130
  142OSM    H1S15537   3.254   0.620   6.529  3.5866 -0.7540  0.1613
  142OSM    H1T15538   3.281   0.445   6.490  0.6344 -0.3203  1.5919
  142OSM     NF15539   3.322   0.557   6.765 -0.3154  0.0169  0.4690
  142OSM    HNF15540   3.384   0.497   6.815  0.9270  0.3409 -0.6586
  142OSM    C2S15541   3.209   0.495   6.704 -0.1175 -0.7701 -0.4592
  142OSM    H2S15542   3.123   0.556   6.737  0.2653 -0.8077  0.6138
  142OSM    C3S15543   3.173   0.350   6.748 -0.0825 -0.4401  0.1475
  142OSM    H3S15544   3.264   0.291   6.723  0.2276 -0.2797  0.8950
  142OSM     O315545   3.061   0.289   6.682  0.1061 -0.0612  0.0488
  142OSM    HO315546   3.064   0.336   6.598 -0.0733 -1.7570 -0.9404
  142OSM    C4S15547   3.150   0.343   6.899  0.1119  0.5088 -0.3400
  142OSM    H4S15548   3.246   0.319   6.947 -0.5954 -0.7770  0.4666
  142OSM    C5S15549   3.030   0.342   6.966 -0.5339 -0.0031 -0.7965
  142OSM    H5S15550   2.938   0.348   6.905 -1.8709  0.3482  1.2199
  142OSM    C6S15551   2.997   0.338   7.110 -0.1637 -0.8555  1.1761
  142OSM    H6S15552   2.999   0.230   7.138  0.7346 -1.1683 -0.0367
  142OSM    H6T15553   2.893   0.376   7.125  0.6082  2.0765 -0.5334
  142OSM    C7S15554   3.085   0.415   7.206  0.3219  0.2537 -0.2814
  142OSM    H7S15555   3.085   0.523   7.181  0.3422 -0.0005 -1.4184
  142OSM    H7T15556   3.192   0.388   7.200  1.0044  2.5756  0.8315
  142OSM    C8S15557   3.032   0.391   7.353 -0.0400  0.7504 -0.6996
  142OSM    H8S15558   3.024   0.281   7.362  0.9099  0.8735  2.3221
  142OSM    H8T15559   2.930   0.436   7.356 -0.6469 -0.5600 -1.2960
  142OSM    C9S15560   3.117   0.461   7.460  0.5554 -0.2627  0.2105
  142OSM    H9S15561   3.118   0.571   7.446 -2.7632 -0.4594 -2.5578
  142OSM    H9T15562   3.218   0.415   7.461  1.1185  0.9706 -0.2399
  142OSM   C10S15563   3.069   0.439   7.603 -0.3916  0.1495 -0.5306
  142OSM   H10S15564   3.047   0.332   7.622 -0.4963  0.1953 -0.3938
  142OSM   H10T15565   2.974   0.495   7.618  0.6971  1.6111  1.3396
  142OSM   C11S15566   3.164   0.498   7.712  0.2867  0.1952  0.3548
  142OSM   H11S15567   3.163   0.609   7.702  2.2761  0.4996  2.9601
  142OSM   H11T15568   3.269   0.460   7.712  0.3202  0.2441  2.3412
  142OSM   C12S15569   3.097   0.474   7.853 -0.3618  0.2222  0.2844
  142OSM   H12S15570   3.068   0.371   7.881 -0.3495  0.1932  0.1887
  142OSM   H12T15571   3.003   0.534   7.864  1.1135  2.2501  2.3426
  142OSM   C13S15572   3.187   0.542   7.957  0.4381 -0.3133  0.1286
  142OSM   H13S15573   3.202   0.649   7.930 -0.7236  0.0574  0.9060
  142OSM   H13T15574   3.283   0.487   7.967  0.9021 -0.2096 -3.2032
  142OSM   C14S15575   3.110   0.557   8.093 -0.4343 -0.6886 -0.8093
  142OSM   H14S15576   3.100   0.456   8.138  2.2298 -0.8370 -0.4297
  142OSM   H14T15577   3.011   0.602   8.073 -0.3724 -0.5762 -0.8647
  142OSM   C15S15578   3.188   0.642   8.198  0.2905  0.0766  0.2849
  142OSM   H15S15579   3.184   0.746   8.158  0.8182  0.0135  0.0562
  142OSM   H15T15580   3.293   0.613   8.218  0.6272  2.0067  1.4219
  142OSM   C16S15581   3.117   0.632   8.336  0.0283 -0.2492  0.5082
  142OSM   H16S15582   3.117   0.526   8.370 -0.0964 -0.8304 -1.2366
  142OSM   H16T15583   3.014   0.672   8.327 -0.0766 -0.9719 -2.0591
  142OSM   C17S15584   3.198   0.728   8.432  0.2139  0.0623 -0.3979
  142OSM   H17S15585   3.221   0.821   8.375  0.4209  0.8017  0.8891
  142OSM   H17T15586   3.295   0.677   8.449 -0.6439 -1.2770  0.5262
  142OSM   C18S15587   3.143   0.742   8.564 -0.3066  0.5714 -0.6374
  142OSM   H18S15588   3.156   0.645   8.617 -1.1539  1.1930  0.7324
  142OSM   H18T15589   3.042   0.784   8.580 -0.2980  0.0935  0.7566
  142OSM   H18U15590   3.214   0.811   8.616  0.2446  0.5361 -1.3304
  142OSM    C1F15591   3.356   0.685   6.757 -0.5676  0.2362  0.1458
  142OSM     OF15592   3.284   0.766   6.704  0.2986  0.3045 -0.4764
  142OSM    C2F15593   3.491   0.717   6.802  0.2772  0.4793 -0.4854
  142OSM    H2F15594   3.548   0.775   6.726  1.2182  0.1573 -0.0235
  142OSM    H2G15595   3.545   0.623   6.823  0.5842  0.8025  0.1964
  142OSM    C3F15596   3.499   0.799   6.936 -0.1828 -0.0997  0.7152
  142OSM    H3F15597   3.445   0.893   6.909  1.2494  0.4134 -0.4301
  142OSM    H3G15598   3.604   0.836   6.941 -0.1192 -0.0258 -0.9198
  142OSM    C4F15599   3.443   0.745   7.069 -0.1448 -0.1977  0.5096
  142OSM    H4F15600   3.339   0.710   7.055  0.0345  0.0822 -1.6754
  142OSM    H4G15601   3.448   0.828   7.143 -1.4659 -1.9061  2.5527
  142OSM    C5F15602   3.536   0.630   7.117  0.2192  1.2093 -0.4157
  142OSM    H5F15603   3.636   0.675   7.134  0.6779  0.5170 -1.2468
  142OSM    H5G15604   3.546   0.557   7.034  1.4409 -0.1764  0.9092
  142OSM    C6F15605   3.498   0.551   7.244 -0.0611  0.5975  0.0386
  142OSM    H6F15606   3.405   0.493   7.221  0.4836 -0.5948  0.7710
  142OSM    H6G15607   3.471   0.616   7.330  1.9781  0.6524  0.6546
  142OSM    C7F15608   3.595   0.439   7.288  0.3350  0.3027  0.3120
  142OSM    H7F15609   3.691   0.477   7.330  0.1056  0.2569  0.8965
  142OSM    H7G15610   3.606   0.374   7.199  2.1204  0.9752  0.0104
  142OSM    C8F15611   3.528   0.361   7.402 -0.4438 -0.2806  0.3427
  142OSM    H8F15612   3.608   0.287   7.423  1.5502  1.8755  0.5669
  142OSM    H8G15613   3.438   0.309   7.363 -0.7803  1.2007 -0.8727
  142OSM    C9F15614   3.493   0.433   7.526 -0.4729 -0.0834 -0.1856
  142OSM    H9F15615   3.419   0.513   7.506 -2.2617 -1.4019  1.0377
  142OSM   C10F15616   3.540   0.423   7.653 -0.1457  0.0447  0.7099
  142OSM   H10F15617   3.505   0.494   7.730 -0.3094 -0.1862  0.8489
  142OSM   C11F15618   3.655   0.339   7.703 -0.4477  0.4953  0.0854
  142OSM   H11F15619   3.731   0.313   7.626 -0.2296 -1.7593  1.0160
  142OSM   H11G15620   3.605   0.247   7.739 -3.4783  2.7145  1.7453
  142OSM   C12F15621   3.734   0.401   7.815  0.1783 -0.3619 -0.5647
  142OSM   H12F15622   3.776   0.503   7.796  2.1609 -1.2327 -1.0193
  142OSM   H12G15623   3.826   0.340   7.831  0.2020 -0.4135 -0.8962
  142OSM   C13F15624   3.668   0.401   7.953  0.4973  0.1656  0.1178
  142OSM   H13F15625   3.653   0.302   8.001 -2.3205 -0.5050 -1.9984
  142OSM   H13G15626   3.568   0.444   7.928  0.9696  2.0991  1.4345
  142OSM   C14F15627   3.725   0.511   8.047 -0.6001 -0.0528 -0.0911
  142OSM   H14F15628   3.654   0.554   8.120 -1.6167 -0.5444 -0.7708
  142OSM   H14G15629   3.749   0.602   7.988  1.5471  1.6304  3.2905
  142OSM   C15F15630   3.851   0.459   8.119  0.5096  0.4318  0.2549
  142OSM   H15F15631   3.930   0.430   8.047  1.7932  0.5858  1.5812
  142OSM   H15G15632   3.829   0.372   8.185 -3.4959 -0.3287 -1.9345
  142OSM   C16F15633   3.909   0.574   8.208  0.1312  0.1980  0.7444
  142OSM   H16F15634   3.829   0.594   8.283 -1.1161  0.7246 -0.6899
  142OSM   H16G15635   3.920   0.665   8.147 -0.9997 -0.2442 -0.1381
  142OSM   C17F15636   4.047   0.544   8.271  0.1464  0.2292  0.6550
  142OSM   H17F15637   4.083   0.634   8.325  0.6406 -0.0206  0.7417
  142OSM   H17G15638   4.120   0.541   8.187 -1.8935  2.5070 -1.2860
  142OSM   C18F15639   4.055   0.419   8.357  0.4938  0.1428  0.1275
  142OSM   H18F15640   4.061   0.328   8.293 -1.1740 -1.0514  1.5869
  142OSM   H18G15641   3.966   0.424   8.423  0.7920 -1.0134  0.6410
  142OSM   H18H15642   4.149   0.401   8.413  0.2595  0.0947  0.5036
  143OSM      N15643   4.920   2.671   5.744 -0.2044 -0.5389 -0.4264
  143OSM    C1515644   4.979   2.555   5.663 -0.2676 -0.2073  0.1319
  143OSM   H15A15645   5.037   2.587   5.578  2.5264 -0.6666  1.8052
  143OSM   H15B15646   4.891   2.512   5.618 -0.6505  0.3115  0.3711
  143OSM   H15C15647   5.032   2.483   5.723 -0.4390 -1.2048 -0.8996
  143OSM    C1415648   5.023   2.752   5.814 -0.3203 -0.5735 -0.1518
  143OSM   H14A15649   5.040   2.712   5.913  2.1809 -0.1206 -0.3731
  143OSM   H14B15650   4.983   2.851   5.833 -1.3730 -1.2121  1.0323
  143OSM   H14C15651   5.118   2.757   5.763 -0.4252  0.0278 -0.2885
  143OSM    C1315652   4.841   2.761   5.647  0.0625  0.4602 -0.1918
  143OSM   H13A15653   4.907   2.792   5.567  1.0767  0.4264  0.6246
  143OSM   H13B15654   4.799   2.846   5.698  1.3494  0.6907  0.5017
  143OSM   H13C15655   4.764   2.701   5.601 -1.0689  1.0096  0.9754
  143OSM    C1215656   4.828   2.605   5.850 -0.1562  0.1729 -0.7105
  143OSM   H12A15657   4.752   2.544   5.804 -0.4291  0.2852 -0.4148
  143OSM   H12B15658   4.772   2.684   5.898 -0.0920 -1.3575  1.9482
  143OSM    C1115659   4.881   2.523   5.964  0.0429  0.1689 -0.1959
  143OSM   H11A15660   4.943   2.437   5.931 -0.1498 -0.2681  0.5633
  143OSM   H11B15661   4.795   2.466   6.006  1.5249 -0.4091  2.1131
  143OSM      P15662   4.865   2.663   6.181 -0.0584  0.5500  0.2843
  143OSM    O1315663   4.881   2.808   6.186 -0.6939 -0.1831  0.2993
  143OSM    O1415664   4.718   2.621   6.176 -0.2216 -0.9083  0.4153
  143OSM    O1115665   4.933   2.590   6.302 -0.4244 -0.1104 -0.0042
  143OSM    O1215666   4.942   2.610   6.054  0.1988  0.6196  0.1994
  143OSM    C1S15667   5.076   2.603   6.325 -0.0901  0.1654  0.3704
  143OSM    H1S15668   5.121   2.669   6.248 -0.4487  1.7689  1.4956
  143OSM    H1T15669   5.121   2.503   6.307 -1.8959 -0.1302 -2.6711
  143OSM     NF15670   5.239   2.686   6.487  0.3205 -0.5260  0.2809
  143OSM    HNF15671   5.285   2.606   6.524  0.0955  0.0727  1.8854
  143OSM    C2S15672   5.093   2.665   6.464 -0.1775 -0.0521  0.2664
  143OSM    H2S15673   5.037   2.761   6.464 -2.2105 -1.2122 -1.4139
  143OSM    C3S15674   5.021   2.580   6.572 -0.0214  0.0121 -0.4054
  143OSM    H3S15675   5.070   2.480   6.578  0.8315  0.4887  1.0571
  143OSM     O315676   4.886   2.549   6.550  0.1831  0.3687 -0.2123
  143OSM    HO315677   4.876   2.567   6.457 -2.3872  0.9192  0.1295
  143OSM    C4S15678   5.029   2.653   6.703 -0.1397 -0.4241 -0.9194
  143OSM    H4S15679   4.973   2.748   6.709 -2.0233 -1.6279  1.4632
  143OSM    C5S15680   5.100   2.627   6.815  0.2367  0.1392 -0.3953
  143OSM    H5S15681   5.166   2.541   6.833 -0.3269 -0.4121 -0.9784
  143OSM    C6S15682   5.085   2.716   6.933  0.6303 -0.0999  0.0652
  143OSM    H6S15683   5.013   2.799   6.924  1.5621  0.7863  0.7089
  143OSM    H6T15684   5.188   2.756   6.948 -0.5133  2.4705  1.2953
  143OSM    C7S15685   5.038   2.634   7.055  0.1821 -0.7275  0.9340
  143OSM    H7S15686   5.121   2.567   7.085  0.4877  0.1028  1.9539
  143OSM    H7T15687   4.956   2.571   7.014  0.3740 -1.4599  1.6703
  143OSM    C8S15688   4.994   2.711   7.187 -0.2912 -0.3325 -0.7329
  143OSM    H8S15689   4.916   2.789   7.177  0.7034  1.2593  3.0721
  143OSM    H8T15690   5.092   2.761   7.205  0.5068 -2.2193  0.3451
  143OSM    C9S15691   4.966   2.622   7.309  0.1700 -0.3456 -0.3239
  143OSM    H9S15692   5.050   2.550   7.319  0.6219  0.2097 -0.0359
  143OSM    H9T15693   4.878   2.560   7.284  0.5571 -0.0748 -2.5107
  143OSM   C10S15694   4.943   2.691   7.447 -0.0869 -0.0042 -0.4881
  143OSM   H10S15695   5.036   2.732   7.491 -0.5335  0.8948 -0.3619
  143OSM   H10T15696   4.916   2.613   7.521  0.4220 -1.1021 -1.4473
  143OSM   C11S15697   4.842   2.799   7.442  1.0906 -0.0075  0.3111
  143OSM   H11S15698   4.764   2.750   7.380 -0.3150  2.6820 -0.1032
  143OSM   H11T15699   4.880   2.886   7.384 -1.3765  0.9159  0.0255
  143OSM   C12S15700   4.773   2.839   7.574 -0.2480  0.6864  0.1887
  143OSM   H12S15701   4.729   2.746   7.616  0.6962  0.1311 -0.0215
  143OSM   H12T15702   4.700   2.921   7.556 -4.5442 -2.8369  0.7161
  143OSM   C13S15703   4.876   2.904   7.679 -0.0111  0.5774 -0.6564
  143OSM   H13S15704   4.954   2.973   7.640  0.6716 -0.2546 -0.7913
  143OSM   H13T15705   4.939   2.827   7.727  2.0780  2.6242 -0.0125
  143OSM   C14S15706   4.795   2.985   7.785 -0.5328  0.1577 -0.1683
  143OSM   H14S15707   4.755   2.918   7.864  0.4920  0.8219  0.9177
  143OSM   H14T15708   4.706   3.039   7.747 -1.2025  0.0945  1.3036
  143OSM   C15S15709   4.888   3.087   7.856 -0.3035 -0.2230  0.6395
  143OSM   H15S15710   4.828   3.159   7.914  0.1523  0.1489  0.6491
  143OSM   H15T15711   4.933   3.137   7.768  2.4133 -0.9125  1.6036
  143OSM   C16S15712   5.000   3.035   7.946  0.4453 -0.6451 -0.3376
  143OSM   H16S15713   5.053   2.953   7.893  1.6809 -0.5572  0.7198
  143OSM   H16T15714   4.961   2.990   8.040  2.3654  0.1569  0.8892
  143OSM   C17S15715   5.093   3.140   7.991 -0.0349 -0.0685  0.6994
  143OSM   H17S15716   5.104   3.203   7.900 -1.9952 -0.1108  0.4122
  143OSM   H17T15717   5.187   3.089   8.020  0.4220 -1.1512 -2.4909
  143OSM   C18S15718   5.029   3.224   8.103  0.1731  0.3074  0.3218
  143OSM   H18S15719   5.092   3.313   8.129 -1.0000  1.3879 -0.4851
  143OSM   H18T15720   5.018   3.165   8.197  1.1826 -0.8483 -0.2684
  143OSM   H18U15721   4.930   3.261   8.070  0.5753 -0.2821 -1.6021
  143OSM    C1F15722   5.311   2.784   6.431 -0.3476 -0.5748 -0.2587
  143OSM     OF15723   5.262   2.875   6.363  0.0200 -0.1118 -0.2024
  143OSM    C2F15724   5.458   2.790   6.465 -0.3822  0.5452  0.4528
  143OSM    H2F15725   5.496   2.876   6.407  0.1776  0.5064  0.7584
  143OSM    H2G15726   5.512   2.695   6.446 -0.5287  0.4842  0.3411
  143OSM    C3F15727   5.454   2.831   6.616 -0.1132 -0.0794  0.1039
  143OSM    H3F15728   5.387   2.759   6.668  0.8245 -0.8268  0.2861
  143OSM    H3G15729   5.416   2.936   6.619 -0.6341 -0.2539 -0.3337
  143OSM    C4F15730   5.592   2.812   6.689 -0.2185 -0.2605 -0.9117
  143OSM    H4F15731   5.673   2.873   6.642  0.5520  1.1762  2.1239
  143OSM    H4G15732   5.632   2.710   6.674 -1.3688 -0.7020 -0.9519
  143OSM    C5F15733   5.595   2.844   6.837 -0.5030 -0.2858  0.2771
  143OSM    H5F15734   5.531   2.770   6.889 -0.0183  0.2152  1.5854
  143OSM    H5G15735   5.556   2.948   6.836 -1.6450 -0.7054 -0.6895
  143OSM    C6F15736   5.733   2.853   6.900 -0.0826 -0.1475  0.1359
  143OSM    H6F15737   5.794   2.911   6.827  0.2753  0.6774  1.0804
  143OSM    H6G15738   5.785   2.758   6.925 -0.8069 -0.2837  1.1389
  143OSM    C7F15739   5.721   2.945   7.019  0.3428 -0.1913  0.0735
  143OSM    H7F15740   5.661   2.901   7.102 -1.7965  1.9673 -0.2514
  143OSM    H7G15741   5.664   3.039   6.998 -0.3027 -0.2328  1.5653
  143OSM    C8F15742   5.858   2.989   7.078  0.9909  0.1469  0.4819
  143OSM    H8F15743   5.840   3.063   7.159 -0.2907  0.8655 -0.4276
  143OSM    H8G15744   5.903   3.043   6.992 -1.2775  2.5105  0.7114
  143OSM    C9F15745   5.943   2.881   7.137  0.4373  0.3641 -0.1842
  143OSM    H9F15746   5.996   2.807   7.075 -1.3820 -1.2741  0.1618
  143OSM   C10F15747   5.968   2.864   7.270  0.0590  0.5913  0.1180
  143OSM   H10F15748   6.027   2.776   7.302 -0.0705  0.4610  0.0025
  143OSM   C11F15749   5.927   2.948   7.387  0.2431 -0.2236  0.4118
  143OSM   H11F15750   5.817   2.962   7.387  0.3576  0.7917 -1.8686
  143OSM   H11G15751   5.984   3.043   7.379 -0.8306  0.2327 -2.4020
  143OSM   C12F15752   5.947   2.900   7.534  0.0221 -0.4134 -0.9833
  143OSM   H12F15753   5.904   2.982   7.594  0.3306 -1.9960  1.4794
  143OSM   H12G15754   6.054   2.889   7.562 -0.4311 -2.2124  0.1086
  143OSM   C13F15755   5.867   2.776   7.581 -0.4783 -0.4479  0.4750
  143OSM   H13F15756   5.909   2.687   7.530  2.6915 -0.0058  2.1986
  143OSM   H13G15757   5.760   2.799   7.560 -1.0333 -2.1301  1.3613
  143OSM   C14F15758   5.875   2.738   7.732 -0.1523 -0.2452 -0.4178
  143OSM   H14F15759   5.818   2.816   7.786 -1.4198 -0.0383 -2.0134
  143OSM   H14G15760   5.980   2.751   7.765  0.1219 -2.2923 -0.3877
  143OSM   C15F15761   5.823   2.596   7.756 -0.6359 -0.3229  0.4758
  143OSM   H15F15762   5.869   2.537   7.673 -0.2079  3.9523 -2.4997
  143OSM   H15G15763   5.713   2.595   7.746 -0.7206 -0.7233  1.3986
  143OSM   C16F15764   5.854   2.531   7.890  0.4508 -0.0961 -0.4265
  143OSM   H16F15765   5.963   2.547   7.908  0.1877  1.1401  0.0947
  143OSM   H16G15766   5.824   2.424   7.886 -2.4040  0.6489  0.4190
  143OSM   C17F15767   5.768   2.600   8.000  0.2935 -0.7601  0.0997
  143OSM   H17F15768   5.659   2.607   7.979  0.1801  1.2912  1.2565
  143OSM   H17G15769   5.807   2.703   8.012 -0.5354 -0.6974  2.5246
  143OSM   C18F15770   5.768   2.527   8.138  0.0383 -0.3286 -0.4624
  143OSM   H18F15771   5.871   2.490   8.158 -0.4487 -0.4109  1.9874
  143OSM   H18G15772   5.703   2.438   8.132  0.0329 -0.4154  0.8513
  143OSM   H18H15773   5.736   2.593   8.221  0.5574  0.6224 -1.0012
  144OSM      N15774   4.592   1.588   6.174  0.6222 -0.8384  0.9859
  144OSM    C1515775   4.459   1.602   6.090  0.1052 -0.2790 -0.4603
  144OSM   H15A15776   4.393   1.516   6.090  1.5677 -1.4242  1.0929
  144OSM   H15B15777   4.487   1.618   5.987 -2.7612  0.5196 -1.1758
  144OSM   H15C15778   4.402   1.687   6.126  0.5670 -0.1991  0.0813
  144OSM    C1415779   4.551   1.529   6.306 -0.7229 -0.2905  0.5377
  144OSM   H14A15780   4.522   1.425   6.296  3.1460 -1.4144 -0.0454
  144OSM   H14B15781   4.482   1.586   6.367 -0.9670 -1.1784  1.1048
  144OSM   H14C15782   4.633   1.525   6.377 -0.8396 -0.5747  0.6588
  144OSM    C1315783   4.685   1.493   6.107 -0.5143 -0.1703 -0.9622
  144OSM   H13A15784   4.738   1.542   6.027  0.2370 -2.5518 -1.9626
  144OSM   H13B15785   4.626   1.415   6.062 -0.7843 -1.6602  1.8589
  144OSM   H13C15786   4.764   1.464   6.175 -1.0747  1.9288  0.6341
  144OSM    C1215787   4.654   1.722   6.194 -0.1984 -0.3614  0.9095
  144OSM   H12A15788   4.694   1.760   6.101  1.4432  1.6448  2.3868
  144OSM   H12B15789   4.743   1.702   6.251  1.4144  0.4602 -1.2531
  144OSM    C1115790   4.576   1.833   6.269 -0.2001 -0.4580 -0.1666
  144OSM   H11A15791   4.648   1.914   6.296 -0.7493 -0.8471  2.5767
  144OSM   H11B15792   4.549   1.787   6.367 -2.3251  2.0554  0.4856
  144OSM      P15793   4.365   1.979   6.266 -0.0921  0.1863  0.3961
  144OSM    O1315794   4.333   2.082   6.165  0.2142 -0.9017  0.0715
  144OSM    O1415795   4.259   1.893   6.324 -0.3391 -0.4174 -0.0258
  144OSM    O1115796   4.459   2.047   6.377  0.3263  0.0552 -0.3296
  144OSM    O1215797   4.467   1.884   6.193 -0.0895 -0.5410  0.2578
  144OSM    C1S15798   4.396   2.147   6.466 -0.2586 -0.1709  0.3663
  144OSM    H1S15799   4.305   2.194   6.423  0.5531  1.9381  0.8614
  144OSM    H1T15800   4.466   2.234   6.467  0.2860 -0.6036 -0.3226
  144OSM     NF15801   4.288   2.178   6.686 -0.5820  0.4446 -0.8630
  144OSM    HNF15802   4.335   2.231   6.755 -1.3565  1.1410 -0.8645
  144OSM    C2S15803   4.366   2.089   6.607  0.6794 -0.4960 -0.3812
  144OSM    H2S15804   4.304   1.998   6.589  0.1489 -0.4029  0.9369
  144OSM    C3S15805   4.506   2.050   6.671 -0.2321 -0.3569  0.6857
  144OSM    H3S15806   4.562   2.143   6.695  0.7041 -1.1097  1.4344
  144OSM     O315807   4.601   1.981   6.586  0.4921 -0.1915  0.6895
  144OSM    HO315808   4.562   2.002   6.501 -0.8591 -0.3170  1.2777
  144OSM    C4S15809   4.487   1.977   6.801 -0.5673 -0.4574 -0.9678
  144OSM    H4S15810   4.496   2.047   6.885 -0.9222  1.0153 -2.1234
  144OSM    C5S15811   4.471   1.844   6.820 -0.0084  0.2915 -0.3814
  144OSM    H5S15812   4.465   1.777   6.733 -1.1224  0.1518 -0.2049
  144OSM    C6S15813   4.461   1.777   6.955  0.5377  0.7214 -0.2197
  144OSM    H6S15814   4.548   1.709   6.960  1.5259  2.0765  1.7534
  144OSM    H6T15815   4.367   1.718   6.963  1.1404 -0.2208  0.0107
  144OSM    C7S15816   4.461   1.880   7.078 -0.4487  0.3576  0.1257
  144OSM    H7S15817   4.378   1.954   7.078 -1.6798 -0.9768  1.8189
  144OSM    H7T15818   4.558   1.933   7.070 -0.2545 -0.2702 -1.8835
  144OSM    C8S15819   4.457   1.808   7.207 -0.9752 -0.1395 -0.7522
  144OSM    H8S15820   4.548   1.745   7.214 -0.8540  0.1958  0.9613
  144OSM    H8T15821   4.364   1.747   7.209 -1.0807 -0.0814 -2.7845
  144OSM    C9S15822   4.454   1.904   7.331 -0.2655  0.6071  0.6299
  144OSM    H9S15823   4.363   1.966   7.316  0.1577  0.8868 -0.9229
  144OSM    H9T15824   4.538   1.976   7.335  0.0309  0.3179 -0.2723
  144OSM   C10S15825   4.446   1.818   7.462  0.3119 -0.2587 -0.3577
  144OSM   H10S15826   4.548   1.790   7.495  0.6636 -1.0903 -2.0743
  144OSM   H10T15827   4.382   1.730   7.439 -0.4842  0.3671 -0.5576
  144OSM   C11S15828   4.385   1.906   7.582  0.0578 -0.1771 -0.0078
  144OSM   H11S15829   4.307   1.975   7.545  1.6177  2.3662  1.2981
  144OSM   H11T15830   4.467   1.972   7.617 -1.0311 -0.5183  3.3591
  144OSM   C12S15831   4.323   1.824   7.699 -0.7856 -0.2667  0.9588
  144OSM   H12S15832   4.397   1.746   7.727  0.7468  0.3160 -1.3631
  144OSM   H12T15833   4.240   1.760   7.663  0.3816 -3.1070  3.1374
  144OSM   C13S15834   4.276   1.909   7.815 -0.5755  0.1340 -0.0476
  144OSM   H13S15835   4.184   1.866   7.859 -1.2665  1.4520 -0.1848
  144OSM   H13T15836   4.232   1.999   7.767 -0.2612 -0.1064 -0.7899
  144OSM   C14S15837   4.391   1.921   7.917  1.6830 -0.4742 -0.4740
  144OSM   H14S15838   4.467   1.987   7.868  0.2570  1.1503 -0.5589
  144OSM   H14T15839   4.431   1.821   7.943  1.3002  0.3027  3.3442
  144OSM   C15S15840   4.354   1.994   8.049 -0.7412  0.0497 -0.1954
  144OSM   H15S15841   4.302   2.089   8.024 -3.5684 -1.6693 -1.1375
  144OSM   H15T15842   4.443   2.018   8.111 -0.5747  1.2006 -0.8769
  144OSM   C16S15843   4.262   1.919   8.150 -0.6581  0.2587  0.3014
  144OSM   H16S15844   4.172   1.884   8.095 -0.2823 -0.1862 -0.0311
  144OSM   H16T15845   4.237   1.991   8.231  3.9915  1.9605  0.3283
  144OSM   C17S15846   4.330   1.795   8.210  0.3955 -0.9841 -0.1171
  144OSM   H17S15847   4.411   1.825   8.279  0.0704 -2.4984  0.9607
  144OSM   H17T15848   4.372   1.744   8.121  0.9380  0.0722 -0.4706
  144OSM   C18S15849   4.226   1.705   8.288 -0.2265  0.1401 -0.1816
  144OSM   H18S15850   4.184   1.763   8.373 -3.2380 -3.5153  0.9765
  144OSM   H18T15851   4.267   1.610   8.329  3.2664  0.2752 -3.1514
  144OSM   H18U15852   4.145   1.675   8.218 -0.2206 -0.1781 -0.0502
  144OSM    C1F15853   4.164   2.212   6.652  0.0239  0.7463 -0.3815
  144OSM     OF15854   4.086   2.142   6.586 -0.7329 -0.0341  0.2611
  144OSM    C2F15855   4.121   2.349   6.703 -0.6807  0.0535  0.3369
  144OSM    H2F15856   4.144   2.431   6.631 -3.0542 -0.4507 -1.0458
  144OSM    H2G15857   4.183   2.359   6.795 -1.3238 -2.9840  1.1315
  144OSM    C3F15858   3.974   2.340   6.743  0.4115 -0.5956  0.5555
  144OSM    H3F15859   3.912   2.310   6.655 -1.6387 -1.5161  2.2757
  144OSM    H3G15860   3.950   2.445   6.766 -0.0506 -0.3287 -1.0645
  144OSM    C4F15861   3.948   2.246   6.861 -0.2392 -0.0820  0.5956
  144OSM    H4F15862   3.995   2.147   6.845 -1.0333 -0.6663  1.7868
  144OSM    H4G15863   3.841   2.221   6.876 -0.0627 -0.8306  0.6206
  144OSM    C5F15864   4.014   2.298   6.994  0.2265  0.0825  0.1533
  144OSM    H5F15865   3.969   2.392   7.033  0.0278 -0.0921  0.3386
  144OSM    H5G15866   4.123   2.315   6.979  0.6961 -4.4209 -2.2401
  144OSM    C6F15867   4.014   2.185   7.103  0.3182  0.0577 -1.1784
  144OSM    H6F15868   4.075   2.093   7.087  0.0642 -0.1766 -0.8110
  144OSM    H6G15869   3.907   2.156   7.109 -0.1052  1.6922 -0.5922
  144OSM    C7F15870   4.050   2.247   7.243 -0.1176  0.3924  0.0682
  144OSM    H7F15871   3.970   2.322   7.264 -1.9078 -1.9771  2.0900
  144OSM    H7G15872   4.141   2.302   7.212 -0.1234 -1.5565 -3.6612
  144OSM    C8F15873   4.091   2.149   7.354  0.7433 -0.2627  0.0124
  144OSM    H8F15874   4.138   2.198   7.442  0.7186 -0.5786  0.2011
  144OSM    H8G15875   4.159   2.072   7.312  1.7349  0.2999  0.5390
  144OSM    C9F15876   3.975   2.071   7.414  0.0228 -0.5151  0.2256
  144OSM    H9F15877   3.914   2.019   7.339  2.2332 -0.1344 -1.8718
  144OSM   C10F15878   3.920   2.073   7.536  0.5514 -0.3035  0.0029
  144OSM   H10F15879   3.828   2.014   7.546  0.3594  0.1286  0.8938
  144OSM   C11F15880   3.956   2.154   7.660  0.0067 -0.3534  0.1513
  144OSM   H11F15881   3.994   2.256   7.639 -0.0722 -0.5762 -1.1654
  144OSM   H11G15882   4.038   2.096   7.707 -0.7424 -0.7027  1.0351
  144OSM   C12F15883   3.832   2.156   7.753 -0.1794  0.3565 -0.0532
  144OSM   H12F15884   3.841   2.061   7.810 -4.7772 -0.1619 -0.0249
  144OSM   H12G15885   3.739   2.174   7.694  0.8784  0.2098 -1.7893
  144OSM   C13F15886   3.838   2.278   7.855 -0.1314 -0.0807 -0.5456
  144OSM   H13F15887   3.811   2.368   7.795 -1.3653  0.0558  0.1868
  144OSM   H13G15888   3.939   2.295   7.898 -0.1803  1.1606 -0.9111
  144OSM   C14F15889   3.733   2.265   7.965 -0.1665 -0.1377 -0.4270
  144OSM   H14F15890   3.759   2.177   8.027  1.7793 -0.0167 -1.0329
  144OSM   H14G15891   3.636   2.247   7.914  1.5711  0.0723 -3.9892
  144OSM   C15F15892   3.721   2.388   8.051  0.1650 -0.5841  0.1467
  144OSM   H15F15893   3.693   2.473   7.985 -0.9297 -2.9132 -2.5202
  144OSM   H15G15894   3.825   2.419   8.077  0.5203 -1.5460 -0.1025
  144OSM   C16F15895   3.639   2.359   8.187  0.0136 -0.3229  0.1538
  144OSM   H16F15896   3.553   2.299   8.149 -0.0393  1.3770 -2.5732
  144OSM   H16G15897   3.603   2.454   8.233  1.3333  1.0951 -1.6866
  144OSM   C17F15898   3.721   2.278   8.288  0.0718  0.2326  0.1342
  144OSM   H17F15899   3.811   2.338   8.311 -1.0641  1.3419  1.7948
  144OSM   H17G15900   3.755   2.190   8.228  0.7377  0.0415  0.7905
  144OSM   C18F15901   3.644   2.239   8.411  0.8570  0.0212 -0.3392
  144OSM   H18F15902   3.705   2.255   8.502  0.5083 -0.7446  0.0326
  144OSM   H18G15903   3.605   2.135   8.403 -3.2259  1.4622 -0.7386
  144OSM   H18H15904   3.562   2.314   8.409 -0.3175 -1.2280  0.0079
  145SAPE     N15905   2.205   3.158  10.773  0.3321  0.1150 -0.1601
  145SAPE   HN115906   2.209   3.254  10.813 -2.5373  0.1033  0.2107
  145SAPE   HN215907   2.107   3.140  10.746  0.6976 -0.8157 -0.8878
  145SAPE   HN315908   2.223   3.098  10.857 -1.0526  0.6561  0.5368
  145SAPE   C1215909   2.299   3.126  10.659  0.0828 -0.0279 -0.2836
  145SAPE  H12A15910   2.271   3.025  10.621  0.1282 -0.3354  0.4773
  145SAPE  H12B15911   2.403   3.128  10.700  0.6738  1.7066 -1.8337
  145SAPE   C1115912   2.273   3.230  10.548  0.1389 -0.8083  0.1646
  145SAPE  H11A15913   2.179   3.204  10.495  0.4857  0.3162 -1.0108
  145SAPE  H11B15914   2.352   3.218  10.471 -0.9061  0.5268 -1.1424
  145SAPE     P15915   2.406   3.455  10.585  0.1699  0.5084  0.0573
  145SAPE   O1315916   2.372   3.593  10.634  0.4199  0.1482 -0.2684
  145SAPE   O1415917   2.517   3.389  10.654 -0.3630 -0.1046  0.3209
  145SAPE   O1215918   2.273   3.363  10.597 -0.1688 -0.1036 -0.1875
  145SAPE   O1115919   2.429   3.452  10.432  0.1836 -0.5837 -0.3589
  145SAPE    C115920   2.560   3.456  10.373  0.1299  0.3312  0.1954
  145SAPE    HA15921   2.643   3.489  10.439  1.3762  0.4254 -1.3877
  145SAPE    HB15922   2.587   3.350  10.351  1.5603  0.7140  0.0797
  145SAPE    C215923   2.579   3.540  10.243 -0.0022 -0.4756  0.6383
  145SAPE    HS15924   2.689   3.548  10.240 -0.0625  0.2282  0.0237
  145SAPE   O2115925   2.519   3.673  10.256 -0.3424  0.2265 -0.2862
  145SAPE   C2115926   2.567   3.752  10.348 -0.1028 -0.8425 -0.3343
  145SAPE   O2215927   2.672   3.729  10.407 -0.1889 -0.9058 -0.2218
  145SAPE   C2215928   2.500   3.892  10.365 -0.7486 -0.1201  0.5458
  145SAPE   H2R15929   2.452   3.888  10.465  0.0296 -0.8997  0.8927
  145SAPE   H2S15930   2.582   3.965  10.349 -0.0918 -0.5770  1.7724
  145SAPE    C315931   2.529   3.461  10.125 -0.3911  0.2589  0.0346
  145SAPE    HX15932   2.421   3.453  10.152  0.5144 -0.4077  3.6267
  145SAPE    HY15933   2.565   3.356  10.130  3.5402  1.5527  0.0748
  145SAPE   O3115934   2.560   3.524   9.999  0.1439 -0.0045 -0.2255
  145SAPE   C3115935   2.672   3.491   9.942  0.5599  0.0718 -0.1904
  145SAPE   O3215936   2.763   3.422   9.991  0.2780  0.0648 -0.1719
  145SAPE   C3215937   2.678   3.567   9.802  0.4705  0.1204 -0.0311
  145SAPE   H2X15938   2.725   3.666   9.821 -3.5203  1.5196  3.1803
  145SAPE   H2Y15939   2.577   3.581   9.759  0.9487  1.1037 -0.8505
  145SAPE   C2315940   2.391   3.911  10.258  0.5368 -0.2446  0.0590
  145SAPE   H3R15941   2.331   4.002  10.279  0.4439 -0.3687  0.3316
  145SAPE   H3S15942   2.326   3.821  10.272 -2.2135  2.1059  3.3419
  145SAPE   C2415943   2.448   3.914  10.108  0.3262 -0.2032 -0.0060
  145SAPE   H4R15944   2.352   3.921  10.054 -0.7131  0.4483  1.8834
  145SAPE   H4S15945   2.510   3.828  10.074 -0.0836 -0.1973 -0.7658
  145SAPE   C2515946   2.537   4.039  10.087  0.6278 -0.1674  0.1165
  145SAPE   H5R15947   2.644   4.036  10.112  0.9202  3.1196 -0.5030
  145SAPE   C2615948   2.491   4.156  10.052  0.0477 -0.2461  0.5443
  145SAPE   H6R15949   2.565   4.236  10.040 -0.4348  0.2290  0.7293
  145SAPE   C2715950   2.350   4.207  10.018 -0.0233 -0.1939  0.3260
  145SAPE   H7R15951   2.279   4.145  10.078 -0.5353  1.8545  1.9083
  145SAPE   H7S15952   2.329   4.174   9.914 -0.0795  3.5216 -0.8937
  145SAPE   C2815953   2.330   4.350  10.041  0.1706 -0.6457 -0.6378
  145SAPE   H8R15954   2.354   4.386  10.142 -1.5760  2.4415 -1.2618
  145SAPE   C2915955   2.307   4.448   9.954 -0.3960 -0.6285  1.1952
  145SAPE   H9R15956   2.286   4.554   9.975  1.7318  0.1691 -0.5719
  145SAPE  C21015957   2.290   4.417   9.807  0.6442 -0.2173  0.2327
  145SAPE  H10R15958   2.183   4.413   9.778  1.2109  2.3229 -2.3922
  145SAPE  H10S15959   2.327   4.315   9.783 -0.0099 -0.3919 -0.0550
  145SAPE  C21115960   2.344   4.516   9.704  0.3843  0.3132 -0.5293
  145SAPE  H11R15961   2.273   4.591   9.667 -0.6957 -1.0992 -1.3601
  145SAPE  C21215962   2.457   4.494   9.636  0.0407  0.1526 -0.1612
  145SAPE  H12R15963   2.496   4.579   9.579  0.3567 -0.7012 -1.2299
  145SAPE  C21315964   2.568   4.388   9.649  0.5364  0.2022 -1.2071
  145SAPE  H13R15965   2.530   4.293   9.693 -1.6586  0.5404 -2.2656
  145SAPE  H13S15966   2.648   4.439   9.707  0.8233  1.1126 -2.4081
  145SAPE  C21415967   2.616   4.363   9.507 -0.2601 -0.6836 -0.2268
  145SAPE  H14R15968   2.554   4.294   9.447 -2.9089  0.6044  0.9078
  145SAPE  C21515969   2.721   4.416   9.440  0.5486  0.3404  0.1102
  145SAPE  H15R15970   2.745   4.394   9.335 -0.1440  0.3912 -0.0560
  145SAPE  C21615971   2.826   4.510   9.491  0.0564  0.0567 -0.5224
  145SAPE  H16R15972   2.886   4.453   9.566  3.0514  0.9604 -2.1267
  145SAPE  H16S15973   2.784   4.594   9.549  0.2320  0.2814 -0.7206
  145SAPE  C21715974   2.921   4.557   9.378 -0.0725  0.3315  0.3798
  145SAPE  H17R15975   2.862   4.621   9.310 -0.7458  1.3353  1.8726
  145SAPE  H17S15976   2.965   4.468   9.327  0.7250  1.1671 -0.4077
  145SAPE  C21815977   3.032   4.651   9.436 -0.8750 -0.2695  0.7308
  145SAPE  H18R15978   3.084   4.603   9.522 -0.1316  1.6704  1.3925
  145SAPE  H18S15979   2.981   4.746   9.460 -0.9063  0.0056 -0.3996
  145SAPE  C21915980   3.139   4.683   9.324 -0.5323 -0.4162  0.3960
  145SAPE  H19R15981   3.081   4.719   9.237  1.3269 -1.6752 -1.4045
  145SAPE  H19S15982   3.193   4.588   9.302 -3.9425 -2.3210 -0.1873
  145SAPE  C22015983   3.246   4.790   9.367  0.3021  0.3032 -0.6521
  145SAPE  H20R15984   3.307   4.746   9.449  2.1589  2.5363 -0.7714
  145SAPE  H20S15985   3.191   4.873   9.415  1.2376  0.2192  0.5862
  145SAPE  H20T15986   3.306   4.828   9.282 -1.3560  1.7957 -1.1689
  145SAPE   C3315987   2.765   3.497   9.700  0.0194 -0.6980  0.2380
  145SAPE   H3X15988   2.701   3.412   9.664 -0.9681  0.0511  0.1981
  145SAPE   H3Y15989   2.852   3.453   9.753  0.4623 -0.1509 -0.0342
  145SAPE   C3415990   2.818   3.579   9.584 -0.2735 -0.2765  0.3130
  145SAPE   H4X15991   2.851   3.677   9.623  4.2986 -2.5153  2.5755
  145SAPE   H4Y15992   2.741   3.596   9.506 -0.4876 -3.0095 -0.1456
  145SAPE   C3515993   2.942   3.525   9.514  0.0262 -0.3169 -0.8946
  145SAPE   H5X15994   2.928   3.425   9.468 -0.1523 -0.4787 -0.4895
  145SAPE   H5Y15995   3.028   3.511   9.584 -0.2724  0.2845 -0.4087
  145SAPE   C3615996   2.989   3.612   9.399 -0.3335  0.3462  0.3838
  145SAPE   H6X15997   3.022   3.711   9.437 -0.3971  0.2620  0.6542
  145SAPE   H6Y15998   2.906   3.633   9.328  0.0336 -1.4472 -0.5952
  145SAPE   C3715999   3.100   3.544   9.333  0.4954  0.4620  0.1359
  145SAPE   H7X16000   3.060   3.448   9.295 -2.9468  1.4863  1.0078
  145SAPE   H7Y16001   3.188   3.520   9.395  2.2933  2.7229 -1.4639
  145SAPE   C3816002   3.155   3.627   9.216 -0.8551  0.1875  0.3483
  145SAPE   H8X16003   3.188   3.725   9.256 -1.9811  0.1736  1.3405
  145SAPE   H8Y16004   3.072   3.650   9.147 -2.5263  2.2988  2.9475
  145SAPE   C3916005   3.271   3.570   9.134 -0.3491  1.1933 -0.0904
  145SAPE   H9X16006   3.239   3.485   9.070  2.1710  0.5668 -0.5654
  145SAPE   H9Y16007   3.340   3.526   9.209 -3.6329 -1.3867  1.5228
  145SAPE  C31016008   3.343   3.675   9.051 -0.1551 -0.7513  0.4310
  145SAPE  H10X16009   3.420   3.632   8.983  0.5821  0.6763  0.3471
  145SAPE  H10Y16010   3.391   3.742   9.125 -0.7885 -0.4143  0.5437
  145SAPE  C31116011   3.257   3.751   8.951  0.5101  0.0990  0.3176
  145SAPE  H11X16012   3.326   3.816   8.893  1.4284 -0.7861  0.4007
  145SAPE  H11Y16013   3.179   3.810   9.004  1.3892  1.6013 -0.0450
  145SAPE  C31216014   3.178   3.661   8.858 -0.4312  0.2518 -0.6058
  145SAPE  H12X16015   3.108   3.593   8.911 -1.6344  1.4041 -0.6872
  145SAPE  H12Y16016   3.240   3.602   8.787  0.7323  1.2881 -0.4834
  145SAPE  C31316017   3.088   3.751   8.769  0.2200 -0.3844 -0.0650
  145SAPE  H13X16018   3.164   3.792   8.699  0.3314  0.3232  0.4771
  145SAPE  H13Y16019   3.041   3.838   8.819 -1.1142 -0.9997 -0.2048
  145SAPE  C31416020   2.982   3.667   8.701 -0.1502 -0.7310  0.1043
  145SAPE  H14X16021   2.912   3.740   8.655  0.4515 -0.7984 -0.9570
  145SAPE  H14Y16022   2.929   3.603   8.774  0.0894 -0.0060  0.9118
  145SAPE  C31516023   3.035   3.573   8.591  0.2341 -0.0482  0.1209
  145SAPE  H15X16024   2.948   3.506   8.574  0.0015  0.3671 -0.3278
  145SAPE  H15Y16025   3.112   3.503   8.629 -1.9472 -2.2452  0.5556
  145SAPE  C31616026   3.076   3.647   8.460 -0.6376  0.6314  0.4312
  145SAPE  H16X16027   3.167   3.709   8.473 -0.7007  0.9909 -0.8268
  145SAPE  H16Y16028   2.993   3.714   8.428 -1.7532 -1.1114 -0.3827
  145SAPE  C31716029   3.110   3.553   8.337  0.8674 -0.0586 -0.2157
  145SAPE  H17X16030   3.111   3.620   8.249 -0.6764 -1.3654 -1.2727
  145SAPE  H17Y16031   3.025   3.486   8.311  0.5284  0.5054 -0.5563
  145SAPE  C31816032   3.232   3.472   8.366 -0.2302  0.3254 -0.3760
  145SAPE  H18X16033   3.239   3.384   8.298  0.1459  0.3342 -0.3483
  145SAPE  H18Y16034   3.238   3.436   8.471 -0.1354  1.2243 -0.0684
  145SAPE  H18Z16035   3.320   3.539   8.352 -2.2200  3.3130  1.1720
  146SAPE     N16036   1.936   4.535  10.619 -0.1567 -0.4913 -0.4251
  146SAPE   HN116037   1.925   4.464  10.694  0.9958  0.7948  1.0141
  146SAPE   HN216038   2.023   4.589  10.639 -0.9967  0.3323  1.0683
  146SAPE   HN316039   1.859   4.605  10.628  1.1313  1.3580 -2.8605
  146SAPE   C1216040   1.946   4.471  10.484  0.3993  0.2903 -0.5886
  146SAPE  H12A16041   2.011   4.381  10.492 -0.9022 -0.6472 -0.5745
  146SAPE  H12B16042   2.000   4.542  10.417  0.3471  1.4163  0.5356
  146SAPE   C1116043   1.808   4.423  10.440  0.7947  0.0822 -0.3227
  146SAPE  H11A16044   1.822   4.371  10.342  1.8324  1.8992 -1.1653
  146SAPE  H11B16045   1.746   4.513  10.421 -0.7708 -0.8627  0.1668
  146SAPE     P16046   1.600   4.330  10.555 -0.4231  0.5080 -0.6284
  146SAPE   O1316047   1.554   4.190  10.554 -0.6680  0.1310 -0.9286
  146SAPE   O1416048   1.573   4.408  10.680  0.1590  0.0658 -0.0568
  146SAPE   O1216049   1.754   4.329  10.532  0.1760  0.3434  0.0437
  146SAPE   O1116050   1.541   4.398  10.427  0.2743 -0.6788 -0.7657
  146SAPE    C116051   1.447   4.505  10.445 -0.1564 -0.0956  0.4943
  146SAPE    HA16052   1.345   4.470  10.468  0.3364 -0.1352  2.7658
  146SAPE    HB16053   1.471   4.579  10.524  1.4541 -0.1114  0.0538
  146SAPE    C216054   1.428   4.579  10.311  0.3908 -0.1208 -0.2089
  146SAPE    HS16055   1.363   4.668  10.327 -0.7063 -1.1769  1.2786
  146SAPE   O2116056   1.387   4.490  10.206 -0.1082 -0.3338  0.5876
  146SAPE   C2116057   1.252   4.482  10.206 -0.1803  0.4391  0.4339
  146SAPE   O2216058   1.177   4.555  10.270  0.4198 -0.3486 -0.4074
  146SAPE   C2216059   1.190   4.372  10.113  1.0257 -0.5268 -0.0702
  146SAPE   H2R16060   1.272   4.337  10.047  1.8499  0.6275  0.3237
  146SAPE   H2S16061   1.165   4.286  10.178 -0.7555  0.6714  0.8702
  146SAPE    C316062   1.566   4.637  10.260  0.0970 -0.5261 -0.5891
  146SAPE    HX16063   1.628   4.547  10.239  1.8341  0.1815  1.3132
  146SAPE    HY16064   1.618   4.691  10.342 -1.7515 -1.5813  1.3095
  146SAPE   O3116065   1.554   4.712  10.136 -0.6501 -0.0040 -0.4343
  146SAPE   C3116066   1.489   4.830  10.145  0.3722  0.5339 -0.0414
  146SAPE   O3216067   1.439   4.873  10.251  0.3227 -0.6362  0.1374
  146SAPE   C3216068   1.491   4.914  10.007 -0.4724 -0.5633 -0.7497
  146SAPE   H2X16069   1.542   5.004  10.047 -2.8593  0.0570  0.9683
  146SAPE   H2Y16070   1.387   4.951   9.993 -0.5215  0.4014  1.8233
  146SAPE   C2316071   1.063   4.419  10.037 -0.0980 -0.8018  0.0282
  146SAPE   H3R16072   0.997   4.460  10.116  3.3935  0.4121  2.4653
  146SAPE   H3S16073   1.020   4.329   9.990 -0.1026  0.1888 -1.9289
  146SAPE   C2416074   1.098   4.528   9.935  0.1559  0.9064  0.0034
  146SAPE   H4R16075   1.170   4.480   9.866  2.3213  1.4428  1.8206
  146SAPE   H4S16076   1.158   4.611   9.980  1.5752 -0.0029 -0.1855
  146SAPE   C2516077   0.981   4.596   9.861 -0.2711  0.6220 -1.3983
  146SAPE   H5R16078   0.879   4.557   9.872  1.1325 -2.4924  1.3389
  146SAPE   C2616079   0.997   4.716   9.803  0.0560  1.3271  0.3068
  146SAPE   H6R16080   0.908   4.759   9.754 -0.4229  0.8196  0.7179
  146SAPE   C2716081   1.123   4.788   9.771 -0.2026  0.1346  0.0977
  146SAPE   H7R16082   1.126   4.790   9.660 -0.7089  1.5963  0.1033
  146SAPE   H7S16083   1.207   4.722   9.803 -1.2203 -1.2154  0.0450
  146SAPE   C2816084   1.129   4.925   9.837 -0.2490 -0.9520  0.9168
  146SAPE   H8R16085   1.150   4.933   9.945  3.1189  3.3269  0.1002
  146SAPE   C2916086   1.113   5.039   9.774  0.0172 -0.1291  0.1298
  146SAPE   H9R16087   1.115   5.132   9.832  1.7171 -0.1137  0.0518
  146SAPE  C21016088   1.098   5.063   9.622  0.0211  0.6562 -0.4889
  146SAPE  H10R16089   0.989   5.079   9.606 -0.5314 -0.4066  1.9253
  146SAPE  H10S16090   1.136   4.974   9.570 -0.1996  1.5269 -2.1700
  146SAPE  C21116091   1.177   5.178   9.578  0.5549 -0.2027 -0.4331
  146SAPE  H11R16092   1.210   5.249   9.655  0.5968 -0.1922 -0.4596
  146SAPE  C21216093   1.220   5.199   9.453  0.2639 -0.4095  0.7646
  146SAPE  H12R16094   1.290   5.279   9.423 -0.6241  0.0506 -0.1320
  146SAPE  C21316095   1.174   5.102   9.347 -1.0323  0.5326  0.6069
  146SAPE  H13R16096   1.063   5.100   9.344 -1.0023 -2.3713 -0.1262
  146SAPE  H13S16097   1.206   4.998   9.372  0.8763  1.7585  3.5948
  146SAPE  C21416098   1.235   5.126   9.209  0.7202 -0.1309  0.3895
  146SAPE  H14R16099   1.322   5.060   9.192  1.2158  0.3704  0.9839
  146SAPE  C21516100   1.192   5.217   9.116 -0.1072 -0.5054  0.2308
  146SAPE  H15R16101   1.237   5.214   9.016 -3.3024  2.2341 -1.3896
  146SAPE  C21616102   1.071   5.301   9.122 -0.1479  0.3309  0.0089
  146SAPE  H16R16103   1.095   5.409   9.124 -1.4729  0.6201  0.3489
  146SAPE  H16S16104   1.017   5.290   9.219 -0.1398  1.1338  0.1106
  146SAPE  C21716105   0.991   5.257   8.992  0.4893 -0.0772 -0.3103
  146SAPE  H17R16106   0.954   5.153   9.000  0.0890  0.1743  1.3070
  146SAPE  H17S16107   1.059   5.279   8.907  2.6626 -2.3074  0.7671
  146SAPE  C21816108   0.865   5.348   8.966 -0.2482  0.2566  0.4042
  146SAPE  H18R16109   0.820   5.311   8.871 -0.7631  1.9298 -0.0136
  146SAPE  H18S16110   0.895   5.455   8.953  0.3768  0.1222  0.6921
  146SAPE  C21916111   0.753   5.337   9.075  0.6404 -0.4583  0.0537
  146SAPE  H19R16112   0.684   5.424   9.063  2.0008  0.6827  0.3627
  146SAPE  H19S16113   0.794   5.365   9.175  2.2777  0.0597 -0.7350
  146SAPE  C22016114   0.681   5.208   9.079  0.4566  0.0590  0.1841
  146SAPE  H20R16115   0.741   5.115   9.091 -0.7597 -0.7738 -0.0998
  146SAPE  H20S16116   0.630   5.192   8.982 -1.0323  0.6494  0.8509
  146SAPE  H20T16117   0.603   5.207   9.159 -1.5569  4.0392 -1.5739
  146SAPE   C3316118   1.552   4.846   9.892 -0.4297  0.3543 -0.2802
  146SAPE   H3X16119   1.506   4.745   9.880  1.3289 -0.3720 -0.9998
  146SAPE   H3Y16120   1.659   4.830   9.913 -0.6950 -2.1243 -0.6897
  146SAPE   C3416121   1.526   4.926   9.769  0.1004 -0.1395  0.0954
  146SAPE   H4X16122   1.572   5.026   9.787  0.6640 -0.1087 -1.4552
  146SAPE   H4Y16123   1.418   4.946   9.752  0.2903  0.6673 -0.1651
  146SAPE   C3516124   1.591   4.881   9.639 -0.0691 -0.1810 -0.3918
  146SAPE   H5X16125   1.547   4.782   9.616  0.9174 -0.4031 -1.3613
  146SAPE   H5Y16126   1.699   4.853   9.637 -0.2131 -0.9144  1.1274
  146SAPE   C3616127   1.545   4.964   9.518 -0.0199  0.7333 -0.7165
  146SAPE   H6X16128   1.588   5.066   9.524  0.2632  0.4712  2.9343
  146SAPE   H6Y16129   1.434   4.968   9.511 -0.1383  1.8673  1.2525
  146SAPE   C3716130   1.595   4.919   9.379 -0.1343  0.6755 -0.0969
  146SAPE   H7X16131   1.705   4.909   9.373 -0.0659  1.6091 -0.4552
  146SAPE   H7Y16132   1.569   4.999   9.306 -1.5335 -0.3000 -0.6896
  146SAPE   C3816133   1.516   4.792   9.333  0.1801  0.7824 -0.5318
  146SAPE   H8X16134   1.418   4.805   9.383  0.7716 -2.5891  1.7076
  146SAPE   H8Y16135   1.564   4.703   9.378 -1.3032  1.6735  2.9590
  146SAPE   C3916136   1.509   4.771   9.183  0.8261  0.2474  0.4121
  146SAPE   H9X16137   1.465   4.862   9.139  1.2791 -0.6000 -1.8590
  146SAPE   H9Y16138   1.442   4.692   9.143 -1.4775  2.3921 -0.0832
  146SAPE  C31016139   1.649   4.760   9.107 -0.0203 -0.0885 -0.5637
  146SAPE  H10X16140   1.727   4.800   9.175  2.0142 -2.2035 -1.5647
  146SAPE  H10Y16141   1.644   4.818   9.012  0.9964  2.0494  0.6770
  146SAPE  C31116142   1.683   4.618   9.070 -0.3765  0.7028  1.1730
  146SAPE  H11X16143   1.603   4.563   9.017  2.5454 -1.1168 -1.5544
  146SAPE  H11Y16144   1.708   4.559   9.161  0.4915  0.2560  0.6515
  146SAPE  C31216145   1.807   4.612   8.983 -0.0003  0.6711  0.0247
  146SAPE  H12X16146   1.894   4.664   9.029 -0.1699  0.5483  0.4930
  146SAPE  H12Y16147   1.790   4.668   8.889 -1.8095  1.1173  0.5951
  146SAPE  C31316148   1.841   4.466   8.939  0.8045 -0.0385  0.1651
  146SAPE  H13X16149   1.753   4.423   8.886 -0.6433  3.5177 -0.4474
  146SAPE  H13Y16150   1.872   4.415   9.033  0.6548 -1.1116 -0.3619
  146SAPE  C31416151   1.955   4.448   8.837 -0.6015  0.2741  0.3847
  146SAPE  H14X16152   2.024   4.534   8.853 -1.9624  1.4706 -0.1154
  146SAPE  H14Y16153   1.919   4.454   8.732 -1.0984  0.0229  0.5448
  146SAPE  C31516154   2.024   4.315   8.858  0.1998 -0.2559 -0.0290
  146SAPE  H15X16155   2.073   4.326   8.957 -1.3818 -1.5700  0.9208
  146SAPE  H15Y16156   2.103   4.298   8.782 -0.2333 -2.6163 -0.0022
  146SAPE  C31616157   1.941   4.189   8.838  0.0445  0.0220 -0.1832
  146SAPE  H16X16158   1.860   4.171   8.913  0.2904 -0.9133 -0.1420
  146SAPE  H16Y16159   2.007   4.100   8.849 -1.4013 -1.1720 -1.0629
  146SAPE  C31716160   1.864   4.187   8.702 -0.4146  0.3157  0.2082
  146SAPE  H17X16161   1.923   4.218   8.614 -2.5723  2.2425 -0.6100
  146SAPE  H17Y16162   1.782   4.262   8.703  0.0896  0.8687 -0.0535
  146SAPE  C31816163   1.794   4.048   8.686 -0.0981  0.3736  0.1339
  146SAPE  H18X16164   1.730   4.048   8.596  0.4845 -1.8378 -0.3017
  146SAPE  H18Y16165   1.739   4.025   8.780  0.6438  1.9065  0.9667
  146SAPE  H18Z16166   1.878   3.975   8.680  0.0813  0.2524  3.2673
  147SAPE     N16167   2.838   0.313  11.182 -0.0119 -0.3571  0.2745
  147SAPE   HN116168   2.910   0.238  11.178 -1.1985 -1.5656  1.2494
  147SAPE   HN216169   2.789   0.308  11.273  1.4420  1.7214  1.1963
  147SAPE   HN316170   2.761   0.288  11.117  2.6081  0.1796 -3.2029
  147SAPE   C1216171   2.897   0.449  11.146  0.3880 -0.8796 -0.3821
  147SAPE  H12A16172   2.962   0.480  11.230  0.5348 -0.5842 -0.6026
  147SAPE  H12B16173   2.819   0.529  11.140 -0.4083 -1.5378  1.0223
  147SAPE   C1116174   2.988   0.436  11.028  0.0257 -0.2657  0.1558
  147SAPE  H11A16175   3.033   0.538  11.022 -1.8511  0.5688 -0.1123
  147SAPE  H11B16176   2.934   0.409  10.935 -2.3899 -0.7969  1.6935
  147SAPE     P16177   3.205   0.340  10.949  0.3757 -0.1097  0.1174
  147SAPE   O1316178   3.257   0.481  10.944  0.3258 -0.3817 -0.3294
  147SAPE   O1416179   3.303   0.230  10.984  0.6131  0.0553 -0.0276
  147SAPE   O1216180   3.093   0.345  11.051 -0.0427  0.4424  0.2703
  147SAPE   O1116181   3.137   0.309  10.819  0.6777 -0.2928  0.4666
  147SAPE    C116182   3.176   0.370  10.691  0.0582 -0.2886  0.2693
  147SAPE    HA16183   3.127   0.467  10.671  0.8512  0.0444 -0.0739
  147SAPE    HB16184   3.284   0.395  10.685 -0.1642  0.2975 -1.7473
  147SAPE    C216185   3.157   0.260  10.580  0.1417 -0.8695 -0.1327
  147SAPE    HS16186   3.242   0.189  10.586  1.7266  1.0744  1.5935
  147SAPE   O2116187   3.163   0.327  10.459  0.2183 -0.7566 -0.3358
  147SAPE   C2116188   3.284   0.371  10.424 -0.5045 -0.1533  0.6440
  147SAPE   O2216189   3.388   0.344  10.482  0.4891  0.4017 -0.1672
  147SAPE   C2216190   3.263   0.453  10.297 -0.8750  0.6893 -0.4231
  147SAPE   H2R16191   3.256   0.384  10.210  0.7542  0.8593 -0.7205
  147SAPE   H2S16192   3.180   0.526  10.300 -2.0160 -0.6367  2.2716
  147SAPE    C316193   3.018   0.197  10.592 -0.4150 -0.6870  0.4904
  147SAPE    HX16194   2.954   0.282  10.624 -4.3278 -2.4198 -2.3780
  147SAPE    HY16195   3.032   0.126  10.677 -0.5747 -0.0892  1.0217
  147SAPE   O3116196   2.959   0.141  10.476  0.1111 -0.5912 -0.4864
  147SAPE   C3116197   2.985   0.017  10.452  0.4386  0.6645 -0.0335
  147SAPE   O3216198   3.050  -0.063  10.513  0.1342 -0.1401  0.6308
  147SAPE   C3216199   2.909  -0.011  10.314 -0.2047 -0.2440 -0.0472
  147SAPE   H2X16200   2.956   0.057  10.240 -0.5079  0.1593  0.1356
  147SAPE   H2Y16201   2.806   0.029  10.310 -1.0560 -2.1415  1.6532
  147SAPE   C2316202   3.404   0.524  10.277 -0.2267 -0.2870 -0.6278
  147SAPE   H3R16203   3.485   0.450  10.263  1.6473  1.8707 -1.5814
  147SAPE   H3S16204   3.428   0.574  10.373  0.5764  0.8060 -1.3759
  147SAPE   C2416205   3.406   0.618  10.152 -0.5890  0.4032 -0.1577
  147SAPE   H4R16206   3.368   0.557  10.067  1.5883  0.1940 -1.0000
  147SAPE   H4S16207   3.508   0.644  10.116 -0.0888 -1.1876  0.1113
  147SAPE   C2516208   3.316   0.738  10.160  0.0980 -0.1367  1.2754
  147SAPE   H5R16209   3.353   0.809  10.236  0.6275  0.3323  0.5719
  147SAPE   C2616210   3.202   0.764  10.093  0.9370 -0.1855 -0.3910
  147SAPE   H6R16211   3.154   0.862  10.105 -0.8162 -1.0337 -0.2973
  147SAPE   C2716212   3.150   0.662   9.981 -0.0854 -0.3641  0.8015
  147SAPE   H7R16213   3.160   0.558  10.018  2.2859 -0.6801 -0.6387
  147SAPE   H7S16214   3.216   0.659   9.892 -0.1871  1.8567  0.6227
  147SAPE   C2816215   3.007   0.693   9.938 -0.1899  0.2515  0.5513
  147SAPE   H8R16216   2.938   0.733  10.013  0.9715  3.3264  0.0316
  147SAPE   C2916217   2.958   0.689   9.811 -0.1378  0.0560  0.5489
  147SAPE   H9R16218   2.852   0.706   9.788  0.1534  1.2364  0.0397
  147SAPE  C21016219   3.037   0.656   9.686 -0.1368  0.8411  0.0901
  147SAPE  H10R16220   3.093   0.560   9.696 -2.3783 -0.5909 -0.6707
  147SAPE  H10S16221   3.123   0.725   9.672  0.4596  0.0193 -0.3958
  147SAPE  C21116222   2.954   0.642   9.560  1.2742  0.5996 -0.1296
  147SAPE  H11R16223   2.880   0.561   9.565 -0.4270  2.1669  0.6531
  147SAPE  C21216224   2.965   0.707   9.440  0.0393  0.1609  0.0034
  147SAPE  H12R16225   2.882   0.678   9.374  0.9347 -0.2911 -0.9174
  147SAPE  C21316226   3.053   0.828   9.402  0.2801 -0.3977 -0.1174
  147SAPE  H13R16227   3.133   0.863   9.471 -0.2964  1.5967 -0.4383
  147SAPE  H13S16228   2.980   0.912   9.393  1.9584  1.1870  0.6802
  147SAPE  C21416229   3.110   0.812   9.264  0.2738  0.6364  0.6256
  147SAPE  H14R16230   3.208   0.763   9.253 -0.6394 -0.3503 -4.3153
  147SAPE  C21516231   3.046   0.842   9.150 -0.1354 -0.8299 -0.7034
  147SAPE  H15R16232   3.100   0.826   9.055  1.6046 -0.8503  0.2691
  147SAPE  C21616233   2.912   0.916   9.144  0.5072  0.2067 -0.0221
  147SAPE  H16R16234   2.908   1.012   9.200 -3.0810  0.5052 -0.6943
  147SAPE  H16S16235   2.829   0.852   9.180  0.2683  0.4055 -0.2259
  147SAPE  C21716236   2.898   0.938   8.988  0.2110  0.0323 -0.0273
  147SAPE  H17R16237   2.991   0.986   8.949 -0.5084  0.3030 -1.4385
  147SAPE  H17S16238   2.818   1.014   8.976  0.2738  0.0233 -0.5259
  147SAPE  C21816239   2.860   0.822   8.897  0.3262  0.5883 -0.1459
  147SAPE  H18R16240   2.770   0.771   8.938  0.8980  0.5732  1.0896
  147SAPE  H18S16241   2.939   0.745   8.910 -0.9037 -0.8437 -0.9778
  147SAPE  C21916242   2.825   0.858   8.750  0.1609  0.0535 -0.1620
  147SAPE  H19R16243   2.907   0.920   8.708  1.2761 -1.3895 -0.1796
  147SAPE  H19S16244   2.740   0.930   8.744 -1.3272 -1.5823  0.7408
  147SAPE  C22016245   2.800   0.739   8.655  0.4832  0.2527  0.2651
  147SAPE  H20R16246   2.880   0.661   8.660 -0.7803 -0.9374  2.7438
  147SAPE  H20S16247   2.799   0.767   8.548  2.7296 -0.1225  0.1264
  147SAPE  H20T16248   2.711   0.682   8.691  0.5506  0.8253  1.3708
  147SAPE   C3316249   2.898  -0.158  10.261 -0.2689  0.2965  0.6424
  147SAPE   H3X16250   2.839  -0.207  10.341  1.0083 -1.9050  0.2589
  147SAPE   H3Y16251   2.998  -0.206  10.261 -2.2266 -4.0928 -1.6980
  147SAPE   C3416252   2.828  -0.186  10.127  0.4364  0.3773 -0.1205
  147SAPE   H4X16253   2.901  -0.162  10.046  0.0568  1.6622 -0.0993
  147SAPE   H4Y16254   2.747  -0.112  10.112  0.9074  0.9229  0.0052
  147SAPE   C3516255   2.774  -0.329  10.097 -0.8195  0.4573 -0.6673
  147SAPE   H5X16256   2.689  -0.347  10.167  0.8088 -2.2002  0.7260
  147SAPE   H5Y16257   2.862  -0.395  10.116 -1.2483  0.0428 -0.0803
  147SAPE   C3616258   2.723  -0.346   9.956 -1.0807  0.3296 -0.0402
  147SAPE   H6X16259   2.676  -0.246   9.944 -0.9991  0.3251 -0.3942
  147SAPE   H6Y16260   2.644  -0.423   9.942  1.2564 -2.1959  0.4345
  147SAPE   C3716261   2.833  -0.371   9.850  0.3022 -0.5267 -0.3830
  147SAPE   H7X16262   2.898  -0.453   9.887  0.3149  0.6246  2.2576
  147SAPE   H7Y16263   2.902  -0.284   9.843 -1.4811  0.9102 -0.5125
  147SAPE   C3816264   2.778  -0.388   9.712 -0.6103  0.2549 -0.4045
  147SAPE   H8X16265   2.738  -0.288   9.684  0.1460  0.7933  0.4181
  147SAPE   H8Y16266   2.689  -0.455   9.706 -1.8692  1.7204  1.4471
  147SAPE   C3916267   2.871  -0.448   9.608  0.0829  0.6548 -0.3795
  147SAPE   H9X16268   2.913  -0.545   9.640 -3.8151 -0.6755  1.0101
  147SAPE   H9Y16269   2.961  -0.385   9.591 -0.2925  1.1028 -0.7380
  147SAPE  C31016270   2.805  -0.462   9.467 -0.3130  0.1636 -0.1204
  147SAPE  H10X16271   2.741  -0.379   9.432 -0.6806 -0.8135 -1.8466
  147SAPE  H10Y16272   2.743  -0.554   9.471 -0.1973  0.0812 -0.2524
  147SAPE  C31116273   2.910  -0.481   9.356 -0.0294 -0.2068  0.0174
  147SAPE  H11X16274   2.974  -0.568   9.381 -1.4393 -0.8634  1.4161
  147SAPE  H11Y16275   2.973  -0.390   9.357 -0.9639  0.5290 -3.1429
  147SAPE  C31216276   2.857  -0.518   9.216 -0.7122 -0.3377 -0.4429
  147SAPE  H12X16277   2.793  -0.437   9.175  0.1246  1.0763  0.9544
  147SAPE  H12Y16278   2.808  -0.617   9.217 -0.6697 -0.3712 -1.4611
  147SAPE  C31316279   2.968  -0.535   9.110 -0.8857 -0.8382 -0.3623
  147SAPE  H13X16280   3.028  -0.622   9.142 -0.8451 -1.2581 -1.5568
  147SAPE  H13Y16281   3.042  -0.453   9.103  0.3883 -1.8639  0.8539
  147SAPE  C31416282   2.909  -0.570   8.972  0.5904  0.9527  0.3591
  147SAPE  H14X16283   2.922  -0.489   8.897  0.5515 -0.2839 -1.0020
  147SAPE  H14Y16284   2.800  -0.589   8.984  0.5995  0.4749 -0.3138
  147SAPE  C31516285   2.979  -0.689   8.911  1.4362  0.3598  0.4414
  147SAPE  H15X16286   2.966  -0.772   8.984 -0.5129  0.7822  0.6096
  147SAPE  H15Y16287   3.088  -0.675   8.892  1.1340 -0.3146 -1.8823
  147SAPE  C31616288   2.916  -0.723   8.777  0.2311 -0.2096  0.4596
  147SAPE  H16X16289   2.948  -0.634   8.718  1.8867  0.7554  2.7430
  147SAPE  H16Y16290   2.806  -0.708   8.777  0.2103 -0.3033 -1.5632
  147SAPE  C31716291   2.950  -0.856   8.717 -0.0057  0.6771 -0.8339
  147SAPE  H17X16292   2.912  -0.948   8.768  4.1228  0.3394  1.8268
  147SAPE  H17Y16293   3.060  -0.864   8.717  0.0956  2.0392 -0.5715
  147SAPE  C31816294   2.894  -0.868   8.574 -0.9174  0.5268 -0.0467
  147SAPE  H18X16295   2.899  -0.772   8.518 -0.2899  0.9212  0.6744
  147SAPE  H18Y16296   2.784  -0.885   8.578 -1.3487  2.4119 -2.6689
  147SAPE  H18Z16297   2.950  -0.948   8.520 -0.6628  0.7829 -0.1644
  148SAPE     N16298   4.632   2.551  10.949  0.0222 -0.2423 -0.5209
  148SAPE   HN116299   4.544   2.515  10.907  0.7138 -0.3442 -1.9283
  148SAPE   HN216300   4.680   2.475  11.001  2.1652  1.0289 -0.5748
  148SAPE   HN316301   4.610   2.624  11.020 -2.8548 -1.2288 -0.3438
  148SAPE   C1216302   4.718   2.615  10.841 -0.3103  0.1125 -0.6050
  148SAPE  H12A16303   4.724   2.546  10.755  0.2725 -1.0499  0.3497
  148SAPE  H12B16304   4.820   2.630  10.884 -0.2985  0.1136 -0.6348
  148SAPE   C1116305   4.657   2.745  10.798  0.7122 -0.1993  0.6374
  148SAPE  H11A16306   4.656   2.808  10.890 -2.2187  0.4757  0.1737
  148SAPE  H11B16307   4.555   2.724  10.759  0.4935  0.6818  0.7381
  148SAPE     P16308   4.688   2.926  10.613 -0.3091  0.2851  0.3371
  148SAPE   O1316309   4.663   3.043  10.709  0.1564  0.2456  0.1581
  148SAPE   O1416310   4.785   2.952  10.503 -0.1948  0.4715 -0.1182
  148SAPE   O1216311   4.743   2.806  10.704 -0.7942 -0.3585  0.0219
  148SAPE   O1116312   4.549   2.875  10.556 -0.6741  0.1609 -0.0640
  148SAPE    C116313   4.543   2.753  10.488 -0.5718 -0.4288 -0.8847
  148SAPE    HA16314   4.632   2.687  10.495 -0.2845  0.0490 -0.0665
  148SAPE    HB16315   4.469   2.691  10.543 -0.6419 -0.2675 -0.7950
  148SAPE    C216316   4.511   2.761  10.339  0.1561 -0.2676  0.9175
  148SAPE    HS16317   4.498   2.654  10.312 -1.4336 -0.1893  1.3347
  148SAPE   O2116318   4.611   2.814  10.262 -0.8447 -0.1930  0.8733
  148SAPE   C2116319   4.726   2.740  10.254  0.1517 -0.2805 -0.2056
  148SAPE   O2216320   4.749   2.637  10.304 -0.0161  0.0565 -0.0765
  148SAPE   C2216321   4.824   2.818  10.161 -0.3787 -0.1764  0.1088
  148SAPE   H2R16322   4.757   2.879  10.097  0.9419  1.6638  0.4592
  148SAPE   H2S16323   4.882   2.893  10.219 -1.3614  1.8662 -1.5157
  148SAPE    C316324   4.379   2.836  10.314 -0.7087  0.1915  0.4284
  148SAPE    HX16325   4.388   2.929  10.373  1.1972 -0.4211  1.1388
  148SAPE    HY16326   4.288   2.794  10.363 -1.6755  2.1083  0.3230
  148SAPE   O3116327   4.347   2.856  10.177  0.4770  0.3086  0.0345
  148SAPE   C3116328   4.287   2.749  10.120 -0.3484 -0.4645  0.0911
  148SAPE   O3216329   4.251   2.649  10.179  0.5189  0.4352  0.2758
  148SAPE   C3216330   4.271   2.767   9.963 -0.4050 -0.0740 -0.3013
  148SAPE   H2X16331   4.366   2.795   9.913 -0.7622 -1.6127 -1.8901
  148SAPE   H2Y16332   4.204   2.856   9.961  0.2941  0.5182  1.6088
  148SAPE   C2316333   4.921   2.733  10.060 -0.3735  0.6005 -0.6262
  148SAPE   H3R16334   5.001   2.690  10.124 -0.5563  0.2464 -0.6297
  148SAPE   H3S16335   4.971   2.806   9.994  1.0082 -0.5207 -0.8306
  148SAPE   C2416336   4.843   2.630   9.982 -0.6524 -1.0920 -0.3110
  148SAPE   H4R16337   4.779   2.580  10.058 -1.2002 -1.7638 -1.2108
  148SAPE   H4S16338   4.889   2.539   9.937 -0.6191 -1.0086 -0.4466
  148SAPE   C2516339   4.756   2.693   9.877  0.0977 -0.0594 -0.3028
  148SAPE   H5R16340   4.669   2.749   9.915  0.7532  0.9451 -0.2650
  148SAPE   C2616341   4.787   2.692   9.751 -0.1131  0.4865  0.9840
  148SAPE   H6R16342   4.721   2.744   9.679  1.3503  0.1675 -0.6402
  148SAPE   C2716343   4.910   2.631   9.690 -0.2691 -0.1752 -0.5062
  148SAPE   H7R16344   4.903   2.520   9.682 -1.1585 -0.3210  1.8060
  148SAPE   H7S16345   4.993   2.642   9.763 -0.9455 -0.2301  0.2834
  148SAPE   C2816346   4.965   2.687   9.562  0.4494  0.6910 -0.0950
  148SAPE   H8R16347   5.050   2.757   9.564  0.9715  0.0259  2.6923
  148SAPE   C2916348   4.926   2.653   9.440  0.3073  0.6496 -0.0181
  148SAPE   H9R16349   4.977   2.694   9.352 -2.3881  3.0264 -0.5119
  148SAPE  C21016350   4.818   2.553   9.408 -0.2690 -0.0198 -0.1873
  148SAPE  H10R16351   4.767   2.509   9.496 -0.7681 -0.0808 -0.5009
  148SAPE  H10S16352   4.866   2.466   9.359 -0.7405  0.2807 -1.2121
  148SAPE  C21116353   4.724   2.617   9.316  0.3778 -0.3761  0.0344
  148SAPE  H11R16354   4.675   2.707   9.355 -2.2813 -1.4776 -0.6413
  148SAPE  C21216355   4.710   2.597   9.181  0.1188 -0.3233  0.5749
  148SAPE  H12R16356   4.642   2.665   9.129  2.6194  1.7306 -0.1563
  148SAPE  C21316357   4.789   2.502   9.099  0.0483  0.3301  0.1808
  148SAPE  H13R16358   4.718   2.418   9.082 -1.3192  1.4302  0.3753
  148SAPE  H13S16359   4.872   2.452   9.153 -2.7159 -2.1402  2.3192
  148SAPE  C21416360   4.827   2.551   8.963  0.5583  0.6544 -0.0903
  148SAPE  H14R16361   4.929   2.584   8.940  0.6897 -0.2701 -0.8851
  148SAPE  C21516362   4.737   2.543   8.854 -0.7363  0.1322 -0.7072
  148SAPE  H15R16363   4.769   2.584   8.757 -2.8628  0.2008 -1.4072
  148SAPE  C21616364   4.600   2.487   8.850 -0.1197  0.2305 -0.0932
  148SAPE  H16R16365   4.575   2.457   8.954 -0.3965  0.5695 -0.0631
  148SAPE  H16S16366   4.594   2.404   8.777  0.4818  1.1770 -1.2374
  148SAPE  C21716367   4.495   2.589   8.819 -0.7167  0.1785  0.1355
  148SAPE  H17R16368   4.527   2.645   8.728 -1.0856  0.9830  0.4975
  148SAPE  H17S16369   4.485   2.657   8.906 -0.4676 -0.8619  0.9778
  148SAPE  C21816370   4.357   2.525   8.792  0.4197 -0.2061 -0.5553
  148SAPE  H18R16371   4.362   2.462   8.701  1.3057 -2.2961  0.8900
  148SAPE  H18S16372   4.279   2.604   8.783 -0.4485 -1.2258 -2.3092
  148SAPE  C21916373   4.300   2.436   8.910  0.0288 -0.8755  0.0938
  148SAPE  H19R16374   4.362   2.344   8.917  0.3583 -0.5599  1.5406
  148SAPE  H19S16375   4.204   2.404   8.865  0.6012  0.0659 -1.8513
  148SAPE  C22016376   4.282   2.511   9.040 -0.1878 -0.6566  0.0649
  148SAPE  H20R16377   4.369   2.570   9.078 -0.8792  0.2159  0.3218
  148SAPE  H20S16378   4.241   2.447   9.121 -0.3860 -3.3243 -2.0868
  148SAPE  H20T16379   4.196   2.579   9.021  0.8857  0.5142 -0.7551
  148SAPE   C3316380   4.213   2.634   9.899  0.0986  0.5826  0.4749
  148SAPE   H3X16381   4.128   2.596   9.960  0.6757 -0.4376  0.6516
  148SAPE   H3Y16382   4.292   2.556   9.895 -1.6299 -1.3384  2.3019
  148SAPE   C3416383   4.165   2.654   9.756 -0.1920 -0.3005 -0.8611
  148SAPE   H4X16384   4.075   2.716   9.736  2.1938  3.1123 -1.3427
  148SAPE   H4Y16385   4.130   2.551   9.734 -1.9635 -0.3151  1.8101
  148SAPE   C3516386   4.272   2.704   9.661 -0.3365  0.0642  0.1980
  148SAPE   H5X16387   4.364   2.642   9.656 -0.0834  0.4775 -0.3136
  148SAPE   H5Y16388   4.299   2.808   9.688 -0.1171 -0.0885  0.5727
  148SAPE   C3616389   4.216   2.716   9.513 -0.0512 -0.1013 -0.7048
  148SAPE   H6X16390   4.124   2.779   9.507 -0.2666 -0.0963  2.1679
  148SAPE   H6Y16391   4.191   2.616   9.471 -0.4144 -1.1597  1.8994
  148SAPE   C3716392   4.324   2.796   9.431  0.3846  0.2101  0.2838
  148SAPE   H7X16393   4.409   2.724   9.422  0.8571  1.0845 -2.6573
  148SAPE   H7Y16394   4.364   2.892   9.468  2.2261  0.1164 -1.3731
  148SAPE   C3816395   4.273   2.827   9.283 -0.3540 -0.1221 -0.3162
  148SAPE   H8X16396   4.180   2.887   9.296 -0.1210  0.4202 -1.0895
  148SAPE   H8Y16397   4.230   2.738   9.233 -0.1049 -0.4855  0.1136
  148SAPE   C3916398   4.373   2.892   9.191 -0.2069  0.7877  0.8391
  148SAPE   H9X16399   4.457   2.819   9.191 -1.0587 -0.2244  1.8708
  148SAPE   H9Y16400   4.409   2.978   9.252  1.6896 -0.6128  1.7469
  148SAPE  C31016401   4.327   2.897   9.050  0.2488 -0.4864  0.9256
  148SAPE  H10X16402   4.230   2.953   9.047 -0.8118 -2.1192  2.9686
  148SAPE  H10Y16403   4.298   2.802   9.001 -1.2488 -0.0565  0.9361
  148SAPE  C31116404   4.424   2.970   8.959  0.0242  0.5149 -0.3554
  148SAPE  H11X16405   4.525   2.925   8.972 -0.0337 -0.0347 -1.7797
  148SAPE  H11Y16406   4.426   3.072   9.005 -1.9635 -0.1310  1.2353
  148SAPE  C31216407   4.387   2.970   8.809 -0.5311  0.1855 -0.0545
  148SAPE  H12X16408   4.403   2.869   8.766 -1.6828 -0.1947  0.4090
  148SAPE  H12Y16409   4.464   3.028   8.753 -1.0041 -0.6698 -1.6298
  148SAPE  C31316410   4.241   3.034   8.784 -0.4936  0.5496  1.0781
  148SAPE  H13X16411   4.233   3.126   8.846  0.8258  1.3465  0.1073
  148SAPE  H13Y16412   4.166   2.967   8.830 -0.6327  0.4274  0.6741
  148SAPE  C31416413   4.206   3.054   8.635 -0.0130  0.5932  0.4612
  148SAPE  H14X16414   4.099   3.084   8.630  0.4521  2.5631  1.6171
  148SAPE  H14Y16415   4.210   2.958   8.580 -1.7043 -1.4041  3.6821
  148SAPE  C31516416   4.292   3.149   8.556 -0.3895  0.1225 -0.0005
  148SAPE  H15X16417   4.401   3.126   8.564 -0.0807  0.9039 -1.7094
  148SAPE  H15Y16418   4.292   3.239   8.622 -0.9781  0.2531 -0.1760
  148SAPE  C31616419   4.244   3.181   8.411  0.2466 -0.1473  0.5485
  148SAPE  H16X16420   4.150   3.240   8.417  0.8123  0.9792 -1.2218
  148SAPE  H16Y16421   4.214   3.086   8.362 -0.0371  0.7801 -1.1050
  148SAPE  C31716422   4.348   3.263   8.334 -0.0924  0.5169  0.0892
  148SAPE  H17X16423   4.445   3.210   8.318  1.2027  1.0968  5.1249
  148SAPE  H17Y16424   4.369   3.350   8.400 -0.6523 -0.0303  1.0009
  148SAPE  C31816425   4.299   3.308   8.198  0.5222  0.2840 -0.0604
  148SAPE  H18X16426   4.222   3.385   8.216  0.7331  0.6631 -0.7785
  148SAPE  H18Y16427   4.251   3.228   8.138 -2.2213 -0.7512  3.3163
  148SAPE  H18Z16428   4.378   3.356   8.137 -0.7500  0.6005 -1.4893
  149SAPE     N16429   0.061   3.719  11.057 -0.3128 -0.3781 -0.0102
  149SAPE   HN116430  -0.025   3.700  11.002 -1.0243 -1.5860  1.4847
  149SAPE   HN216431   0.055   3.646  11.130  1.5348 -0.3800  0.1564
  149SAPE   HN316432   0.042   3.813  11.098  0.2224 -1.0808  1.8867
  149SAPE   C1216433   0.191   3.719  10.976  0.4871  0.3703 -0.5441
  149SAPE  H12A16434   0.195   3.619  10.927 -1.6475  1.4656 -3.1040
  149SAPE  H12B16435   0.277   3.726  11.046 -0.3485  0.4227  0.4956
  149SAPE   C1116436   0.198   3.829  10.870 -0.5819 -0.6856  0.2500
  149SAPE  H11A16437   0.093   3.837  10.833 -1.2448 -0.3004  2.1421
  149SAPE  H11B16438   0.264   3.793  10.789 -1.6754 -0.5698 -0.7087
  149SAPE     P16439   0.162   4.049  11.015 -0.2882 -0.0369 -0.0351
  149SAPE   O1316440   0.096   3.970  11.121  0.4104 -0.2136  0.6562
  149SAPE   O1416441   0.250   4.156  11.064 -0.0835 -0.1648  0.7125
  149SAPE   O1216442   0.250   3.954  10.919 -0.2604 -0.2292 -0.2995
  149SAPE   O1116443   0.056   4.096  10.914 -0.1219  0.3565 -0.1268
  149SAPE    C116444   0.086   4.169  10.789 -0.5120  0.7643  0.9444
  149SAPE    HA16445   0.173   4.126  10.736 -1.9427 -1.2065  0.1546
  149SAPE    HB16446  -0.002   4.153  10.722  0.6212 -1.2648 -0.0775
  149SAPE    C216447   0.103   4.324  10.823  0.0150  0.6780 -0.3383
  149SAPE    HS16448   0.172   4.326  10.909  0.4169  0.2444 -0.6521
  149SAPE   O2116449  -0.024   4.384  10.854 -0.4344 -0.2102  0.4874
  149SAPE   C2116450  -0.029   4.496  10.921  0.2474  0.0593 -0.1557
  149SAPE   O2216451   0.068   4.550  10.973 -0.6356  0.1803  0.2153
  149SAPE   C2216452  -0.174   4.544  10.937  0.7072  0.6370  0.7226
  149SAPE   H2R16453  -0.221   4.463  10.998 -0.2709  0.7450  0.1270
  149SAPE   H2S16454  -0.183   4.633  11.002  2.6441  0.8637  0.6810
  149SAPE    C316455   0.173   4.405  10.700 -1.1890  0.1235  0.9237
  149SAPE    HX16456   0.275   4.362  10.700 -2.1858 -2.3886 -1.7812
  149SAPE    HY16457   0.187   4.511  10.732 -3.1738  0.2600  1.4231
  149SAPE   O3116458   0.100   4.400  10.574  0.1769  0.7901  0.2560
  149SAPE   C3116459   0.151   4.315  10.479 -0.4325 -0.3532  0.2391
  149SAPE   O3216460   0.256   4.253  10.483  0.0384  0.1594  0.7920
  149SAPE   C3216461   0.047   4.301  10.369  0.3583  0.1354  0.3394
  149SAPE   H2X16462   0.010   4.402  10.344  2.5603  0.6008 -1.0984
  149SAPE   H2Y16463  -0.041   4.238  10.398  0.7401 -0.8534 -0.6095
  149SAPE   C2316464  -0.255   4.560  10.804 -0.4991 -0.3403  0.2787
  149SAPE   H3R16465  -0.361   4.590  10.822 -0.9797  0.3460 -3.3174
  149SAPE   H3S16466  -0.262   4.465  10.747  1.7904 -1.2113  1.3796
  149SAPE   C2416467  -0.197   4.666  10.714  0.5097  0.7424 -0.4263
  149SAPE   H4R16468  -0.099   4.630  10.676  0.5639  1.7738 -1.2882
  149SAPE   H4S16469  -0.174   4.747  10.787 -1.7995 -0.6277  1.9098
  149SAPE   C2516470  -0.303   4.714  10.616  0.2525 -0.3782  0.0794
  149SAPE   H5R16471  -0.358   4.804  10.647  0.8866 -1.1630  3.7431
  149SAPE   C2616472  -0.327   4.652  10.497  0.2546 -0.0525 -0.4828
  149SAPE   H6R16473  -0.400   4.701  10.431 -3.1576 -0.9451  2.4766
  149SAPE   C2716474  -0.262   4.526  10.452  0.6922 -0.6969 -0.1006
  149SAPE   H7R16475  -0.171   4.501  10.510  1.6204  1.0452 -0.7482
  149SAPE   H7S16476  -0.207   4.539  10.356  0.3469 -1.3485 -0.3906
  149SAPE   C2816477  -0.362   4.403  10.440  0.1951 -0.2898  0.5607
  149SAPE   H8R16478  -0.423   4.374  10.526  0.6586 -0.9835  0.6626
  149SAPE   C2916479  -0.368   4.307  10.341 -0.3407  0.3123  0.2079
  149SAPE   H9R16480  -0.453   4.238  10.336 -1.0322  1.1839 -0.0362
  149SAPE  C21016481  -0.294   4.314  10.209  0.0056 -0.4910 -0.0118
  149SAPE  H10R16482  -0.254   4.218  10.168  0.7381  0.1588 -0.8505
  149SAPE  H10S16483  -0.199   4.369  10.224  1.0537 -2.3163  0.1764
  149SAPE  C21116484  -0.369   4.393  10.104  0.3554  0.6425 -0.0637
  149SAPE  H11R16485  -0.463   4.438  10.140 -0.2312 -0.2231 -0.4974
  149SAPE  C21216486  -0.321   4.432   9.982 -0.3904 -0.5906 -0.4801
  149SAPE  H12R16487  -0.388   4.498   9.926 -0.1344  3.1525  3.3796
  149SAPE  C21316488  -0.193   4.395   9.908  1.0108  0.1281 -0.1870
  149SAPE  H13R16489  -0.104   4.399   9.975 -0.1766  0.4861  1.3754
  149SAPE  H13S16490  -0.179   4.472   9.829  0.7447 -0.0123 -0.3713
  149SAPE  C21416491  -0.193   4.254   9.855 -0.4255  0.3819  0.1495
  149SAPE  H14R16492  -0.148   4.184   9.928  2.0299 -0.3998 -2.0419
  149SAPE  C21516493  -0.240   4.212   9.735  1.2947  0.2672 -0.0243
  149SAPE  H15R16494  -0.248   4.106   9.708  2.6600  0.0804  0.2655
  149SAPE  C21616495  -0.308   4.298   9.626  0.4465 -0.6331 -0.1837
  149SAPE  H16R16496  -0.320   4.402   9.662  2.0131 -0.0323 -1.3497
  149SAPE  H16S16497  -0.416   4.275   9.612  0.8211 -1.2529 -2.3337
  149SAPE  C21716498  -0.229   4.299   9.497  0.0395 -0.2565  0.0689
  149SAPE  H17R16499  -0.212   4.192   9.472 -1.3795 -0.5765  0.4354
  149SAPE  H17S16500  -0.127   4.343   9.495 -0.6098  1.2616 -3.9663
  149SAPE  C21816501  -0.310   4.360   9.381  0.2723  0.9255 -0.8373
  149SAPE  H18R16502  -0.324   4.467   9.409 -0.8447  0.2094  1.4330
  149SAPE  H18S16503  -0.407   4.307   9.383 -0.6482  2.6376  1.3418
  149SAPE  C21916504  -0.240   4.351   9.250 -0.1925 -0.2448 -0.3809
  149SAPE  H19R16505  -0.234   4.244   9.224 -2.7295  0.0053 -2.1936
  149SAPE  H19S16506  -0.135   4.385   9.258  0.2324 -1.5393 -0.4096
  149SAPE  C22016507  -0.309   4.411   9.123 -0.0594  0.4873 -0.2879
  149SAPE  H20R16508  -0.417   4.385   9.119 -0.4218  1.7495  0.8479
  149SAPE  H20S16509  -0.260   4.389   9.025  2.3209  1.5019  0.6202
  149SAPE  H20T16510  -0.293   4.519   9.139 -0.1541  0.3988  0.4071
  149SAPE   C3316511   0.101   4.253  10.237 -0.1602  0.3950 -0.1262
  149SAPE   H3X16512   0.015   4.240  10.169 -0.4139 -1.1076  0.4543
  149SAPE   H3Y16513   0.150   4.154  10.247 -0.4678  0.2744  0.2088
  149SAPE   C3416514   0.214   4.348  10.176  0.3423 -0.6510  0.1278
  149SAPE   H4X16515   0.294   4.355  10.254 -0.1979  2.9301  0.4249
  149SAPE   H4Y16516   0.179   4.452  10.166  1.1643 -0.2414  1.2953
  149SAPE   C3516517   0.288   4.292  10.051 -0.4240 -0.3154 -0.3912
  149SAPE   H5X16518   0.300   4.183  10.065  0.2067 -0.5150 -2.2698
  149SAPE   H5Y16519   0.393   4.329  10.046 -0.5431 -0.1378 -1.8530
  149SAPE   C3616520   0.218   4.330   9.916  0.0104  0.8470  0.4132
  149SAPE   H6X16521   0.191   4.438   9.912  1.5183  1.3523  2.6948
  149SAPE   H6Y16522   0.136   4.256   9.916  0.3370  0.4799  0.6801
  149SAPE   C3716523   0.300   4.297   9.794 -1.1573 -0.5597 -0.0979
  149SAPE   H7X16524   0.319   4.187   9.794  0.4450 -0.2984  0.9878
  149SAPE   H7Y16525   0.404   4.337   9.804 -0.9706 -1.3909  1.3290
  149SAPE   C3816526   0.231   4.348   9.674  1.1447  1.1007  0.5059
  149SAPE   H8X16527   0.258   4.456   9.665  2.1896  0.8064 -0.0858
  149SAPE   H8Y16528   0.121   4.346   9.688  0.7504 -0.0523 -2.4026
  149SAPE   C3916529   0.259   4.260   9.547 -0.7579  0.5722 -0.3285
  149SAPE   H9X16530   0.257   4.150   9.561 -1.7149  0.8963  2.2200
  149SAPE   H9Y16531   0.366   4.274   9.521 -1.1387  0.9297 -1.7698
  149SAPE  C31016532   0.190   4.294   9.420 -0.2595 -0.2403 -0.3319
  149SAPE  H10X16533   0.179   4.404   9.405  2.5907  0.2332  0.6656
  149SAPE  H10Y16534   0.088   4.250   9.427  0.2803 -1.4680 -0.0939
  149SAPE  C31116535   0.256   4.234   9.299  0.2826  0.5241 -0.3189
  149SAPE  H11X16536   0.300   4.137   9.331 -0.2176  0.5610  0.5006
  149SAPE  H11Y16537   0.339   4.302   9.270 -0.6007  0.5054 -3.0314
  149SAPE  C31216538   0.166   4.230   9.178 -0.1968  0.0238  0.4846
  149SAPE  H12X16539   0.099   4.319   9.175  1.6642  1.5414  2.3135
  149SAPE  H12Y16540   0.102   4.142   9.197  3.8573 -3.0661  0.5312
  149SAPE  C31316541   0.226   4.199   9.038  0.0016  0.1553 -1.5261
  149SAPE  H13X16542   0.138   4.199   8.970 -0.6079  1.2468 -0.7594
  149SAPE  H13Y16543   0.280   4.102   9.041  2.1619  1.3644  0.2905
  149SAPE  C31416544   0.335   4.300   9.001  0.1102 -0.4028  0.3211
  149SAPE  H14X16545   0.407   4.323   9.082  0.1480  0.8998 -0.0632
  149SAPE  H14Y16546   0.280   4.394   8.982 -2.0908 -1.4720  1.2050
  149SAPE  C31516547   0.404   4.260   8.868  0.0287 -0.0753  0.6930
  149SAPE  H15X16548   0.325   4.211   8.807  1.0366 -0.1035 -0.6181
  149SAPE  H15Y16549   0.483   4.183   8.879 -0.2690 -0.4860  0.0120
  149SAPE  C31616550   0.455   4.392   8.810  0.8064  0.4157  0.2390
  149SAPE  H16X16551   0.370   4.463   8.809 -0.7800 -1.4388 -0.4575
  149SAPE  H16Y16552   0.479   4.375   8.703  1.9525  1.9609  0.2434
  149SAPE  C31716553   0.582   4.432   8.883 -1.0489 -0.1923 -0.1660
  149SAPE  H17X16554   0.656   4.349   8.879 -1.5407 -0.7130  1.0519
  149SAPE  H17Y16555   0.560   4.465   8.987  2.9978  1.4444  0.2438
  149SAPE  C31816556   0.655   4.536   8.799 -0.1842 -0.2106 -0.6630
  149SAPE  H18X16557   0.583   4.614   8.768 -0.5215 -0.2727 -0.0343
  149SAPE  H18Y16558   0.698   4.483   8.711 -0.2039  1.4509 -1.6788
  149SAPE  H18Z16559   0.739   4.576   8.860 -1.9402  2.1649  0.2472
  150SAPE     N16560   1.524   3.968  10.686 -0.3134 -0.8896 -0.3078
  150SAPE   HN116561   1.568   3.971  10.779 -3.2332  4.9638  1.1588
  150SAPE   HN216562   1.548   3.881  10.634  2.3073  0.2440 -1.0462
  150SAPE   HN316563   1.551   4.051  10.629 -2.5570  0.7218  0.9001
  150SAPE   C1216564   1.377   3.964  10.714  0.4975 -0.7898 -0.2109
  150SAPE  H12A16565   1.325   3.980  10.618 -0.9495  0.0553  0.6942
  150SAPE  H12B16566   1.356   4.050  10.781 -1.5130  1.4915 -3.6340
  150SAPE   C1116567   1.327   3.830  10.763  0.1084 -0.4206 -0.2478
  150SAPE  H11A16568   1.348   3.767  10.674  0.6973  1.9032 -1.8084
  150SAPE  H11B16569   1.216   3.835  10.769  0.2477  2.6274  1.1178
  150SAPE     P16570   1.486   3.662  10.885  0.1854  0.0490  0.7695
  150SAPE   O1316571   1.545   3.651  11.022  0.2757 -0.3387  0.3662
  150SAPE   O1416572   1.412   3.545  10.831 -0.4782 -0.0127 -0.0905
  150SAPE   O1216573   1.387   3.786  10.883 -0.5423 -0.2059  0.2645
  150SAPE   O1116574   1.597   3.701  10.784 -0.5504 -0.4600  0.1807
  150SAPE    C116575   1.713   3.610  10.782 -0.4744 -0.3769 -0.0836
  150SAPE    HA16576   1.792   3.634  10.856 -1.7058 -3.4706  2.3576
  150SAPE    HB16577   1.681   3.505  10.800  0.4455 -0.6077  0.1888
  150SAPE    C216578   1.773   3.608  10.642  0.4972  0.2474  0.3192
  150SAPE    HS16579   1.815   3.708  10.618  3.0987 -0.2832  2.3493
  150SAPE   O2116580   1.684   3.560  10.545  0.3283  0.2373  0.5560
  150SAPE   C2116581   1.591   3.640  10.496  0.2089  0.8438  0.2887
  150SAPE   O2216582   1.568   3.758  10.523 -0.1568 -0.6708 -0.3221
  150SAPE   C2216583   1.514   3.572  10.384  0.4920  0.2481 -0.3373
  150SAPE   H2R16584   1.415   3.537  10.421  0.1860  0.0388 -1.3578
  150SAPE   H2S16585   1.497   3.657  10.314 -0.0967 -0.7064 -1.3644
  150SAPE    C316586   1.895   3.504  10.636  0.5829  0.0221  1.1168
  150SAPE    HX16587   1.864   3.403  10.669 -0.6974 -0.4759 -1.4981
  150SAPE    HY16588   1.973   3.543  10.706 -0.8132 -1.5284  3.6064
  150SAPE   O3116589   1.954   3.491  10.504 -0.4649 -0.3662 -0.8793
  150SAPE   C3116590   2.041   3.584  10.464 -0.4667 -0.0228 -0.5458
  150SAPE   O3216591   2.061   3.694  10.513 -0.1481  0.2260  0.0729
  150SAPE   C3216592   2.102   3.544  10.331  0.7817  0.1465 -0.8055
  150SAPE   H2X16593   2.076   3.435  10.329 -1.6334  0.6698 -0.0814
  150SAPE   H2Y16594   2.211   3.559  10.336  0.7537  0.1340 -0.0599
  150SAPE   C2316595   1.583   3.445  10.321  0.1732  0.4395 -0.3319
  150SAPE   H3R16596   1.574   3.357  10.389 -1.1956  0.9119  0.1038
  150SAPE   H3S16597   1.691   3.468  10.314 -0.4731  4.3293  1.3297
  150SAPE   C2416598   1.516   3.418  10.187  0.1154  0.8814  0.2206
  150SAPE   H4R16599   1.555   3.319  10.154 -1.5113  0.5261 -0.6785
  150SAPE   H4S16600   1.551   3.501  10.123  0.4045  0.6855  0.1224
  150SAPE   C2516601   1.360   3.420  10.178 -0.1881  0.3130  0.1751
  150SAPE   H5R16602   1.312   3.369  10.263 -2.2014 -0.8987 -1.6190
  150SAPE   C2616603   1.294   3.474  10.071  0.4857  0.6124 -0.2315
  150SAPE   H6R16604   1.185   3.461  10.074  0.5069  0.4403 -0.2220
  150SAPE   C2716605   1.359   3.544   9.953 -0.0461  0.4700  0.3046
  150SAPE   H7R16606   1.385   3.478   9.867 -0.2604  0.9746 -0.1507
  150SAPE   H7S16607   1.459   3.589   9.971  0.5212 -0.4128 -0.5364
  150SAPE   C2816608   1.274   3.655   9.892 -0.0699  0.0561 -0.3853
  150SAPE   H8R16609   1.173   3.670   9.933  0.2075 -1.3026  0.8630
  150SAPE   C2916610   1.300   3.719   9.779 -0.3787 -0.1597  0.1173
  150SAPE   H9R16611   1.235   3.803   9.754 -1.9960 -0.5719  2.7276
  150SAPE  C21016612   1.419   3.710   9.688 -0.4915 -0.5969  0.2363
  150SAPE  H10R16613   1.501   3.653   9.737  0.6755 -1.0385 -2.1798
  150SAPE  H10S16614   1.449   3.813   9.659 -0.4649 -0.4218  0.8775
  150SAPE  C21116615   1.395   3.632   9.564 -0.0525  0.5466  0.2944
  150SAPE  H11R16616   1.378   3.526   9.587 -0.2594  0.4559 -0.2574
  150SAPE  C21216617   1.390   3.671   9.433  0.2769  0.0978 -0.8566
  150SAPE  H12R16618   1.370   3.593   9.358 -0.6130 -0.3223 -0.1867
  150SAPE  C21316619   1.406   3.812   9.381 -0.1864 -0.0293  0.4774
  150SAPE  H13R16620   1.510   3.846   9.401 -1.1642  2.9499  0.7598
  150SAPE  H13S16621   1.344   3.879   9.445  0.0646 -0.5437  1.2675
  150SAPE  C21416622   1.367   3.823   9.235 -0.4241  0.1537 -0.3135
  150SAPE  H14R16623   1.298   3.747   9.195  1.6689 -1.2058 -1.4352
  150SAPE  C21516624   1.404   3.918   9.153 -0.7385 -0.0937 -0.1121
  150SAPE  H15R16625   1.365   3.922   9.050  1.3076  0.9623 -0.8535
  150SAPE  C21616626   1.493   4.031   9.186  0.4632  0.1753 -0.3344
  150SAPE  H16R16627   1.526   4.071   9.088 -1.0717  3.6872  0.5011
  150SAPE  H16S16628   1.581   4.000   9.247  0.0196  1.6373  1.0891
  150SAPE  C21716629   1.441   4.156   9.258 -0.9597  0.1937 -0.3077
  150SAPE  H17R16630   1.518   4.228   9.292 -0.3029 -0.2910 -0.7711
  150SAPE  H17S16631   1.400   4.126   9.357 -1.7091  0.8682 -0.4030
  150SAPE  C21816632   1.346   4.238   9.170 -0.1035  0.4605  1.3842
  150SAPE  H18R16633   1.272   4.293   9.233 -2.2518 -1.4638  0.6255
  150SAPE  H18S16634   1.279   4.169   9.114  0.2656  0.7095  0.6360
  150SAPE  C21916635   1.433   4.326   9.079  0.2334 -0.5063 -0.2532
  150SAPE  H19R16636   1.494   4.260   9.013  0.2517 -0.1529 -0.5862
  150SAPE  H19S16637   1.510   4.374   9.143  0.5326 -1.7337  0.3377
  150SAPE  C22016638   1.352   4.431   8.999 -0.3760 -0.3176  0.4335
  150SAPE  H20R16639   1.414   4.477   8.919 -3.2469  3.1425  0.0722
  150SAPE  H20S16640   1.303   4.504   9.066  0.5914  2.2352 -1.5795
  150SAPE  H20T16641   1.275   4.366   8.953 -0.9291 -2.5099  4.2281
  150SAPE   C3316642   2.053   3.617  10.207  0.5449  0.1227  0.1021
  150SAPE   H3X16643   2.057   3.727  10.218  1.6548  0.1719 -0.7775
  150SAPE   H3Y16644   1.947   3.590  10.184  0.5299 -0.2799  0.6299
  150SAPE   C3416645   2.145   3.596  10.083 -0.3671 -1.1034 -0.0600
  150SAPE   H4X16646   2.146   3.487  10.059 -1.8746 -1.0181 -0.5745
  150SAPE   H4Y16647   2.246   3.623  10.118 -0.0002 -1.1527 -1.0575
  150SAPE   C3516648   2.110   3.693   9.964  0.0955  0.2729  0.4643
  150SAPE   H5X16649   2.102   3.798   9.998 -1.2993  1.2090 -2.5920
  150SAPE   H5Y16650   2.008   3.661   9.933  0.2887  1.4162 -1.3702
  150SAPE   C3616651   2.220   3.686   9.855 -0.0744  0.0224  0.3615
  150SAPE   H6X16652   2.224   3.583   9.813 -2.1055 -0.0639  0.3186
  150SAPE   H6Y16653   2.317   3.719   9.896  0.3082  0.3859 -0.8411
  150SAPE   C3716654   2.181   3.783   9.742 -0.7326 -0.3606  0.6449
  150SAPE   H7X16655   2.204   3.886   9.774 -1.7844  0.2193 -0.4015
  150SAPE   H7Y16656   2.070   3.775   9.732 -0.6130 -2.6366  0.7387
  150SAPE   C3816657   2.245   3.763   9.597 -0.6150  0.0325 -0.4268
  150SAPE   H8X16658   2.204   3.831   9.519  0.4515  0.4341 -0.6299
  150SAPE   H8Y16659   2.233   3.658   9.560 -1.0463 -0.0558 -0.0528
  150SAPE   C3916660   2.396   3.791   9.603 -0.2956  0.3067  0.1172
  150SAPE   H9X16661   2.453   3.744   9.520  0.9672 -1.8218  2.1106
  150SAPE   H9Y16662   2.435   3.734   9.691  0.9504 -0.3980 -0.8758
  150SAPE  C31016663   2.434   3.938   9.609  0.4821 -0.0315 -0.3478
  150SAPE  H10X16664   2.401   3.972   9.710 -0.6847  0.2086 -0.7977
  150SAPE  H10Y16665   2.375   4.002   9.539 -1.3428 -0.1491  1.0448
  150SAPE  C31116666   2.586   3.971   9.591 -0.6462 -0.7204 -1.2662
  150SAPE  H11X16667   2.641   3.907   9.662 -0.1926  1.0891  0.0412
  150SAPE  H11Y16668   2.603   4.080   9.608  0.1405 -0.9905 -0.2990
  150SAPE  C31216669   2.640   3.944   9.446  0.0615  0.3912  0.4528
  150SAPE  H12X16670   2.577   4.000   9.372 -0.7290  0.2305  1.0020
  150SAPE  H12Y16671   2.642   3.837   9.417  2.6814  0.5294  0.0256
  150SAPE  C31316672   2.788   3.976   9.432  0.6084  0.6793 -0.0877
  150SAPE  H13X16673   2.853   3.925   9.506 -0.1001  1.1735  0.8986
  150SAPE  H13Y16674   2.785   4.077   9.480 -0.3428  0.8130 -0.4083
  150SAPE  C31416675   2.852   3.990   9.293 -1.0006  0.2505  0.3745
  150SAPE  H14X16676   2.887   3.896   9.247 -1.1268  0.5100 -0.2625
  150SAPE  H14Y16677   2.940   4.056   9.306 -2.2658  2.6762 -2.5683
  150SAPE  C31516678   2.767   4.056   9.187  0.3093  0.3525 -0.2560
  150SAPE  H15X16679   2.731   4.148   9.236 -0.9146  0.4692 -1.3350
  150SAPE  H15Y16680   2.671   4.004   9.162 -0.6923  2.7160 -1.5081
  150SAPE  C31616681   2.847   4.098   9.060  0.1578  0.2291 -0.4415
  150SAPE  H16X16682   2.857   4.013   8.989 -0.0889 -0.5301  0.4222
  150SAPE  H16Y16683   2.954   4.117   9.083 -0.7442  2.3781  2.2999
  150SAPE  C31716684   2.794   4.217   8.977 -0.0936 -0.4087  0.3703
  150SAPE  H17X16685   2.854   4.302   9.016  2.6226 -1.8686 -0.4937
  150SAPE  H17Y16686   2.688   4.234   9.007 -0.3491 -0.9594 -0.1951
  150SAPE  C31816687   2.803   4.209   8.819 -0.5436  0.5582 -0.1640
  150SAPE  H18X16688   2.746   4.120   8.785 -0.0817 -0.3623  1.3974
  150SAPE  H18Y16689   2.909   4.189   8.794 -0.9050  0.3080 -1.5197
  150SAPE  H18Z16690   2.745   4.292   8.773  0.0756  2.3520  2.1860
  151SAPE     N16691   5.579   0.419  10.576  0.0344  0.1008 -0.5666
  151SAPE   HN116692   5.617   0.357  10.502 -0.3408  0.0264 -0.6978
  151SAPE   HN216693   5.641   0.447  10.655  0.6114  0.5179 -1.1616
  151SAPE   HN316694   5.494   0.371  10.612 -0.4604 -1.4650 -3.6329
  151SAPE   C1216695   5.539   0.551  10.507  0.7895  0.6537 -0.0103
  151SAPE  H12A16696   5.535   0.625  10.589  2.7707  0.8270 -0.0368
  151SAPE  H12B16697   5.441   0.544  10.455  1.5523 -1.6187 -1.2435
  151SAPE   C1116698   5.649   0.591  10.410 -0.0112  0.0826 -0.1580
  151SAPE  H11A16699   5.617   0.684  10.359 -0.9803 -0.9252 -1.4004
  151SAPE  H11B16700   5.647   0.513  10.331  0.1880  0.5619 -0.6383
  151SAPE     P16701   5.852   0.739  10.478 -0.0100  0.0502 -0.1595
  151SAPE   O1316702   5.768   0.842  10.544 -0.1089  0.2886  0.1390
  151SAPE   O1416703   5.985   0.721  10.534 -0.6223  0.4118 -0.3435
  151SAPE   O1216704   5.773   0.604  10.477 -0.4807  0.4613 -0.3407
  151SAPE   O1116705   5.863   0.768  10.324  0.8413  0.2757 -0.8699
  151SAPE    C116706   5.984   0.729  10.259  0.0445  0.2292  0.0300
  151SAPE    HA16707   6.073   0.749  10.322 -1.4374  0.8865  1.9856
  151SAPE    HB16708   5.975   0.620  10.240  0.1144  0.0135  1.1910
  151SAPE    C216709   6.005   0.810  10.127 -0.0366 -0.8668  0.7117
  151SAPE    HS16710   6.032   0.912  10.161 -0.3286 -0.5648  0.0477
  151SAPE   O2116711   5.881   0.818  10.059  0.8108  0.5571 -0.0731
  151SAPE   C2116712   5.885   0.911   9.965 -0.1461  0.5679  0.5028
  151SAPE   O2216713   5.982   0.960   9.915 -0.3131 -0.1681  0.1784
  151SAPE   C2216714   5.742   0.968   9.936  0.6495  0.1539  0.2599
  151SAPE   H2R16715   5.712   1.038  10.017 -0.8096  0.3932 -0.4622
  151SAPE   H2S16716   5.745   1.023   9.840 -2.2176  0.0076  0.0339
  151SAPE    C316717   6.122   0.748  10.043  0.3016  0.5883  0.7031
  151SAPE    HX16718   6.216   0.763  10.101  0.9062 -0.4027  0.0017
  151SAPE    HY16719   6.133   0.782   9.937 -1.7073 -0.9392 -0.0205
  151SAPE   O3116720   6.106   0.603  10.033 -0.2249 -0.1167  0.6178
  151SAPE   C3116721   6.040   0.545   9.932 -0.0120 -0.0578 -0.4471
  151SAPE   O3216722   5.973   0.607   9.853 -0.2533 -0.0648  0.3116
  151SAPE   C3216723   6.057   0.393   9.942  0.6897 -0.2653 -0.0603
  151SAPE   H2X16724   6.033   0.360  10.046 -1.4875 -0.2528 -0.5445
  151SAPE   H2Y16725   6.166   0.383   9.923  0.5516 -3.1345  0.4340
  151SAPE   C2316726   5.639   0.852   9.908 -0.2128  0.4772  1.1137
  151SAPE   H3R16727   5.538   0.897   9.903 -1.9745 -3.3368  0.9522
  151SAPE   H3S16728   5.621   0.807  10.008  1.2351 -1.3784  0.5580
  151SAPE   C2416729   5.660   0.764   9.781 -0.6475  0.2045 -0.4749
  151SAPE   H4R16730   5.608   0.668   9.801  0.6191 -0.3708  0.1501
  151SAPE   H4S16731   5.768   0.740   9.792 -0.8918  0.4509  3.3314
  151SAPE   C2516732   5.633   0.840   9.655  0.7568 -0.8712  0.8606
  151SAPE   H5R16733   5.527   0.862   9.634  1.3399  0.9992 -0.2390
  151SAPE   C2616734   5.721   0.884   9.568  0.3080 -0.5193  0.3184
  151SAPE   H6R16735   5.686   0.918   9.469  3.0557  2.4441  0.2622
  151SAPE   C2716736   5.873   0.880   9.573  0.2124  0.2691  0.2480
  151SAPE   H7R16737   5.909   0.781   9.535 -0.5885  0.2849 -0.5779
  151SAPE   H7S16738   5.895   0.882   9.682 -1.7369 -0.2612  0.6883
  151SAPE   C2816739   5.952   0.986   9.512  0.1122 -0.2100  0.6217
  151SAPE   H8R16740   5.988   1.067   9.578  0.6672 -0.8853  1.1470
  151SAPE   C2916741   5.943   1.015   9.382  0.3105 -0.4021 -0.1356
  151SAPE   H9R16742   6.003   1.099   9.341  0.8683 -0.8826 -0.3116
  151SAPE  C21016743   5.867   0.938   9.271 -0.8128  0.2843 -0.5269
  151SAPE  H10R16744   5.823   0.843   9.308  0.4686 -0.1546 -0.0939
  151SAPE  H10S16745   5.947   0.913   9.198  0.1678  0.5873  0.4345
  151SAPE  C21116746   5.756   1.026   9.213  0.0151 -0.3712  0.1250
  151SAPE  H11R16747   5.682   1.058   9.287  0.0361  0.8903 -0.3900
  151SAPE  C21216748   5.739   1.047   9.082  0.4843 -0.0240 -0.7280
  151SAPE  H12R16749   5.671   1.126   9.050 -1.3618 -2.7387 -3.8402
  151SAPE  C21316750   5.823   0.982   8.964 -0.3516  0.5448 -0.0879
  151SAPE  H13R16751   5.757   0.990   8.875 -2.5349  0.8661  1.5257
  151SAPE  H13S16752   5.818   0.872   8.975 -0.3558  0.6863  1.3969
  151SAPE  C21416753   5.958   1.041   8.951 -0.7051 -0.6306 -0.3502
  151SAPE  H14R16754   6.018   1.029   9.042 -0.0797 -1.6380 -0.8835
  151SAPE  C21516755   6.014   1.090   8.839 -0.1208  0.1875  0.6066
  151SAPE  H15R16756   6.113   1.139   8.843  0.1986 -0.4501  0.4819
  151SAPE  C21616757   5.949   1.097   8.699 -0.0465  0.0568  0.8252
  151SAPE  H16R16758   5.964   1.195   8.649 -0.9254  0.1635  0.7531
  151SAPE  H16S16759   5.840   1.085   8.719 -0.0676 -0.0451  0.6394
  151SAPE  C21716760   5.992   0.977   8.615  1.0843  0.0602  0.3575
  151SAPE  H17R16761   5.975   0.880   8.667  0.7130  0.0649  0.2432
  151SAPE  H17S16762   6.101   0.992   8.597  0.8290 -0.1823 -1.5556
  151SAPE  C21816763   5.926   0.969   8.479  0.1960  0.4707  1.3373
  151SAPE  H18R16764   5.977   0.899   8.410 -0.3479  2.2142 -0.9071
  151SAPE  H18S16765   5.938   1.073   8.441 -0.0676  0.1981  0.5062
  151SAPE  C21916766   5.772   0.941   8.470 -0.4158  0.2243  0.3710
  151SAPE  H19R16767   5.734   0.963   8.367  0.7672 -0.3650 -0.2053
  151SAPE  H19S16768   5.720   1.020   8.529 -1.3983  2.8031 -3.7104
  151SAPE  C22016769   5.742   0.805   8.528  0.2155  0.3862  0.0873
  151SAPE  H20R16770   5.811   0.729   8.486 -1.2097 -0.3337 -0.9642
  151SAPE  H20S16771   5.641   0.770   8.498 -0.0234  1.0698  0.0947
  151SAPE  H20T16772   5.741   0.796   8.639 -0.5287 -2.1776 -0.0865
  151SAPE   C3316773   5.975   0.305   9.841 -0.7865 -0.2204  0.3033
  151SAPE   H3X16774   5.865   0.322   9.843 -0.6793  0.5688 -0.4817
  151SAPE   H3Y16775   5.990   0.199   9.870  2.4467 -0.0592 -0.6008
  151SAPE   C3416776   6.019   0.303   9.703 -0.2368 -0.0866  0.4419
  151SAPE   H4X16777   6.130   0.308   9.709 -0.2569  0.1312  0.6193
  151SAPE   H4Y16778   5.986   0.392   9.646 -0.7626 -0.3768  0.2968
  151SAPE   C3516779   5.980   0.174   9.637 -0.2804 -0.1882  0.1586
  151SAPE   H5X16780   5.870   0.180   9.624 -0.3077 -1.1982 -0.1832
  151SAPE   H5Y16781   6.011   0.082   9.691 -0.0018 -0.9809 -1.3188
  151SAPE   C3616782   6.023   0.162   9.488 -0.0610 -0.1180 -0.5122
  151SAPE   H6X16783   6.133   0.150   9.484  0.2354  2.1039  0.2932
  151SAPE   H6Y16784   6.001   0.261   9.442 -0.5466  0.9266  1.8864
  151SAPE   C3716785   5.951   0.054   9.397 -0.2380  0.2518  0.3338
  151SAPE   H7X16786   5.843   0.076   9.411 -0.5467 -0.3717 -0.9881
  151SAPE   H7Y16787   5.972  -0.051   9.427 -1.3507  0.3545  1.5294
  151SAPE   C3816788   5.990   0.085   9.255 -0.2068 -0.2983  1.2314
  151SAPE   H8X16789   6.101   0.077   9.261 -0.1588 -0.9594 -0.4185
  151SAPE   H8Y16790   5.968   0.191   9.231 -0.0394 -0.0568  2.1152
  151SAPE   C3916791   5.916  -0.003   9.157 -0.1763 -0.3979 -0.0541
  151SAPE   H9X16792   5.811   0.030   9.167 -0.1484 -0.3941  0.2388
  151SAPE   H9Y16793   5.920  -0.110   9.185  1.6516 -0.1118  0.8764
  151SAPE  C31016794   5.986   0.010   9.022 -0.2173 -0.5249 -0.1487
  151SAPE  H10X16795   6.092  -0.022   9.028  0.0847  0.6859  1.3434
  151SAPE  H10Y16796   5.983   0.118   8.997 -0.5096  0.0077  2.1225
  151SAPE  C31116797   5.927  -0.072   8.911 -0.4219 -0.0450 -0.5472
  151SAPE  H11X16798   5.817  -0.058   8.919 -0.5203 -0.7228 -0.7068
  151SAPE  H11Y16799   5.953  -0.179   8.927 -3.0209 -0.9236 -1.7846
  151SAPE  C31216800   5.965  -0.028   8.767  0.2551  0.1613 -0.2246
  151SAPE  H12X16801   6.074  -0.046   8.773  0.1270 -0.3309  0.6905
  151SAPE  H12Y16802   5.941   0.075   8.733  1.4468  0.4384 -0.2424
  151SAPE  C31316803   5.908  -0.115   8.661  0.0798 -0.7139  0.0337
  151SAPE  H13X16804   5.897  -0.221   8.693 -0.0929 -0.2602  1.5128
  151SAPE  H13Y16805   5.970  -0.107   8.569  1.6130 -0.8313  1.0484
  151SAPE  C31416806   5.763  -0.073   8.630  0.0295  0.1731 -0.1225
  151SAPE  H14X16807   5.762   0.035   8.604 -1.0632  0.0423 -0.6641
  151SAPE  H14Y16808   5.692  -0.083   8.714  0.8319 -0.1528  0.5191
  151SAPE  C31516809   5.700  -0.126   8.506  0.3385  0.3762  0.0226
  151SAPE  H15X16810   5.761  -0.102   8.416 -1.5473 -2.4604 -2.1244
  151SAPE  H15Y16811   5.600  -0.079   8.492 -0.1157 -0.6981 -0.4402
  151SAPE  C31616812   5.689  -0.280   8.510 -0.2606  0.2174 -1.1104
  151SAPE  H16X16813   5.662  -0.303   8.616  1.6706 -0.9463 -0.8495
  151SAPE  H16Y16814   5.791  -0.322   8.498  0.5912  1.8765  0.1180
  151SAPE  C31716815   5.596  -0.332   8.399 -0.4439  0.0587 -0.3680
  151SAPE  H17X16816   5.648  -0.337   8.301 -2.5496  0.9440 -1.5637
  151SAPE  H17Y16817   5.523  -0.253   8.372 -0.7256 -0.1858 -0.3178
  151SAPE  C31816818   5.526  -0.461   8.439  0.4710  0.4179 -0.1632
  151SAPE  H18X16819   5.458  -0.496   8.359 -2.4480  1.1492  1.9364
  151SAPE  H18Y16820   5.457  -0.432   8.521  0.6755  2.2767 -0.6346
  151SAPE  H18Z16821   5.591  -0.542   8.478  1.7719  2.1003  1.2730
  152SAPE     N16822   0.363   0.212  10.657  0.0480 -0.4648  0.3669
  152SAPE   HN116823   0.290   0.249  10.592 -0.4541 -3.4687 -0.8777
  152SAPE   HN216824   0.368   0.108  10.646 -0.2825 -0.5465  0.9703
  152SAPE   HN316825   0.332   0.240  10.751 -0.2948 -0.3697  0.2262
  152SAPE   C1216826   0.483   0.275  10.602  0.1232  0.4714 -0.9755
  152SAPE  H12A16827   0.533   0.218  10.521  0.6216  1.9175 -1.7123
  152SAPE  H12B16828   0.559   0.279  10.684 -1.0902  0.5769  0.1618
  152SAPE   C1116829   0.455   0.422  10.550  0.7423 -0.2992  0.0359
  152SAPE  H11A16830   0.376   0.422  10.472 -1.4867  1.3657  2.2121
  152SAPE  H11B16831   0.555   0.445  10.506  0.7573 -0.8984 -0.2519
  152SAPE     P16832   0.475   0.645  10.664  0.1416 -0.3956 -0.1714
  152SAPE   O1316833   0.382   0.737  10.723  0.0782 -0.0730 -0.2218
  152SAPE   O1416834   0.608   0.628  10.733  0.0409 -0.5765  0.0715
  152SAPE   O1216835   0.410   0.504  10.652 -0.3005  1.0146  0.0054
  152SAPE   O1116836   0.512   0.703  10.518  0.0806  0.2239  0.3690
  152SAPE    C116837   0.428   0.722  10.407  0.9245 -0.1000 -0.1714
  152SAPE    HA16838   0.352   0.642  10.395  0.9051 -0.5142  2.3236
  152SAPE    HB16839   0.360   0.809  10.421  0.0006 -1.0461  1.4237
  152SAPE    C216840   0.505   0.742  10.274 -0.0790 -0.0975 -0.2177
  152SAPE    HS16841   0.576   0.656  10.268  1.4723  1.1393  0.0011
  152SAPE   O2116842   0.565   0.868  10.277 -0.7331  0.3645 -0.0528
  152SAPE   C2116843   0.700   0.867  10.285 -0.2257 -0.1928  0.0483
  152SAPE   O2216844   0.766   0.768  10.287 -0.7750  0.1894 -0.0443
  152SAPE   C2216845   0.747   1.014  10.285 -0.0854  0.3112  0.4565
  152SAPE   H2R16846   0.724   1.062  10.382  2.6492  0.1891  1.2164
  152SAPE   H2S16847   0.858   1.021  10.278  0.0127 -1.0609  0.3590
  152SAPE    C316848   0.402   0.744  10.156  0.7869  0.1349  0.0890
  152SAPE    HX16849   0.337   0.832  10.175  0.2825  0.5757 -3.3501
  152SAPE    HY16850   0.344   0.650  10.157 -0.2300  0.7413 -1.0716
  152SAPE   O3116851   0.457   0.771  10.025  0.5872  0.1496  0.1415
  152SAPE   C3116852   0.515   0.660   9.976 -0.5889  0.0527 -0.3527
  152SAPE   O3216853   0.526   0.551  10.027 -0.1316 -0.2247  0.2356
  152SAPE   C3216854   0.567   0.704   9.843  0.4982  0.5514  0.5860
  152SAPE   H2X16855   0.587   0.621   9.771 -0.0034  0.0215  1.0534
  152SAPE   H2Y16856   0.657   0.767   9.860  0.3625  0.3713  2.0137
  152SAPE   C2316857   0.686   1.095  10.167  0.5557  0.2714 -0.0703
  152SAPE   H3R16858   0.713   1.199  10.195 -0.3186 -0.1233  2.3590
  152SAPE   H3S16859   0.579   1.066  10.157  1.0786 -1.0827 -2.1729
  152SAPE   C2416860   0.757   1.078  10.032  0.1267 -0.0009  1.4836
  152SAPE   H4R16861   0.773   0.968  10.032  1.2182  0.0725 -3.0939
  152SAPE   H4S16862   0.862   1.116  10.036  0.5684 -0.7371 -2.0767
  152SAPE   C2516863   0.686   1.117   9.905 -0.1316  0.0439  0.1270
  152SAPE   H5R16864   0.579   1.095   9.896 -0.3889  1.0730  0.7103
  152SAPE   C2616865   0.732   1.182   9.798 -0.0918 -0.2517  0.5133
  152SAPE   H6R16866   0.661   1.180   9.714  0.3026  0.3881  0.1585
  152SAPE   C2716867   0.860   1.249   9.768  0.3797 -0.0491  0.2607
  152SAPE   H7R16868   0.896   1.298   9.861 -0.4738 -1.0476  1.1392
  152SAPE   H7S16869   0.848   1.332   9.696 -1.1349  0.7594  1.4240
  152SAPE   C2816870   0.976   1.157   9.729  0.2055  0.8628  0.8366
  152SAPE   H8R16871   1.034   1.105   9.807  2.0746 -0.1192 -1.1382
  152SAPE   C2916872   1.016   1.145   9.597 -0.8749 -0.1406  0.4330
  152SAPE   H9R16873   1.103   1.082   9.572 -0.7193 -0.9875  2.9441
  152SAPE  C21016874   0.960   1.195   9.468 -1.3013 -0.0385 -0.0278
  152SAPE  H10R16875   0.852   1.212   9.490 -1.1578  0.0979  0.5872
  152SAPE  H10S16876   0.967   1.117   9.389  0.8967  0.0191  0.0771
  152SAPE  C21116877   1.016   1.330   9.412  0.8261 -1.0058  0.1361
  152SAPE  H11R16878   1.088   1.378   9.479 -0.4361  2.7340 -1.0768
  152SAPE  C21216879   0.970   1.393   9.301  0.2091  0.5078 -0.3441
  152SAPE  H12R16880   1.020   1.486   9.270  0.7011  0.1983 -0.4853
  152SAPE  C21316881   0.861   1.336   9.214  0.0540 -0.2709 -0.2283
  152SAPE  H13R16882   0.867   1.225   9.218  0.3726 -0.2060  1.4319
  152SAPE  H13S16883   0.878   1.376   9.112 -0.2586  0.8287  0.1506
  152SAPE  C21416884   0.726   1.396   9.264  0.3036  0.0761 -0.0401
  152SAPE  H14R16885   0.724   1.424   9.370  0.9779  3.3043 -0.8237
  152SAPE  C21516886   0.619   1.431   9.189 -0.0193 -0.4297 -0.6108
  152SAPE  H15R16887   0.535   1.472   9.247  0.1039 -0.2958 -0.5265
  152SAPE  C21616888   0.592   1.409   9.047 -0.1796  0.6824  0.4883
  152SAPE  H16R16889   0.483   1.400   9.032 -0.3722 -0.4052  2.2708
  152SAPE  H16S16890   0.646   1.315   9.022 -1.3506  0.2237 -0.3172
  152SAPE  C21716891   0.653   1.532   8.976 -0.0599  0.3656 -1.0404
  152SAPE  H17R16892   0.762   1.544   8.996 -0.0137  0.4062 -1.3177
  152SAPE  H17S16893   0.593   1.622   9.001  2.6447  2.1497 -0.7884
  152SAPE  C21816894   0.640   1.514   8.828 -0.0374 -0.3312  0.5976
  152SAPE  H18R16895   0.532   1.519   8.803  0.1483  0.5153 -0.0435
  152SAPE  H18S16896   0.690   1.421   8.792 -0.1418  0.0406 -0.5293
  152SAPE  C21916897   0.710   1.622   8.749 -0.5392  0.3625 -0.0349
  152SAPE  H19R16898   0.729   1.606   8.641  1.0763 -1.3798  0.4817
  152SAPE  H19S16899   0.814   1.628   8.787 -0.7738 -2.5884  1.1664
  152SAPE  C22016900   0.645   1.758   8.765  0.7658 -0.6419  0.4444
  152SAPE  H20R16901   0.538   1.744   8.791  0.1134  0.3097 -1.6011
  152SAPE  H20S16902   0.650   1.824   8.676 -0.8306  0.7614  1.3730
  152SAPE  H20T16903   0.673   1.822   8.852  0.7176 -2.1396  1.5755
  152SAPE   C3316904   0.471   0.794   9.762  0.6782  0.3292 -0.1501
  152SAPE   H3X16905   0.468   0.892   9.813 -0.2757 -1.2138  2.8759
  152SAPE   H3Y16906   0.364   0.764   9.757  0.8746 -0.5466  0.7583
  152SAPE   C3416907   0.520   0.850   9.620  0.0723 -0.5489  0.4854
  152SAPE   H4X16908   0.544   0.771   9.546  1.1686  0.3302 -0.1134
  152SAPE   H4Y16909   0.621   0.887   9.647  0.3519 -1.8556  1.3119
  152SAPE   C3516910   0.406   0.942   9.550 -0.0422  0.5314 -0.0528
  152SAPE   H5X16911   0.395   1.038   9.605 -0.7020  1.4672 -1.7935
  152SAPE   H5Y16912   0.308   0.890   9.547  0.8674 -1.2660  0.2268
  152SAPE   C3616913   0.434   0.991   9.402 -0.9728  0.0794 -0.2930
  152SAPE   H6X16914   0.418   0.906   9.333  1.1996  0.4641 -1.3152
  152SAPE   H6Y16915   0.537   1.022   9.373 -0.0012 -0.9962  1.9291
  152SAPE   C3716916   0.347   1.106   9.352 -0.0857 -0.2883 -0.3255
  152SAPE   H7X16917   0.372   1.202   9.401  0.0998 -0.7346  0.4669
  152SAPE   H7Y16918   0.239   1.088   9.371  0.1812 -0.7039  0.8501
  152SAPE   C3816919   0.377   1.124   9.200 -0.1169 -0.4289 -0.3798
  152SAPE   H8X16920   0.488   1.133   9.192  0.0667  0.0185  2.3918
  152SAPE   H8Y16921   0.331   1.223   9.177 -0.8103 -0.2672  1.6573
  152SAPE   C3916922   0.305   1.031   9.108  0.2648  0.5525 -0.5337
  152SAPE   H9X16923   0.197   1.042   9.132  0.4268  0.5706  0.2076
  152SAPE   H9Y16924   0.337   0.927   9.128 -0.3613  0.6017  0.7735
  152SAPE  C31016925   0.335   1.079   8.964  0.7169  0.1372  0.4323
  152SAPE  H10X16926   0.443   1.064   8.945  0.4452  0.0269 -1.1805
  152SAPE  H10Y16927   0.312   1.187   8.954  1.6461  0.4208  1.2928
  152SAPE  C31116928   0.247   1.008   8.865  0.0256 -0.0013 -0.3361
  152SAPE  H11X16929   0.140   0.997   8.893 -0.6459  1.4213 -2.2021
  152SAPE  H11Y16930   0.281   0.902   8.863  0.1669  0.0629 -1.9046
  152SAPE  C31216931   0.252   1.066   8.721  0.0354  0.3236  0.1507
  152SAPE  H12X16932   0.353   1.076   8.676 -0.1331 -2.6876 -1.0565
  152SAPE  H12Y16933   0.215   1.170   8.713  0.6499  0.4590 -0.9907
  152SAPE  C31316934   0.167   0.991   8.622 -1.1684 -0.4733 -0.0499
  152SAPE  H13X16935   0.063   0.999   8.660 -1.4261  0.2920 -0.8788
  152SAPE  H13Y16936   0.187   0.882   8.618 -0.8192 -0.3898 -0.8005
  152SAPE  C31416937   0.167   1.047   8.481  0.0452  0.2564 -0.2382
  152SAPE  H14X16938   0.268   1.052   8.436  0.9389 -2.7048  1.2928
  152SAPE  H14Y16939   0.138   1.153   8.496 -1.0476 -0.1573  0.7008
  152SAPE  C31516940   0.071   0.975   8.383  0.1409 -0.2792  0.0297
  152SAPE  H15X16941  -0.020   0.963   8.445  2.1912 -1.3663  2.9303
  152SAPE  H15Y16942   0.113   0.874   8.362  0.8184  0.1229 -0.5707
  152SAPE  C31616943   0.031   1.052   8.262  0.1868 -0.5983 -0.2290
  152SAPE  H16X16944  -0.030   0.985   8.198 -1.4817  1.8899 -1.3523
  152SAPE  H16Y16945   0.123   1.080   8.204  0.4486 -1.6056 -0.2995
  152SAPE  C31716946  -0.054   1.173   8.292 -0.4196  0.0292  0.2033
  152SAPE  H17X16947  -0.072   1.176   8.402 -0.1846 -0.9620  0.2760
  152SAPE  H17Y16948  -0.155   1.160   8.246  0.4005  0.5430 -1.8020
  152SAPE  C31816949   0.003   1.307   8.248  0.2594  0.1470  0.1823
  152SAPE  H18X16950  -0.059   1.390   8.287  2.4604  2.4752 -1.1663
  152SAPE  H18Y16951   0.010   1.316   8.138  3.2635  0.0931  0.3191
  152SAPE  H18Z16952   0.107   1.320   8.287  0.3693  2.1638 -0.7339
  153SAPE     N16953   6.318   1.425  10.659  0.3715 -0.2778  0.8923
  153SAPE   HN116954   6.369   1.335  10.670  0.4964  0.0335  3.1251
  153SAPE   HN216955   6.337   1.482  10.744  1.7410 -0.1352  0.4983
  153SAPE   HN316956   6.218   1.395  10.663  0.2885 -0.0157  0.7190
  153SAPE   C1216957   6.340   1.513  10.537  0.1507 -0.1851  0.1118
  153SAPE  H12A16958   6.253   1.582  10.536  0.5144  0.2897  1.0952
  153SAPE  H12B16959   6.338   1.449  10.446 -3.7911 -0.6384  0.4411
  153SAPE   C1116960   6.464   1.613  10.536  0.0870 -1.0193  0.1399
  153SAPE  H11A16961   6.454   1.696  10.463  2.5938  1.0550  2.0255
  153SAPE  H11B16962   6.550   1.551  10.503 -0.6746 -1.5797 -0.8226
  153SAPE     P16963   6.631   1.744  10.672 -0.5704  0.0071  0.3248
  153SAPE   O1316964   6.600   1.867  10.749  0.3268 -0.0848  0.0021
  153SAPE   O1416965   6.741   1.657  10.717  0.2632 -0.2647  0.1626
  153SAPE   O1216966   6.501   1.657  10.666  0.0041  0.8737  0.0130
  153SAPE   O1116967   6.665   1.790  10.527 -0.8160 -0.3804  0.3175
  153SAPE    C116968   6.801   1.811  10.484  0.7474 -0.3664 -0.1284
  153SAPE    HA16969   6.834   1.913  10.512  0.3203  0.1994 -1.6729
  153SAPE    HB16970   6.873   1.737  10.525  0.2833  0.0845  1.5445
  153SAPE    C216971   6.822   1.784  10.328  0.1425 -0.3175 -0.1827
  153SAPE    HS16972   6.917   1.833  10.296 -0.5232  2.0503  1.2878
  153SAPE   O2116973   6.715   1.834  10.253  0.7318  0.2339 -0.0702
  153SAPE   C2116974   6.707   1.964  10.242  0.5620 -0.2895 -0.6377
  153SAPE   O2216975   6.797   2.042  10.267  1.0927 -0.0207 -0.0510
  153SAPE   C2216976   6.572   2.008  10.176 -0.0466 -0.5473  0.2390
  153SAPE   H2R16977   6.514   2.029  10.268  0.0358  1.0167 -0.0445
  153SAPE   H2S16978   6.595   2.106  10.128  0.9844 -1.3348 -0.8955
  153SAPE    C316979   6.832   1.634  10.300 -0.2880  0.5815  0.7569
  153SAPE    HX16980   6.753   1.579  10.355 -0.6987 -0.3007 -0.6905
  153SAPE    HY16981   6.932   1.598  10.333 -0.1650  0.5696  0.3755
  153SAPE   O3116982   6.839   1.596  10.159  0.0924  0.2817 -0.4363
  153SAPE   C3116983   6.730   1.540  10.107  0.6977 -0.1758 -0.4311
  153SAPE   O3216984   6.629   1.510  10.167  0.5745 -0.4833  0.4819
  153SAPE   C3216985   6.749   1.522   9.952  0.1914 -0.0419  0.2242
  153SAPE   H2X16986   6.835   1.453   9.937  0.2840  0.3300 -1.0295
  153SAPE   H2Y16987   6.778   1.621   9.910  0.5710  0.6823  2.1390
  153SAPE   C2316988   6.517   1.896  10.081  0.3190  0.3785 -0.1655
  153SAPE   H3R16989   6.413   1.924  10.051 -0.6036 -2.1696  0.5185
  153SAPE   H3S16990   6.505   1.803  10.139  0.2908  0.2806 -0.3285
  153SAPE   C2416991   6.612   1.869   9.961  0.4788  0.1539  0.0391
  153SAPE   H4R16992   6.582   1.769   9.922 -0.1400  0.4375 -0.2283
  153SAPE   H4S16993   6.712   1.873  10.008 -0.3274  0.8723  1.7260
  153SAPE   C2516994   6.585   1.982   9.866  0.0721  0.0309 -0.0313
  153SAPE   H5R16995   6.607   2.083   9.906 -1.3212 -0.6143  2.4471
  153SAPE   C2616996   6.535   1.983   9.746 -0.9441  0.6909 -0.7792
  153SAPE   H6R16997   6.521   2.075   9.688 -0.0847  0.3352 -1.5723
  153SAPE   C2716998   6.488   1.856   9.682  0.7910  0.3036 -0.0030
  153SAPE   H7R16999   6.466   1.778   9.758  0.8464 -0.4476 -0.7518
  153SAPE   H7S17000   6.572   1.823   9.617  0.5995 -2.1706  0.9538
  153SAPE   C2817001   6.372   1.869   9.593  0.6576 -0.1276 -0.2481
  153SAPE   H8R17002   6.305   1.946   9.636  0.8174 -0.7107  1.0666
  153SAPE   C2917003   6.346   1.802   9.483  0.8825 -0.4702 -0.1972
  153SAPE   H9R17004   6.258   1.823   9.421  1.1046 -1.7534 -0.9614
  153SAPE  C21017005   6.437   1.687   9.430 -0.6660 -0.5610 -0.0160
  153SAPE  H10R17006   6.496   1.643   9.513 -0.5920  0.3873  0.4447
  153SAPE  H10S17007   6.525   1.725   9.374  0.6873 -0.9609  1.7899
  153SAPE  C21117008   6.379   1.581   9.338  0.1791 -0.1794 -0.3992
  153SAPE  H11R17009   6.334   1.500   9.397  1.9440 -0.5191  0.5374
  153SAPE  C21217010   6.364   1.576   9.207  0.3588 -0.3847  0.5024
  153SAPE  H12R17011   6.300   1.503   9.154  0.4283  0.7851 -1.2436
  153SAPE  C21317012   6.410   1.677   9.105 -0.0393  0.3953 -0.3272
  153SAPE  H13R17013   6.483   1.737   9.163  1.0030 -0.1002 -1.1125
  153SAPE  H13S17014   6.329   1.745   9.072  0.2919  0.4004 -1.1385
  153SAPE  C21417015   6.481   1.610   8.998 -0.3596  0.5874 -0.6790
  153SAPE  H14R17016   6.543   1.527   9.035 -0.0309  0.1725 -2.1380
  153SAPE  C21517017   6.487   1.636   8.868 -0.7752 -0.1035 -0.5606
  153SAPE  H15R17018   6.563   1.584   8.808  0.7988  0.9202  0.5088
  153SAPE  C21617019   6.412   1.754   8.804 -0.1901  0.7028 -0.9459
  153SAPE  H16R17020   6.418   1.839   8.875  0.6658 -0.1933  0.0580
  153SAPE  H16S17021   6.304   1.734   8.789  0.5368 -2.3134 -2.5125
  153SAPE  C21717022   6.477   1.811   8.681  0.5332 -0.4927  0.2266
  153SAPE  H17R17023   6.475   1.748   8.589  2.4563  1.7941 -1.4657
  153SAPE  H17S17024   6.586   1.824   8.698  0.1191 -0.3437  2.9198
  153SAPE  C21817025   6.424   1.945   8.647 -0.1170 -0.0622  0.7482
  153SAPE  H18R17026   6.433   2.024   8.725  0.8414  0.0608  0.5240
  153SAPE  H18S17027   6.318   1.917   8.628 -0.5093  1.2790  0.8936
  153SAPE  C21917028   6.479   2.005   8.511  0.0544 -0.5222 -0.0589
  153SAPE  H19R17029   6.506   1.929   8.435  0.0683 -1.5679  0.9845
  153SAPE  H19S17030   6.569   2.058   8.549 -0.5558  0.1615  0.4563
  153SAPE  C22017031   6.394   2.118   8.448 -0.0540  0.3367 -0.3398
  153SAPE  H20R17032   6.407   2.213   8.503 -0.4808 -0.4153  1.1070
  153SAPE  H20S17033   6.285   2.099   8.460 -0.0247  0.0783 -0.4790
  153SAPE  H20T17034   6.412   2.134   8.339 -1.8450  0.9031 -0.5700
  153SAPE   C3317035   6.622   1.469   9.872  0.5089 -0.2566  0.1961
  153SAPE   H3X17036   6.532   1.528   9.900  0.2469 -0.8146  0.5318
  153SAPE   H3Y17037   6.580   1.370   9.901 -3.3365  1.2403  0.1446
  153SAPE   C3417038   6.625   1.483   9.722  0.4439  0.3440 -0.2365
  153SAPE   H4X17039   6.621   1.592   9.702 -1.1075  0.2419 -0.5490
  153SAPE   H4Y17040   6.536   1.427   9.685 -0.3828  1.5603 -0.1139
  153SAPE   C3517041   6.752   1.419   9.659  0.1732  0.5020 -0.6117
  153SAPE   H5X17042   6.750   1.311   9.685  0.2021  0.6944  0.2207
  153SAPE   H5Y17043   6.843   1.467   9.702  0.2820 -1.8035  1.8900
  153SAPE   C3617044   6.748   1.418   9.508 -0.1514 -0.2618 -0.4541
  153SAPE   H6X17045   6.723   1.517   9.465  1.3036 -0.0655 -0.8525
  153SAPE   H6Y17046   6.660   1.355   9.484  0.5570 -0.8575 -1.5200
  153SAPE   C3717047   6.874   1.370   9.437 -1.2607 -0.4381  0.2056
  153SAPE   H7X17048   6.892   1.264   9.465 -0.6497 -1.1713 -2.8458
  153SAPE   H7Y17049   6.965   1.425   9.467 -0.8535  0.6956 -3.0062
  153SAPE   C3817050   6.841   1.375   9.282 -0.2512  0.5221 -0.9793
  153SAPE   H8X17051   6.732   1.363   9.263 -0.6136  1.6283  0.3117
  153SAPE   H8Y17052   6.890   1.295   9.222 -1.6583 -0.0522 -1.3833
  153SAPE   C3917053   6.869   1.515   9.215  0.2079  0.2376  0.0239
  153SAPE   H9X17054   6.944   1.568   9.277 -2.5457  1.0822  2.7215
  153SAPE   H9Y17055   6.778   1.579   9.210 -1.0306 -1.5676 -1.4936
  153SAPE  C31017056   6.917   1.518   9.063  0.4731 -0.4016 -0.0213
  153SAPE  H10X17057   6.842   1.479   8.992  0.7507  0.5931 -0.8698
  153SAPE  H10Y17058   7.006   1.452   9.058  1.0916  0.3862  0.4529
  153SAPE  C31117059   6.926   1.661   9.014  0.8065 -0.2273 -0.4872
  153SAPE  H11X17060   6.984   1.726   9.083  0.2902 -1.4879  1.1688
  153SAPE  H11Y17061   6.824   1.701   8.996  0.1237 -2.6592 -2.3273
  153SAPE  C31217062   6.997   1.654   8.878 -0.1926  0.6157  0.0893
  153SAPE  H12X17063   7.086   1.588   8.878 -0.5517  0.1329 -0.6096
  153SAPE  H12Y17064   7.030   1.759   8.861 -0.3875  0.5689 -0.5677
  153SAPE  C31317065   6.890   1.613   8.775 -0.4686 -0.4538  0.0609
  153SAPE  H13X17066   6.787   1.647   8.798 -1.5574 -1.8217 -2.5837
  153SAPE  H13Y17067   6.870   1.504   8.786 -0.8950 -0.1933  2.1424
  153SAPE  C31417068   6.925   1.654   8.636  0.3193  0.9938 -0.4975
  153SAPE  H14X17069   7.010   1.588   8.607  1.7035  2.1820  0.7505
  153SAPE  H14Y17070   6.956   1.761   8.632 -3.0037  1.9507 -2.2812
  153SAPE  C31517071   6.812   1.620   8.530  0.1450  0.0952  0.4835
  153SAPE  H15X17072   6.728   1.688   8.557 -0.6982 -0.4663 -0.6913
  153SAPE  H15Y17073   6.776   1.515   8.538 -0.9948  0.4273 -0.2039
  153SAPE  C31617074   6.859   1.638   8.385 -0.5543 -0.5232  0.0614
  153SAPE  H16X17075   6.918   1.548   8.359  0.2816 -0.6355  2.2188
  153SAPE  H16Y17076   6.919   1.731   8.397 -0.6847 -0.6656  1.9496
  153SAPE  C31717077   6.744   1.656   8.287  0.0961 -0.2478  0.2345
  153SAPE  H17X17078   6.691   1.752   8.303 -0.9976 -1.0696  1.5968
  153SAPE  H17Y17079   6.669   1.576   8.303 -1.9732  2.1816  3.3046
  153SAPE  C31817080   6.782   1.645   8.135 -0.2872  0.4173  0.1007
  153SAPE  H18X17081   6.853   1.561   8.121  1.0139  1.6819 -1.0391
  153SAPE  H18Y17082   6.831   1.741   8.109  1.1629 -0.1773  0.5875
  153SAPE  H18Z17083   6.691   1.632   8.072 -0.2505  0.5696  0.0180
  154SAPE     N17084   1.085   1.275  10.726  0.0830  0.4426 -0.2382
  154SAPE   HN117085   1.057   1.293  10.627  1.2507 -0.4560 -0.7341
  154SAPE   HN217086   1.165   1.210  10.733 -0.7610 -0.4388  1.2772
  154SAPE   HN317087   1.001   1.226  10.762  0.7423 -0.6650 -0.2088
  154SAPE   C1217088   1.141   1.409  10.787  0.8420  0.3327 -1.0360
  154SAPE  H12A17089   1.252   1.419  10.785  0.5433  4.1922 -2.2843
  154SAPE  H12B17090   1.116   1.405  10.896  2.1287  0.6261 -0.7255
  154SAPE   C1117091   1.080   1.529  10.726  0.4503  0.4439  0.2654
  154SAPE  H11A17092   1.078   1.522  10.615  1.1688  0.1698  0.2703
  154SAPE  H11B17093   1.148   1.615  10.746  0.7544 -0.2064  2.0967
  154SAPE     P17094   0.903   1.711  10.790 -0.1107 -0.2705 -0.0535
  154SAPE   O1317095   0.755   1.722  10.815  0.7193  0.0323  0.0504
  154SAPE   O1417096   0.997   1.784  10.879 -0.1603 -0.4457 -0.3686
  154SAPE   O1217097   0.945   1.562  10.766 -0.1505  0.4029  0.3032
  154SAPE   O1117098   0.940   1.769  10.648 -0.0686  0.1918  0.7037
  154SAPE    C117099   0.909   1.717  10.522  0.1540  0.0712  0.6249
  154SAPE    HA17100   0.989   1.721  10.445  1.4355 -1.3899  1.8305
  154SAPE    HB17101   0.874   1.611  10.522  2.0748 -0.5924  0.4023
  154SAPE    C217102   0.785   1.798  10.461  0.2777 -0.1249  0.6771
  154SAPE    HS17103   0.691   1.750  10.496  0.3200  0.3125  1.4139
  154SAPE   O2117104   0.804   1.813  10.326  0.2430  0.2918  0.1711
  154SAPE   C2117105   0.756   1.717  10.248 -0.9915  0.0796  0.5096
  154SAPE   O2217106   0.690   1.626  10.289  0.3271 -0.1086 -0.9381
  154SAPE   C2217107   0.824   1.720  10.110  0.1592 -0.1806  0.4387
  154SAPE   H2R17108   0.898   1.803  10.113  0.4091 -0.3775 -0.1254
  154SAPE   H2S17109   0.879   1.626  10.090  1.3912  0.7015 -0.3886
  154SAPE    C317110   0.767   1.942  10.527  0.5983  0.2904 -0.1929
  154SAPE    HX17111   0.861   1.992  10.557 -0.9147  1.6248  2.5607
  154SAPE    HY17112   0.710   1.921  10.621 -1.6257  1.0871 -1.3207
  154SAPE   O3117113   0.688   2.030  10.446  0.4426 -0.2868  0.5995
  154SAPE   C3117114   0.550   2.019  10.463 -0.9278  0.1022  0.3286
  154SAPE   O3217115   0.498   1.934  10.535  0.2271 -0.0301 -0.2049
  154SAPE   C3217116   0.473   2.110  10.365  0.4124 -0.0618  0.0943
  154SAPE   H2X17117   0.536   2.180  10.306  2.1531 -1.4720  0.2586
  154SAPE   H2Y17118   0.412   2.169  10.437  1.8703  0.1313  1.1991
  154SAPE   C2317119   0.743   1.756   9.984  0.3840  0.6656 -0.1517
  154SAPE   H3R17120   0.683   1.849   9.988  0.5259  0.8694 -1.9682
  154SAPE   H3S17121   0.680   1.670   9.952  1.2549  1.0613 -3.1113
  154SAPE   C2417122   0.845   1.771   9.869  0.6181 -0.7747  0.5353
  154SAPE   H4R17123   0.912   1.858   9.887 -0.6690  0.4324 -0.3992
  154SAPE   H4S17124   0.775   1.794   9.785 -2.6066 -1.7969  2.8317
  154SAPE   C2517125   0.934   1.653   9.829 -1.0106  0.7562  0.4421
  154SAPE   H5R17126   0.968   1.595   9.916 -3.8379  1.0521  1.8245
  154SAPE   C2617127   0.960   1.612   9.706  0.1362 -0.3935  0.2837
  154SAPE   H6R17128   1.022   1.521   9.697 -1.6023 -1.5934  0.2096
  154SAPE   C2717129   0.915   1.679   9.576  0.8454 -0.2746 -0.2703
  154SAPE   H7R17130   0.804   1.670   9.579  0.8471 -0.4300 -0.6475
  154SAPE   H7S17131   0.954   1.621   9.490  2.9622  0.3425  0.2523
  154SAPE   C2817132   0.957   1.823   9.561 -0.3699 -0.0209  0.3167
  154SAPE   H8R17133   0.989   1.883   9.648  1.5958 -0.9363  0.2503
  154SAPE   C2917134   0.964   1.890   9.444 -0.2573  0.0593  0.6443
  154SAPE   H9R17135   0.996   1.994   9.454  1.0937 -0.2554 -0.2368
  154SAPE  C21017136   0.944   1.838   9.303 -0.7230  0.4356 -0.8756
  154SAPE  H10R17137   0.894   1.926   9.257 -0.0659  1.1985 -0.1467
  154SAPE  H10S17138   0.879   1.748   9.299 -0.2559  0.1417 -1.9914
  154SAPE  C21117139   1.068   1.804   9.233 -0.3198 -0.0629 -0.2880
  154SAPE  H11R17140   1.123   1.717   9.272  0.3342 -0.2959 -1.6993
  154SAPE  C21217141   1.118   1.875   9.126  0.0267  0.4178 -0.2267
  154SAPE  H12R17142   1.188   1.814   9.067 -1.0461 -0.5846 -0.5020
  154SAPE  C21317143   1.047   1.987   9.054 -0.0040 -0.0275 -0.0362
  154SAPE  H13R17144   1.120   2.058   9.011  0.2915  0.9013  1.9581
  154SAPE  H13S17145   0.990   2.046   9.129  0.1260  0.2081 -0.1248
  154SAPE  C21417146   0.939   1.930   8.959 -0.7752  0.1824 -0.8663
  154SAPE  H14R17147   0.851   1.884   9.006 -0.8230  1.3912  0.2641
  154SAPE  C21517148   0.939   1.950   8.824  0.0944  0.8503 -0.0774
  154SAPE  H15R17149   0.855   1.920   8.760 -0.0087  2.5775 -0.7822
  154SAPE  C21617150   1.052   2.017   8.745 -0.7525  0.4323  0.1280
  154SAPE  H16R17151   1.136   1.948   8.720 -1.6062 -0.3492 -0.6229
  154SAPE  H16S17152   1.104   2.098   8.800 -0.8371  1.0990 -0.7750
  154SAPE  C21717153   0.991   2.063   8.609  0.1004 -0.1896 -0.3222
  154SAPE  H17R17154   0.950   1.970   8.565  1.0552 -1.3885  1.2708
  154SAPE  H17S17155   1.079   2.092   8.547 -2.4010  1.3632 -3.2452
  154SAPE  C21817156   0.889   2.175   8.622 -0.0262  0.0504  0.3468
  154SAPE  H18R17157   0.938   2.267   8.661 -1.8917  0.6152  1.4553
  154SAPE  H18S17158   0.813   2.141   8.696 -0.2828  0.1791  0.1422
  154SAPE  C21917159   0.808   2.199   8.498  1.0668  0.6037 -0.5540
  154SAPE  H19R17160   0.722   2.266   8.521  0.4231 -0.2478 -0.4365
  154SAPE  H19S17161   0.771   2.103   8.456  1.8169  0.0528  0.0469
  154SAPE  C22017162   0.881   2.253   8.380  0.5851 -0.2570  0.5802
  154SAPE  H20R17163   0.951   2.194   8.317  1.9098  3.5786 -1.6976
  154SAPE  H20S17164   0.930   2.348   8.411  0.8182 -0.3324  0.4465
  154SAPE  H20T17165   0.807   2.275   8.300 -0.5240  1.1094  1.9478
  154SAPE   C3317166   0.370   2.033  10.288  0.0675  0.2628  0.0080
  154SAPE   H3X17167   0.293   2.107  10.256 -0.2339 -0.7735 -1.7396
  154SAPE   H3Y17168   0.318   1.956  10.349  2.9307 -2.7882 -1.2431
  154SAPE   C3417169   0.424   1.958  10.157 -0.0381  0.1240  0.2994
  154SAPE   H4X17170   0.474   1.864  10.188  0.3677  0.2853  0.1383
  154SAPE   H4Y17171   0.490   2.012  10.085 -1.9986  0.6453 -1.1517
  154SAPE   C3517172   0.301   1.917  10.078  0.2305  0.3368 -0.2748
  154SAPE   H5X17173   0.206   1.970  10.100 -0.1001 -1.0408  1.8009
  154SAPE   H5Y17174   0.280   1.811  10.107 -1.2479  0.9719  1.0455
  154SAPE   C3617175   0.333   1.915   9.930  0.8814  0.0250  0.1066
  154SAPE   H6X17176   0.398   1.825   9.921  3.8084  1.8082  2.2194
  154SAPE   H6Y17177   0.379   2.008   9.890 -0.9859  0.6196 -0.6772
  154SAPE   C3717178   0.195   1.899   9.855  0.0932  0.4386  1.0890
  154SAPE   H7X17179   0.131   1.986   9.881  0.2167  0.9682 -0.3060
  154SAPE   H7Y17180   0.142   1.806   9.884  2.3250 -1.1077  0.3132
  154SAPE   C3817181   0.222   1.905   9.705 -0.6340 -0.3840 -0.4578
  154SAPE   H8X17182   0.295   1.825   9.679 -0.5311 -0.4089 -0.0992
  154SAPE   H8Y17183   0.278   1.998   9.682  0.2604 -0.3105  1.8759
  154SAPE   C3917184   0.097   1.898   9.619  0.6342 -0.6566  0.1483
  154SAPE   H9X17185   0.039   1.993   9.631  2.4039  0.6465 -1.2361
  154SAPE   H9Y17186   0.036   1.815   9.659 -0.3734  0.3364  0.6900
  154SAPE  C31017187   0.116   1.894   9.465 -0.1278  0.1750  0.1078
  154SAPE  H10X17188   0.117   1.786   9.439 -0.7440  0.3879 -0.8420
  154SAPE  H10Y17189   0.198   1.956   9.424 -0.5644 -0.4246 -1.7110
  154SAPE  C31117190  -0.015   1.942   9.389 -0.8577  0.8410 -0.2359
  154SAPE  H11X17191  -0.029   2.049   9.414  2.2582  1.1496  0.4274
  154SAPE  H11Y17192  -0.098   1.878   9.426  0.4448  0.2648  1.7414
  154SAPE  C31217193  -0.015   1.912   9.239 -0.2522  0.1489 -0.6056
  154SAPE  H12X17194  -0.057   1.811   9.219 -0.2811  0.2109 -0.8479
  154SAPE  H12Y17195   0.081   1.910   9.184  0.1524  1.5032  0.0282
  154SAPE  C31317196  -0.120   1.994   9.161  0.0750  0.2541 -0.0574
  154SAPE  H13X17197  -0.103   2.101   9.184  0.7856  0.5539 -1.8839
  154SAPE  H13Y17198  -0.224   1.969   9.191 -1.3138  1.4181 -3.5542
  154SAPE  C31417199  -0.111   1.983   9.008 -0.0721 -0.7831  0.3132
  154SAPE  H14X17200  -0.183   2.048   8.953  0.7660 -1.0487 -1.1280
  154SAPE  H14Y17201  -0.142   1.878   8.990  0.1379 -0.5425 -1.5786
  154SAPE  C31517202   0.019   2.025   8.940 -0.1411  0.3333 -0.6251
  154SAPE  H15X17203   0.099   1.965   8.988 -0.5962 -0.2339 -0.5708
  154SAPE  H15Y17204   0.040   2.129   8.975 -3.0205  0.3250  1.2489
  154SAPE  C31617205   0.041   2.014   8.798 -0.2192  0.3625  0.0598
  154SAPE  H16X17206  -0.037   2.070   8.743  1.1701  1.6204 -0.6766
  154SAPE  H16Y17207   0.037   1.905   8.774 -1.8483 -0.0662  2.1489
  154SAPE  C31717208   0.177   2.071   8.762 -0.3673  0.0604 -0.3963
  154SAPE  H17X17209   0.255   2.004   8.804  0.3708  2.4888  2.2797
  154SAPE  H17Y17210   0.190   2.170   8.812 -0.6520 -0.4307  0.6720
  154SAPE  C31817211   0.189   2.089   8.613  0.3257  0.2894  0.4621
  154SAPE  H18X17212   0.175   1.992   8.560  0.7978  0.1233  0.6411
  154SAPE  H18Y17213   0.277   2.144   8.575  0.3380 -1.1739 -1.7950
  154SAPE  H18Z17214   0.106   2.159   8.590  2.5038  1.7809 -3.3192
  155SAPE     N17215   2.409   2.230  10.944  0.3535  0.4684  0.0930
  155SAPE   HN117216   2.362   2.265  11.030 -1.8512 -0.5087 -0.6762
  155SAPE   HN217217   2.343   2.168  10.893  0.9862 -0.3237  0.2239
  155SAPE   HN317218   2.479   2.159  10.973 -0.6491 -1.2947 -1.6260
  155SAPE   C1217219   2.467   2.340  10.861 -0.0448  0.3496  0.2236
  155SAPE  H12A17220   2.501   2.297  10.765 -1.1842  0.8222 -0.4028
  155SAPE  H12B17221   2.549   2.391  10.916  0.0644  0.7295 -0.2898
  155SAPE   C1117222   2.362   2.448  10.828 -0.0431  0.8222 -0.2585
  155SAPE  H11A17223   2.417   2.520  10.763  3.2280 -0.2211  1.2196
  155SAPE  H11B17224   2.332   2.496  10.924  0.6341  2.5881 -0.9075
  155SAPE     P17225   2.147   2.474  10.697 -0.4617  0.1127 -0.1924
  155SAPE   O1317226   2.028   2.397  10.646  0.1039 -0.2153 -0.7958
  155SAPE   O1417227   2.110   2.577  10.792 -0.2823 -0.1059 -0.3703
  155SAPE   O1217228   2.260   2.379  10.761  0.4556 -0.2439  0.4769
  155SAPE   O1117229   2.230   2.535  10.581  0.6597 -0.2658  0.3166
  155SAPE    C117230   2.306   2.457  10.485  0.1462  0.0426  0.2701
  155SAPE    HA17231   2.410   2.495  10.476  0.7804 -2.0423 -1.7999
  155SAPE    HB17232   2.306   2.349  10.513  0.3700  0.6744  2.7999
  155SAPE    C217233   2.252   2.481  10.344  0.2177  0.6826 -0.2914
  155SAPE    HS17234   2.316   2.415  10.282 -0.6071 -1.6773  1.3270
  155SAPE   O2117235   2.259   2.615  10.301  0.2691 -0.4840 -0.3339
  155SAPE   C2117236   2.378   2.655  10.258  0.0683  0.4757 -0.5045
  155SAPE   O2217237   2.479   2.590  10.272  0.4132 -0.2815  0.6681
  155SAPE   C2217238   2.377   2.792  10.199 -0.1918 -0.2851  0.2172
  155SAPE   H2R17239   2.438   2.787  10.106  2.0396 -1.7001  1.7126
  155SAPE   H2S17240   2.269   2.807  10.176 -0.2314  0.0056  0.5886
  155SAPE    C317241   2.108   2.415  10.325  0.2716 -0.3005  0.5806
  155SAPE    HX17242   2.048   2.448  10.412  2.0550 -0.8787  2.0641
  155SAPE    HY17243   2.110   2.304  10.328 -1.1974 -0.3937 -0.9611
  155SAPE   O3117244   2.046   2.450  10.198  0.2387 -0.3365 -0.1020
  155SAPE   C3117245   1.975   2.566  10.206 -0.5099  0.5056 -0.1449
  155SAPE   O3217246   1.947   2.625  10.308  0.2155  0.0179 -0.1863
  155SAPE   C3217247   1.952   2.625  10.067 -0.8031  0.5898 -0.2317
  155SAPE   H2X17248   1.881   2.551  10.023  0.5787 -0.4330 -0.7807
  155SAPE   H2Y17249   2.047   2.616  10.011  0.1472  1.7622  1.1666
  155SAPE   C2317250   2.410   2.909  10.294 -0.0271 -0.0447 -0.4887
  155SAPE   H3R17251   2.509   2.890  10.339 -0.2757  0.8261  0.4540
  155SAPE   H3S17252   2.338   2.918  10.379 -0.6850 -1.1893 -0.9196
  155SAPE   C2417253   2.421   3.041  10.207 -0.1155 -0.1054  0.1163
  155SAPE   H4R17254   2.506   3.016  10.140 -0.8334  0.8830 -1.1958
  155SAPE   H4S17255   2.440   3.131  10.270 -1.4416  0.3640 -0.1332
  155SAPE   C2517256   2.295   3.065  10.141  0.7093  0.4304  0.1320
  155SAPE   H5R17257   2.210   3.026  10.199  2.3151 -1.0263  1.5620
  155SAPE   C2617258   2.265   3.104  10.012 -0.3780  0.2514 -0.8179
  155SAPE   H6R17259   2.159   3.111   9.983 -0.9991 -0.4268  1.2272
  155SAPE   C2717260   2.364   3.148   9.906 -0.0583  0.5740 -0.1462
  155SAPE   H7R17261   2.380   3.066   9.832 -1.8400  0.3361 -0.3015
  155SAPE   H7S17262   2.467   3.159   9.944 -0.2355  0.8817  0.2465
  155SAPE   C2817263   2.320   3.279   9.855  0.1557 -0.3931 -0.1128
  155SAPE   H8R17264   2.341   3.354   9.933 -0.2223 -1.4868  1.0407
  155SAPE   C2917265   2.279   3.315   9.726  0.3798 -0.1926 -0.8526
  155SAPE   H9R17266   2.244   3.417   9.707  0.8788  0.2540  0.5271
  155SAPE  C21017267   2.282   3.215   9.611 -0.7506  0.1411 -0.6196
  155SAPE  H10R17268   2.219   3.126   9.635 -1.1015  0.0816 -1.7569
  155SAPE  H10S17269   2.384   3.175   9.594 -0.0719  0.8633  1.5386
  155SAPE  C21117270   2.251   3.258   9.470  0.6240 -0.2305 -0.8921
  155SAPE  H11R17271   2.153   3.230   9.429  0.5296 -0.1086 -0.7519
  155SAPE  C21217272   2.326   3.344   9.396  0.0079  0.5096  0.3167
  155SAPE  H12R17273   2.289   3.375   9.297 -1.2473 -1.0764  0.2781
  155SAPE  C21317274   2.457   3.402   9.446  0.6705  0.2051  0.1694
  155SAPE  H13R17275   2.504   3.329   9.515 -1.1158  0.9632  2.2542
  155SAPE  H13S17276   2.433   3.493   9.506  0.8140  1.2098 -1.2600
  155SAPE  C21417277   2.543   3.429   9.332  0.0733  0.4036 -0.1439
  155SAPE  H14R17278   2.614   3.349   9.308  1.1114  1.4821 -0.7540
  155SAPE  C21517279   2.532   3.527   9.237  0.4160 -0.5226  0.1367
  155SAPE  H15R17280   2.605   3.534   9.155  1.4749 -1.9359  0.9244
  155SAPE  C21617281   2.425   3.636   9.230 -0.0226  0.4640  0.5673
  155SAPE  H16R17282   2.480   3.731   9.248 -0.6178  0.9978 -0.3833
  155SAPE  H16S17283   2.344   3.627   9.305 -0.0759 -1.3223  0.3135
  155SAPE  C21717284   2.353   3.649   9.095 -0.2289 -0.2999 -0.4901
  155SAPE  H17R17285   2.276   3.729   9.105 -0.9471 -0.7131 -2.4815
  155SAPE  H17S17286   2.294   3.555   9.086  0.5481 -0.8003 -0.4121
  155SAPE  C21817287   2.440   3.673   8.978 -0.3941  0.1514  0.0038
  155SAPE  H18R17288   2.373   3.713   8.899 -0.2434 -1.0872 -0.7694
  155SAPE  H18S17289   2.478   3.574   8.944 -0.8347  1.7116 -5.5691
  155SAPE  C21917290   2.542   3.782   8.985  0.1195  0.0228  0.9989
  155SAPE  H19R17291   2.628   3.749   9.048  1.2573  1.0703  0.0395
  155SAPE  H19S17292   2.496   3.871   9.034  1.5403  1.7106 -0.6151
  155SAPE  C22017293   2.594   3.822   8.850 -0.7438 -0.3089 -0.3779
  155SAPE  H20R17294   2.668   3.905   8.859 -0.7095 -0.0741 -2.5629
  155SAPE  H20S17295   2.507   3.852   8.788 -1.0978 -1.3485 -0.3854
  155SAPE  H20T17296   2.647   3.745   8.791  1.6062  0.5835  0.5054
  155SAPE   C3317297   1.902   2.769  10.076  0.0111  0.4494 -0.1405
  155SAPE   H3X17298   1.991   2.830  10.103 -0.6767  0.7612  1.4407
  155SAPE   H3Y17299   1.818   2.763  10.148 -1.1183 -2.8560 -1.6261
  155SAPE   C3417300   1.845   2.821   9.941 -0.4021 -0.1213 -0.2087
  155SAPE   H4X17301   1.830   2.928   9.969  2.5412  0.8886 -2.2968
  155SAPE   H4Y17302   1.742   2.784   9.923 -1.0340  1.7175 -0.5527
  155SAPE   C3517303   1.929   2.823   9.811  0.4510  0.1857 -0.4620
  155SAPE   H5X17304   1.944   2.716   9.785 -0.1790 -0.2475  0.9134
  155SAPE   H5Y17305   2.022   2.868   9.852 -0.1332  1.3804 -0.4241
  155SAPE   C3617306   1.861   2.909   9.702 -0.0055  0.3692 -0.3431
  155SAPE   H6X17307   1.852   3.008   9.751  2.0209 -0.2891  1.4377
  155SAPE   H6Y17308   1.756   2.878   9.683  0.0580  0.1002 -0.2576
  155SAPE   C3717309   1.951   2.928   9.576 -0.6894  0.4332  0.1498
  155SAPE   H7X17310   1.998   2.836   9.537  0.3647  0.9114  0.2804
  155SAPE   H7Y17311   2.037   2.992   9.605  1.3357 -1.4187 -1.6729
  155SAPE   C3817312   1.886   2.997   9.462  0.0561  0.6053 -1.0029
  155SAPE   H8X17313   1.863   3.093   9.514 -0.2762  0.1437 -0.2933
  155SAPE   H8Y17314   1.793   2.943   9.433 -0.6346 -0.0207  2.2178
  155SAPE   C3917315   1.967   3.025   9.336 -0.1908  0.5267  0.1780
  155SAPE   H9X17316   1.960   2.942   9.262  2.2723  0.2486  0.2000
  155SAPE   H9Y17317   2.076   3.035   9.357 -0.0154 -1.4130  0.2772
  155SAPE  C31017318   1.928   3.156   9.253 -0.3725 -0.9506  0.2641
  155SAPE  H10X17319   1.929   3.248   9.315  0.2652 -1.2176  0.6555
  155SAPE  H10Y17320   1.827   3.139   9.210 -0.0462  2.1207 -1.8883
  155SAPE  C31117321   2.017   3.183   9.134 -0.4673  0.1545  0.8022
  155SAPE  H11X17322   2.048   3.087   9.087 -0.4806 -0.5071  2.1053
  155SAPE  H11Y17323   2.109   3.243   9.152  0.2730 -0.3499 -1.1420
  155SAPE  C31217324   1.947   3.265   9.028  0.7483  0.4085  0.6391
  155SAPE  H12X17325   1.890   3.347   9.076  1.2428 -0.0189  1.9754
  155SAPE  H12Y17326   1.889   3.206   8.954  0.2960  0.1047  1.2331
  155SAPE  C31317327   2.053   3.337   8.941  0.2328  0.2791  0.2887
  155SAPE  H13X17328   2.123   3.254   8.918  0.7990  1.0133 -0.6912
  155SAPE  H13Y17329   2.102   3.414   9.003 -0.6671  1.9453 -1.0224
  155SAPE  C31417330   1.994   3.412   8.818  0.3893  0.2279 -0.2373
  155SAPE  H14X17331   1.900   3.466   8.841 -0.5933 -1.6815  0.2925
  155SAPE  H14Y17332   1.964   3.337   8.742 -0.2022 -0.4821  0.6854
  155SAPE  C31517333   2.093   3.503   8.746  0.1115  0.3535  0.4900
  155SAPE  H15X17334   2.160   3.445   8.679  2.3560  0.4309  2.6145
  155SAPE  H15Y17335   2.160   3.551   8.821  0.5271 -0.8939  0.9305
  155SAPE  C31617336   2.027   3.619   8.661 -0.3249 -0.1554  0.4336
  155SAPE  H16X17337   1.968   3.685   8.728  1.4369  2.0655 -0.1315
  155SAPE  H16Y17338   1.958   3.559   8.599  1.0955 -2.3279  0.8943
  155SAPE  C31717339   2.117   3.710   8.571 -0.2645 -0.0226  0.3742
  155SAPE  H17X17340   2.053   3.779   8.512 -0.1545 -0.3932 -0.1906
  155SAPE  H17Y17341   2.163   3.648   8.491 -1.4654 -1.4987  0.7906
  155SAPE  C31817342   2.233   3.795   8.634  0.9175  0.7815  1.2302
  155SAPE  H18X17343   2.310   3.736   8.689  1.6625 -0.4855 -1.0881
  155SAPE  H18Y17344   2.193   3.857   8.717  1.7101  1.3232  1.2218
  155SAPE  H18Z17345   2.279   3.863   8.559 -0.5887  1.3370  0.7941
  156SAPE     N17346   6.536   0.408  10.628 -0.4527 -0.6759  1.0036
  156SAPE   HN117347   6.545   0.376  10.726  0.1011 -0.7763  0.9286
  156SAPE   HN217348   6.636   0.431  10.607  0.4404 -5.0731 -0.2383
  156SAPE   HN317349   6.476   0.491  10.611 -0.2873 -0.6049  0.7578
  156SAPE   C1217350   6.491   0.295  10.541 -0.5915 -0.0437  0.5698
  156SAPE  H12A17351   6.455   0.331  10.442  0.6194  0.1354  0.1904
  156SAPE  H12B17352   6.407   0.236  10.584 -1.0627  1.4096  1.6839
  156SAPE   C1117353   6.604   0.200  10.505  0.3861  0.1352 -0.0738
  156SAPE  H11A17354   6.575   0.129  10.425  2.1005  0.1171 -0.7015
  156SAPE  H11B17355   6.633   0.143  10.595 -2.6344  0.3317  1.0740
  156SAPE     P17356   6.852   0.199  10.428 -0.0763 -0.0918  0.4346
  156SAPE   O1317357   6.956   0.284  10.495  0.1665 -0.0749 -0.7102
  156SAPE   O1417358   6.840   0.056  10.466 -0.4275 -0.3673  0.0877
  156SAPE   O1217359   6.716   0.272  10.449 -0.4278  0.7977 -0.0302
  156SAPE   O1117360   6.877   0.204  10.269 -0.0016 -0.0783  0.1668
  156SAPE    C117361   6.914   0.331  10.207  0.9862 -0.0550  0.5556
  156SAPE    HA17362   6.981   0.394  10.268  0.1671  1.5471 -0.1594
  156SAPE    HB17363   6.965   0.304  10.112 -1.0740  0.7219 -0.8092
  156SAPE    C217364   6.793   0.418  10.168  0.1271 -0.1620 -0.3397
  156SAPE    HS17365   6.733   0.437  10.260 -1.1436 -0.5034 -1.1001
  156SAPE   O2117366   6.708   0.349  10.072 -0.7677  0.2303  0.0963
  156SAPE   C2117367   6.584   0.391  10.071 -0.4395 -0.6032 -0.0942
  156SAPE   O2217368   6.534   0.494  10.117  0.5249  0.3391  0.4691
  156SAPE   C2217369   6.513   0.286   9.980 -0.0023 -0.1379  0.2697
  156SAPE   H2R17370   6.410   0.322   9.957  0.4120 -0.6294 -2.4625
  156SAPE   H2S17371   6.570   0.277   9.885 -1.9201 -0.2589 -0.8949
  156SAPE    C317372   6.838   0.555  10.122 -0.1573  0.0364 -0.0166
  156SAPE    HX17373   6.894   0.605  10.204  3.2630 -2.4273 -0.7478
  156SAPE    HY17374   6.746   0.611  10.098 -0.1026  0.1019 -0.0747
  156SAPE   O3117375   6.932   0.530  10.012 -0.3509  0.2870 -0.2166
  156SAPE   C3117376   6.896   0.552   9.889  0.5974 -0.3220 -0.5178
  156SAPE   O3217377   6.793   0.607   9.849  0.0808 -0.1427 -0.5251
  156SAPE   C3217378   6.997   0.485   9.801 -0.2931 -0.1269 -0.3986
  156SAPE   H2X17379   6.996   0.375   9.819  0.6039  0.0492  0.8063
  156SAPE   H2Y17380   7.093   0.538   9.819 -0.3993  0.0930 -0.4717
  156SAPE   C2317381   6.507   0.141  10.041 -0.1433  0.8485 -0.2260
  156SAPE   H3R17382   6.432   0.149  10.123 -0.2260  2.1682 -0.4165
  156SAPE   H3S17383   6.607   0.112  10.080 -0.6415 -0.6852 -0.0491
  156SAPE   C2417384   6.464   0.033   9.941  1.0932  0.0530  0.0585
  156SAPE   H4R17385   6.497  -0.065   9.981 -0.3624 -0.4186  0.1208
  156SAPE   H4S17386   6.530   0.054   9.854  0.7400  2.5319  0.3323
  156SAPE   C2517387   6.322   0.035   9.890 -0.7571 -0.2102 -0.1408
  156SAPE   H5R17388   6.252   0.087   9.957  0.5470  1.8163 -0.3277
  156SAPE   C2617389   6.285  -0.023   9.773 -0.0388 -0.5284  0.6553
  156SAPE   H6R17390   6.179  -0.034   9.746 -0.1926  1.9136  0.2035
  156SAPE   C2717391   6.381  -0.089   9.681 -0.2833  0.0576 -0.6598
  156SAPE   H7R17392   6.457  -0.134   9.748 -2.8649 -1.0678  1.6268
  156SAPE   H7S17393   6.419  -0.010   9.612  0.1584  1.9408  1.7002
  156SAPE   C2817394   6.310  -0.195   9.604 -0.3041 -0.2838 -0.0230
  156SAPE   H8R17395   6.284  -0.288   9.657 -1.2441 -0.1593 -0.2554
  156SAPE   C2917396   6.289  -0.196   9.469 -0.1105  0.4746  0.0970
  156SAPE   H9R17397   6.244  -0.287   9.427 -0.7573  0.7061  0.2812
  156SAPE  C21017398   6.334  -0.091   9.373  0.1212 -0.0435  0.3228
  156SAPE  H10R17399   6.337   0.007   9.425  1.1134  0.5084 -0.7482
  156SAPE  H10S17400   6.252  -0.078   9.298  0.7125  0.5761 -0.2176
  156SAPE  C21117401   6.469  -0.108   9.301  0.4839  0.3651  0.0642
  156SAPE  H11R17402   6.556  -0.100   9.368  0.3826  3.3575 -0.1087
  156SAPE  C21217403   6.485  -0.134   9.171  0.0978 -0.1588  1.3329
  156SAPE  H12R17404   6.588  -0.149   9.135 -0.6846 -1.3533 -0.4626
  156SAPE  C21317405   6.380  -0.159   9.063  0.1870 -0.6164 -0.2209
  156SAPE  H13R17406   6.362  -0.063   9.012 -4.2338 -1.5309 -0.5194
  156SAPE  H13S17407   6.284  -0.183   9.113  0.9214 -2.0836  0.5390
  156SAPE  C21417408   6.420  -0.264   8.957  0.5957 -0.3261  0.4411
  156SAPE  H14R17409   6.526  -0.253   8.929  1.3218 -0.0969  3.1067
  156SAPE  C21517410   6.339  -0.338   8.879 -0.3362  0.3033 -0.0558
  156SAPE  H15R17411   6.385  -0.415   8.814 -0.0500 -2.0063  2.7904
  156SAPE  C21617412   6.188  -0.342   8.884  0.4000  0.3284  0.5855
  156SAPE  H16R17413   6.136  -0.316   8.789 -0.6049 -0.4538  0.9110
  156SAPE  H16S17414   6.149  -0.266   8.954 -1.6384 -1.9303  1.9919
  156SAPE  C21717415   6.131  -0.481   8.925  0.0925  0.1029  0.2473
  156SAPE  H17R17416   6.199  -0.558   8.884 -1.0992 -1.4512  1.1597
  156SAPE  H17S17417   6.033  -0.498   8.875  1.0328 -3.1677 -0.5474
  156SAPE  C21817418   6.101  -0.490   9.075  0.0300 -0.1686  0.0200
  156SAPE  H18R17419   6.190  -0.473   9.140  0.0126  2.1177 -0.5230
  156SAPE  H18S17420   6.048  -0.587   9.091 -1.7457  0.8459  0.3615
  156SAPE  C21917421   5.988  -0.396   9.135 -0.4461 -0.2136 -0.4460
  156SAPE  H19R17422   5.900  -0.388   9.068 -1.1907 -0.8620  0.4260
  156SAPE  H19S17423   6.042  -0.299   9.132  0.0678 -0.3920  1.7093
  156SAPE  C22017424   5.951  -0.436   9.278 -0.0125  0.1718  0.4404
  156SAPE  H20R17425   6.032  -0.407   9.348  0.7419  0.6158 -0.6186
  156SAPE  H20S17426   5.935  -0.546   9.274  0.9818 -0.0313  1.6222
  156SAPE  H20T17427   5.867  -0.372   9.314  0.1317  0.4121  0.3475
  156SAPE   C3317428   6.979   0.530   9.650  0.7509 -0.7104 -0.3199
  156SAPE   H3X17429   6.985   0.641   9.649 -1.3266 -0.5806 -1.6351
  156SAPE   H3Y17430   6.876   0.507   9.615 -0.0115  3.3136 -1.0417
  156SAPE   C3417431   7.095   0.489   9.563  0.0005 -0.3963 -0.2941
  156SAPE   H4X17432   7.100   0.380   9.544  1.8173 -0.6559  1.5561
  156SAPE   H4Y17433   7.186   0.510   9.623 -0.3661 -0.0820  0.1510
  156SAPE   C3517434   7.102   0.569   9.436  0.4003  0.2929 -0.9358
  156SAPE   H5X17435   7.132   0.670   9.473 -0.4484 -0.0002  0.5809
  156SAPE   H5Y17436   7.003   0.574   9.386  0.0792 -0.3713 -0.3651
  156SAPE   C3617437   7.200   0.527   9.333  0.1496  0.3944 -0.2436
  156SAPE   H6X17438   7.197   0.419   9.306 -0.6950 -0.2533  2.3019
  156SAPE   H6Y17439   7.300   0.547   9.379 -0.3132 -1.4526  1.6970
  156SAPE   C3717440   7.177   0.610   9.212 -0.9175 -0.5830  0.1545
  156SAPE   H7X17441   7.116   0.699   9.239 -0.7434 -0.4275  0.0373
  156SAPE   H7Y17442   7.110   0.555   9.142 -1.5772 -0.0008  0.3324
  156SAPE   C3817443   7.313   0.653   9.158  0.0941  0.2063 -0.8566
  156SAPE   H8X17444   7.383   0.567   9.160 -0.3321 -0.1287  1.7948
  156SAPE   H8Y17445   7.352   0.719   9.239 -0.4559 -0.3292 -0.1509
  156SAPE   C3917446   7.314   0.723   9.023 -0.7835  1.3138 -0.2828
  156SAPE   H9X17447   7.418   0.760   9.013 -0.9913  2.0228  0.1473
  156SAPE   H9Y17448   7.244   0.809   9.015 -2.3087  0.1823  0.6232
  156SAPE  C31017449   7.289   0.628   8.908 -0.0247 -0.0055  0.3501
  156SAPE  H10X17450   7.182   0.599   8.913 -0.2849  1.0237  0.7477
  156SAPE  H10Y17451   7.348   0.536   8.928 -0.1820  0.0592  1.1384
  156SAPE  C31117452   7.324   0.685   8.773  0.2660 -0.1049 -0.2751
  156SAPE  H11X17453   7.425   0.648   8.746  0.2692 -1.8186  1.9509
  156SAPE  H11Y17454   7.338   0.795   8.766  1.2224 -0.3303 -2.0449
  156SAPE  C31217455   7.218   0.649   8.659 -0.1688 -0.4071 -0.0401
  156SAPE  H12X17456   7.116   0.686   8.685 -0.1125 -1.3762  1.6601
  156SAPE  H12Y17457   7.213   0.538   8.665 -1.4009 -0.2839  1.6058
  156SAPE  C31317458   7.252   0.704   8.515 -0.3644 -0.3231 -0.0541
  156SAPE  H13X17459   7.354   0.682   8.476  1.1410  0.5172  3.2004
  156SAPE  H13Y17460   7.234   0.813   8.518 -1.3483 -0.4977  0.4116
  156SAPE  C31417461   7.151   0.656   8.414  0.5943 -0.3146  0.0324
  156SAPE  H14X17462   7.053   0.673   8.463  0.7854  0.2179  0.2285
  156SAPE  H14Y17463   7.166   0.547   8.397 -1.4866 -0.2618 -2.6002
  156SAPE  C31517464   7.154   0.740   8.291  0.1407  0.7092  0.0762
  156SAPE  H15X17465   7.135   0.847   8.313 -0.1439  1.4786 -3.5905
  156SAPE  H15Y17466   7.071   0.704   8.227 -1.5576 -0.5280  2.8709
  156SAPE  C31617467   7.286   0.711   8.210  1.0005 -0.0634  0.0895
  156SAPE  H16X17468   7.372   0.656   8.253  0.6079 -1.6687 -1.1228
  156SAPE  H16Y17469   7.321   0.808   8.168  0.4836 -0.7765 -2.0800
  156SAPE  C31717470   7.255   0.619   8.089 -0.3042  0.2391  0.1003
  156SAPE  H17X17471   7.175   0.673   8.034  0.0320  1.2679  0.6105
  156SAPE  H17Y17472   7.206   0.528   8.129 -1.7771  0.9631 -0.0248
  156SAPE  C31817473   7.373   0.595   7.997 -1.0583  0.2935  0.0423
  156SAPE  H18X17474   7.454   0.670   8.010 -0.3086 -0.2263 -1.4993
  156SAPE  H18Y17475   7.344   0.596   7.890  1.4942  0.5987 -0.6875
  156SAPE  H18Z17476   7.425   0.498   8.015 -2.8643 -0.7194 -0.0560
  157SAPE     N17477   4.986   6.717  10.848 -0.2765 -0.4504 -0.7709
  157SAPE   HN117478   5.085   6.705  10.876 -0.1552 -0.6909 -1.3066
  157SAPE   HN217479   4.920   6.689  10.924  1.8382 -1.9537  0.5584
  157SAPE   HN317480   4.973   6.654  10.767 -0.4684 -0.1104 -1.0054
  157SAPE   C1217481   4.945   6.860  10.799  0.4493 -0.5386 -0.0174
  157SAPE  H12A17482   4.962   6.931  10.883 -0.8210 -0.4210  0.1468
  157SAPE  H12B17483   4.836   6.863  10.782  0.6560 -2.2446 -1.9041
  157SAPE   C1117484   5.015   6.898  10.668 -0.0783 -0.4773  0.2876
  157SAPE  H11A17485   4.954   6.982  10.628  2.1227  0.8806 -0.2933
  157SAPE  H11B17486   5.007   6.813  10.597 -0.7009 -0.4433  0.3114
  157SAPE     P17487   5.215   7.067  10.637  0.1463 -0.4694  0.1034
  157SAPE   O1317488   5.125   7.167  10.701 -0.2639 -0.0257  0.3345
  157SAPE   O1417489   5.360   7.079  10.656  0.6488  0.1326 -0.1233
  157SAPE   O1217490   5.154   6.932  10.677 -0.3721  0.0264  0.7413
  157SAPE   O1117491   5.186   7.069  10.479 -0.4273 -0.3370  0.2482
  157SAPE    C117492   5.233   6.960  10.394 -0.2155  0.1259  0.1244
  157SAPE    HA17493   5.309   6.894  10.440  0.6835  2.0964  1.5013
  157SAPE    HB17494   5.143   6.898  10.375 -1.1901  0.8527  2.1999
  157SAPE    C217495   5.296   7.019  10.258  0.9159  0.4335  0.2860
  157SAPE    HS17496   5.388   7.069  10.297  1.0976 -2.0599  3.3087
  157SAPE   O2117497   5.217   7.100  10.178  0.1188  0.3084  0.4119
  157SAPE   C2117498   5.241   7.227  10.175  0.5894 -0.0588  0.1578
  157SAPE   O2217499   5.327   7.281  10.246 -0.5632 -0.1677 -0.2313
  157SAPE   C2217500   5.141   7.302  10.082 -0.3680 -0.3986 -0.2666
  157SAPE   H2R17501   5.041   7.262  10.112 -0.2069  1.0750  2.4040
  157SAPE   H2S17502   5.157   7.411  10.099  0.0523  0.0723 -3.4688
  157SAPE    C317503   5.338   6.907  10.168 -0.3777  0.4301  0.0874
  157SAPE    HX17504   5.395   6.831  10.227 -1.5630  0.5171  1.3509
  157SAPE    HY17505   5.420   6.939  10.100  1.7326 -3.2394  0.7201
  157SAPE   O3117506   5.235   6.840  10.088 -0.1338 -0.2659 -0.1004
  157SAPE   C3117507   5.216   6.880   9.960  0.3849 -0.2766 -0.0875
  157SAPE   O3217508   5.290   6.951   9.895 -0.2930  0.5760 -0.0159
  157SAPE   C3217509   5.081   6.845   9.917  0.0772  0.7358  0.7860
  157SAPE   H2X17510   5.015   6.927   9.953 -0.3357  1.2747 -1.1424
  157SAPE   H2Y17511   5.063   6.740   9.947 -1.7908  0.3110 -1.6948
  157SAPE   C2317512   5.162   7.260   9.937  0.1829 -0.0539  0.5166
  157SAPE   H3R17513   5.089   7.321   9.880  0.3629  0.3762  0.7382
  157SAPE   H3S17514   5.140   7.151   9.933 -1.2623  0.1819  1.5567
  157SAPE   C2417515   5.290   7.302   9.878 -0.1903  0.9144 -0.3661
  157SAPE   H4R17516   5.299   7.266   9.773 -0.1041 -4.8958  1.4255
  157SAPE   H4S17517   5.384   7.269   9.928  0.8074  0.9595 -2.1814
  157SAPE   C2517518   5.312   7.451   9.888 -0.0150  0.0405 -0.3592
  157SAPE   H5R17519   5.369   7.481   9.977  0.3560  0.0014 -0.5844
  157SAPE   C2617520   5.263   7.547   9.804 -0.0899 -0.4609 -0.3547
  157SAPE   H6R17521   5.278   7.654   9.827  3.4265 -1.2287  1.2322
  157SAPE   C2717522   5.174   7.507   9.688 -0.0038 -0.0329  0.2414
  157SAPE   H7R17523   5.089   7.441   9.716  0.2677 -1.1018 -1.3613
  157SAPE   H7S17524   5.242   7.450   9.621  3.4310  0.7079  2.9781
  157SAPE   C2817525   5.119   7.628   9.621  0.9406  0.2093  1.0625
  157SAPE   H8R17526   5.077   7.706   9.686  1.2811  0.2487  1.2396
  157SAPE   C2917527   5.142   7.655   9.483 -0.0152 -0.2853 -0.0073
  157SAPE   H9R17528   5.078   7.734   9.441  1.9369  1.3025 -0.0372
  157SAPE  C21017529   5.217   7.577   9.375 -0.8191 -0.2281 -0.7410
  157SAPE  H10R17530   5.185   7.613   9.275 -3.5248  0.5392  0.3704
  157SAPE  H10S17531   5.208   7.467   9.388 -1.6912  0.1619  2.4163
  157SAPE  C21117532   5.365   7.600   9.386  0.4252  0.1182  0.7352
  157SAPE  H11R17533   5.401   7.594   9.490  2.2909 -1.4181  0.0044
  157SAPE  C21217534   5.449   7.609   9.282  0.1006 -0.5355  0.3489
  157SAPE  H12R17535   5.557   7.595   9.299  0.8602  2.6366 -1.2983
  157SAPE  C21317536   5.410   7.599   9.131  0.0284 -0.1541  0.3302
  157SAPE  H13R17537   5.362   7.499   9.122  0.3951 -0.3257  0.2348
  157SAPE  H13S17538   5.509   7.598   9.081  0.1737  1.0312  0.5904
  157SAPE  C21417539   5.323   7.708   9.067  0.4805 -0.1634  0.2005
  157SAPE  H14R17540   5.258   7.769   9.131  2.3901  1.0852  0.9929
  157SAPE  C21517541   5.316   7.732   8.934 -0.3272  0.4644  0.6040
  157SAPE  H15R17542   5.243   7.809   8.902 -1.7917 -1.0328  0.2781
  157SAPE  C21617543   5.389   7.663   8.818 -0.1404 -0.2284 -0.3637
  157SAPE  H16R17544   5.323   7.581   8.781  0.3489 -1.3121  1.1005
  157SAPE  H16S17545   5.482   7.614   8.854  0.2412  0.2630 -0.6862
  157SAPE  C21717546   5.420   7.747   8.693  0.4411  0.9683 -0.0533
  157SAPE  H17R17547   5.456   7.668   8.624 -1.4075 -1.0554  1.2236
  157SAPE  H17S17548   5.496   7.823   8.721  0.0997  1.2580  0.1042
  157SAPE  C21817549   5.293   7.795   8.626  0.0291 -0.1847 -0.0215
  157SAPE  H18R17550   5.252   7.864   8.703  1.2915  0.0098  0.4857
  157SAPE  H18S17551   5.235   7.701   8.614  2.6350 -1.7205 -1.0396
  157SAPE  C21917552   5.295   7.872   8.492  0.5762  0.2448  0.1940
  157SAPE  H19R17553   5.194   7.873   8.446  0.5191 -0.7994  0.2881
  157SAPE  H19S17554   5.368   7.828   8.421  1.8390  3.2762 -0.4676
  157SAPE  C22017555   5.334   8.017   8.510 -0.3191  0.0790  0.0356
  157SAPE  H20R17556   5.442   8.030   8.534 -0.4602 -0.5560  1.0514
  157SAPE  H20S17557   5.273   8.068   8.588 -0.0764  0.6608 -0.1547
  157SAPE  H20T17558   5.347   8.079   8.419  2.7499  0.3092  0.5540
  157SAPE   C3317559   5.065   6.822   9.765 -0.3695  0.0624 -0.0531
  157SAPE   H3X17560   4.973   6.762   9.744  0.7347 -1.9144  0.5795
  157SAPE   H3Y17561   5.150   6.760   9.729 -0.3557 -0.0384  0.1532
  157SAPE   C3417562   5.041   6.946   9.677  0.2122 -0.4978  0.0016
  157SAPE   H4X17563   5.097   7.030   9.723 -0.3656 -0.1015 -0.0101
  157SAPE   H4Y17564   4.932   6.965   9.682  0.1352 -1.0816  0.7345
  157SAPE   C3517565   5.088   6.924   9.535 -0.5063  0.9384 -0.0326
  157SAPE   H5X17566   5.034   6.832   9.504  0.5954  0.2532  0.0274
  157SAPE   H5Y17567   5.197   6.910   9.517  0.0737 -0.1258  3.6946
  157SAPE   C3617568   5.034   7.037   9.442 -0.0267  0.0350  0.6203
  157SAPE   H6X17569   5.097   7.117   9.485  0.2254 -0.0154  0.3425
  157SAPE   H6Y17570   4.926   7.052   9.463 -0.0162  0.9839  0.0299
  157SAPE   C3717571   5.067   7.027   9.293  0.4937 -0.2912  0.3352
  157SAPE   H7X17572   5.041   6.922   9.266  0.8287 -0.8420  2.0512
  157SAPE   H7Y17573   5.177   7.033   9.276  0.0604  0.1896 -2.4753
  157SAPE   C3817574   4.990   7.127   9.194  0.1513 -0.1154  0.1656
  157SAPE   H8X17575   5.025   7.230   9.219  0.7652 -0.8730  2.5505
  157SAPE   H8Y17576   4.880   7.128   9.202  0.2581  0.8439  1.8395
  157SAPE   C3917577   5.019   7.103   9.044 -0.0025  0.2431  1.1196
  157SAPE   H9X17578   4.987   7.202   9.006  0.2720 -0.8529 -2.1426
  157SAPE   H9Y17579   4.948   7.030   8.998 -0.2925  0.3751  1.3546
  157SAPE  C31017580   5.164   7.079   9.004 -0.1786 -0.0031  0.2898
  157SAPE  H10X17581   5.208   6.982   9.037  0.1738  0.5094  1.3312
  157SAPE  H10Y17582   5.222   7.162   9.048  0.0128 -0.1500  0.3167
  157SAPE  C31117583   5.177   7.076   8.854 -0.0539 -0.3461 -0.1498
  157SAPE  H11X17584   5.094   7.019   8.808  0.0436  1.3694 -2.5869
  157SAPE  H11Y17585   5.272   7.024   8.828 -0.6722 -2.2866  1.4121
  157SAPE  C31217586   5.172   7.219   8.781 -0.5236 -0.0318  0.2860
  157SAPE  H12X17587   5.253   7.281   8.825 -0.1494 -2.2000  2.8095
  157SAPE  H12Y17588   5.075   7.267   8.808 -0.4236 -0.5874  1.6821
  157SAPE  C31317589   5.184   7.210   8.626  0.5668  0.4463 -0.7764
  157SAPE  H13X17590   5.085   7.201   8.578  0.4619 -1.2343 -0.2833
  157SAPE  H13Y17591   5.240   7.121   8.591  1.2301 -0.1198  1.6001
  157SAPE  C31417592   5.278   7.327   8.584 -0.7624  0.2474 -0.5641
  157SAPE  H14X17593   5.372   7.296   8.634 -2.0446  0.3014  1.9541
  157SAPE  H14Y17594   5.242   7.426   8.620  0.1727  0.2231  0.4597
  157SAPE  C31517595   5.311   7.343   8.435 -0.3166  0.3493  0.7608
  157SAPE  H15X17596   5.213   7.333   8.383 -0.2313  0.6828  0.5293
  157SAPE  H15Y17597   5.380   7.262   8.402 -1.8183  0.1014 -1.9144
  157SAPE  C31617598   5.376   7.474   8.388  0.0738  0.4438  0.1361
  157SAPE  H16X17599   5.475   7.473   8.439 -0.4628 -1.6486  1.1766
  157SAPE  H16Y17600   5.310   7.559   8.418  0.3715  1.4892 -2.1175
  157SAPE  C31717601   5.387   7.468   8.232 -0.5922  0.7731 -0.2460
  157SAPE  H17X17602   5.281   7.459   8.203 -1.0308 -3.8402  2.3310
  157SAPE  H17Y17603   5.433   7.367   8.227 -1.2155  0.5412 -1.2574
  157SAPE  C31817604   5.439   7.582   8.160 -0.4804  0.6136  0.8154
  157SAPE  H18X17605   5.544   7.605   8.188  0.0055 -1.1265  0.4804
  157SAPE  H18Y17606   5.382   7.675   8.183  1.5974  2.9423 -2.8363
  157SAPE  H18Z17607   5.429   7.570   8.050  0.8320 -0.5149  0.7999
  158SAPE     N17608   5.997   1.096  10.553  0.1352 -0.1782 -0.0389
  158SAPE   HN117609   5.973   1.192  10.522 -0.0595 -0.2604 -0.1406
  158SAPE   HN217610   5.915   1.041  10.585  1.3532 -1.6244  0.6434
  158SAPE   HN317611   6.060   1.107  10.636  1.1356  0.7174 -0.9035
  158SAPE   C1217612   6.071   1.022  10.453 -0.1298 -0.5684 -0.3466
  158SAPE  H12A17613   6.002   0.983  10.374  1.1865  0.4142 -2.0171
  158SAPE  H12B17614   6.126   0.937  10.498 -0.7683 -0.4521  0.6629
  158SAPE   C1117615   6.174   1.111  10.386  0.6214 -0.4251 -0.0440
  158SAPE  H11A17616   6.125   1.195  10.334  0.5799  0.6614  1.7077
  158SAPE  H11B17617   6.225   1.050  10.308  0.8365 -0.6293  0.2534
  158SAPE     P17618   6.387   1.107  10.538 -0.1899 -0.2469  0.0215
  158SAPE   O1317619   6.433   1.191  10.654 -0.0279 -0.3180 -0.3712
  158SAPE   O1417620   6.345   0.965  10.564  0.1618 -0.2461 -0.0532
  158SAPE   O1217621   6.256   1.174  10.478 -1.1521  0.3158  0.0768
  158SAPE   O1117622   6.493   1.104  10.417  0.2924 -0.1093 -0.6706
  158SAPE    C117623   6.488   1.200  10.319 -0.8249 -0.8801  0.2783
  158SAPE    HA17624   6.387   1.221  10.277  0.3458  1.6956 -1.3939
  158SAPE    HB17625   6.518   1.298  10.361  0.5582 -0.4077 -1.7460
  158SAPE    C217626   6.586   1.176  10.200 -0.1115  0.0010  0.3282
  158SAPE    HS17627   6.572   1.255  10.124  0.2031 -0.0433  0.2248
  158SAPE   O2117628   6.560   1.045  10.146  0.2865 -1.1733  0.0047
  158SAPE   C2117629   6.466   1.035  10.054 -0.4329 -0.1129 -0.0029
  158SAPE   O2217630   6.400   1.121  10.001 -0.4145 -0.5009 -0.6122
  158SAPE   C2217631   6.479   0.890  10.002 -0.0256 -0.0191 -0.5705
  158SAPE   H2R17632   6.587   0.878   9.976  0.1117  2.8363 -1.5403
  158SAPE   H2S17633   6.444   0.822  10.082  0.9306 -0.8157 -0.8235
  158SAPE    C317634   6.732   1.198  10.242  0.0823 -0.2366 -0.0349
  158SAPE    HX17635   6.756   1.132  10.329 -1.1483  0.0011  0.4922
  158SAPE    HY17636   6.750   1.296  10.291 -0.0520  0.9004 -2.2291
  158SAPE   O3117637   6.827   1.184  10.139 -0.3030  0.5236  0.2374
  158SAPE   C3117638   6.912   1.078  10.157  0.0206 -0.8076 -0.2162
  158SAPE   O3217639   6.908   0.998  10.240 -0.2648  0.7049  0.2921
  158SAPE   C3217640   7.022   1.073  10.047 -0.1864 -0.0955  0.0277
  158SAPE   H2X17641   7.120   1.043  10.089 -0.5488  1.2704  1.8980
  158SAPE   H2Y17642   7.025   1.171   9.995 -1.6722 -1.1246 -2.1079
  158SAPE   C2317643   6.402   0.862   9.870 -0.2095 -0.0039  0.0820
  158SAPE   H3R17644   6.455   0.934   9.805 -0.8731  1.0485  0.6792
  158SAPE   H3S17645   6.294   0.887   9.882 -0.7050 -2.1395  0.2855
  158SAPE   C2417646   6.414   0.716   9.834 -0.1918  0.1884  0.6172
  158SAPE   H4R17647   6.357   0.653   9.906  1.1886  1.1485  2.6213
  158SAPE   H4S17648   6.519   0.682   9.850  0.3388  2.2984  1.7944
  158SAPE   C2517649   6.375   0.686   9.689  0.0883  0.7114  0.2239
  158SAPE   H5R17650   6.315   0.767   9.645 -1.4088 -0.3148  0.3420
  158SAPE   C2617651   6.410   0.582   9.611 -0.2315  0.2513 -0.1866
  158SAPE   H6R17652   6.380   0.586   9.506  1.6346  1.1135 -0.7057
  158SAPE   C2717653   6.491   0.462   9.657 -0.1530  0.4988  0.8542
  158SAPE   H7R17654   6.526   0.470   9.762 -1.5152  1.4964  1.2431
  158SAPE   H7S17655   6.591   0.461   9.608  1.1627  1.6837  3.3828
  158SAPE   C2817656   6.436   0.319   9.633  0.0216  0.0239  0.5124
  158SAPE   H8R17657   6.415   0.258   9.723 -5.8146 -0.0939 -0.7268
  158SAPE   C2917658   6.422   0.258   9.511  0.3130  0.5664 -0.8998
  158SAPE   H9R17659   6.392   0.152   9.509  2.2927 -0.0631  0.4771
  158SAPE  C21017660   6.459   0.314   9.382  0.2212 -0.4887 -0.9294
  158SAPE  H10R17661   6.505   0.230   9.326  3.8884  0.7810  0.0483
  158SAPE  H10S17662   6.541   0.388   9.396  0.1269 -0.8704  2.0282
  158SAPE  C21117663   6.339   0.370   9.307  0.0391  0.8531  0.1223
  158SAPE  H11R17664   6.290   0.444   9.372 -0.1132  1.6345 -0.8826
  158SAPE  C21217665   6.293   0.332   9.187 -0.2369  0.1337 -0.7333
  158SAPE  H12R17666   6.198   0.374   9.151 -1.1956 -2.0092 -0.7878
  158SAPE  C21317667   6.354   0.226   9.099 -0.0866 -0.0052 -0.6867
  158SAPE  H13R17668   6.270   0.170   9.054 -1.1972  2.3967 -1.6611
  158SAPE  H13S17669   6.418   0.150   9.150 -2.7316 -0.0984  2.6237
  158SAPE  C21417670   6.435   0.281   8.983 -0.1768  0.1106 -0.1335
  158SAPE  H14R17671   6.543   0.295   8.999  0.5018 -1.6294 -2.8610
  158SAPE  C21517672   6.384   0.314   8.862  0.0713 -0.2161  0.5104
  158SAPE  H15R17673   6.457   0.333   8.782 -1.3892 -0.2315 -0.8747
  158SAPE  C21617674   6.245   0.323   8.809 -0.0391  0.3963  0.3357
  158SAPE  H16R17675   6.172   0.292   8.886  0.8276 -0.6735  0.7550
  158SAPE  H16S17676   6.241   0.247   8.728  0.2689 -0.8280  1.4571
  158SAPE  C21717677   6.203   0.462   8.761  0.0272 -0.3651 -0.9616
  158SAPE  H17R17678   6.200   0.525   8.853  0.9130 -0.7230 -0.6868
  158SAPE  H17S17679   6.098   0.451   8.729 -0.5685 -1.8579  1.3666
  158SAPE  C21817680   6.291   0.533   8.665  0.4303  0.1505 -0.0859
  158SAPE  H18R17681   6.359   0.463   8.613  0.2912  0.6703 -0.9809
  158SAPE  H18S17682   6.346   0.602   8.732  1.0701  0.6773 -1.1390
  158SAPE  C21917683   6.206   0.613   8.560 -0.3161  0.0156  0.2719
  158SAPE  H19R17684   6.168   0.703   8.613 -1.5009 -1.4757  1.9892
  158SAPE  H19S17685   6.115   0.561   8.525  1.9605 -2.0502 -2.9583
  158SAPE  C22017686   6.269   0.666   8.440 -0.5418  0.2226 -0.2491
  158SAPE  H20R17687   6.336   0.591   8.393  0.6750  1.1871 -0.0720
  158SAPE  H20S17688   6.335   0.752   8.462  0.4512 -0.3089 -1.1287
  158SAPE  H20T17689   6.194   0.700   8.365 -0.7470 -2.0971 -1.1309
  158SAPE   C3317690   6.980   0.955   9.945  0.3285 -0.2408 -0.2654
  158SAPE   H3X17691   6.954   0.862  10.001 -1.2895  0.9639  1.0590
  158SAPE   H3Y17692   7.064   0.925   9.879  0.5921 -0.3335  0.1116
  158SAPE   C3417693   6.886   1.010   9.844  0.0399 -0.0848  0.1961
  158SAPE   H4X17694   6.931   1.103   9.803 -1.4249 -0.2584 -1.9028
  158SAPE   H4Y17695   6.792   1.046   9.890  0.1332 -0.6132  0.8071
  158SAPE   C3517696   6.847   0.915   9.730  0.2527 -0.0753  0.0028
  158SAPE   H5X17697   6.772   0.845   9.773 -2.2246  0.4054 -3.3340
  158SAPE   H5Y17698   6.927   0.853   9.683  1.4485  2.1254 -0.9551
  158SAPE   C3617699   6.797   1.003   9.614 -0.6731 -0.8036  0.3165
  158SAPE   H6X17700   6.881   1.043   9.554 -1.8422  0.4903 -0.4863
  158SAPE   H6Y17701   6.733   1.085   9.653 -0.4518  0.3005 -1.5824
  158SAPE   C3717702   6.706   0.926   9.514 -0.7797  0.4691  0.1064
  158SAPE   H7X17703   6.696   0.986   9.421 -0.3335 -3.7102 -2.7971
  158SAPE   H7Y17704   6.603   0.926   9.554 -1.2413 -0.0577 -1.0448
  158SAPE   C3817705   6.728   0.780   9.496  0.0133  0.5650 -0.4349
  158SAPE   H8X17706   6.712   0.731   9.595 -1.7235 -1.4983 -1.6735
  158SAPE   H8Y17707   6.833   0.762   9.466  1.2433  0.2299  3.7572
  158SAPE   C3917708   6.644   0.706   9.387 -0.1754 -0.2930 -0.2477
  158SAPE   H9X17709   6.538   0.736   9.398 -0.0037  0.8289 -1.4785
  158SAPE   H9Y17710   6.644   0.595   9.395 -1.6555 -0.4002 -1.3969
  158SAPE  C31017711   6.688   0.716   9.240 -0.9572 -0.8656 -0.2819
  158SAPE  H10X17712   6.791   0.675   9.224 -1.1533 -1.2894 -0.4580
  158SAPE  H10Y17713   6.697   0.825   9.219 -0.7928 -1.3034 -2.6687
  158SAPE  C31117714   6.600   0.635   9.144  0.0686 -0.1036  0.0615
  158SAPE  H11X17715   6.498   0.679   9.145 -0.1034 -0.4143 -1.5730
  158SAPE  H11Y17716   6.590   0.531   9.181 -1.2909 -0.5988 -1.6139
  158SAPE  C31217717   6.640   0.643   8.998  0.5503  0.4343  0.2188
  158SAPE  H12X17718   6.631   0.749   8.965 -1.0604  0.4882  0.7740
  158SAPE  H12Y17719   6.566   0.588   8.936  3.6630 -1.2398 -2.1326
  158SAPE  C31317720   6.774   0.589   8.967 -0.5467 -0.2484 -0.2340
  158SAPE  H13X17721   6.762   0.479   8.960 -0.2147 -0.1990 -1.8915
  158SAPE  H13Y17722   6.857   0.604   9.040  0.4890 -1.6840 -1.0764
  158SAPE  C31417723   6.827   0.629   8.824  0.8579  0.1805 -0.0272
  158SAPE  H14X17724   6.935   0.602   8.816  1.9565  3.5922  2.1873
  158SAPE  H14Y17725   6.824   0.740   8.821 -0.4752  0.1240 -1.5590
  158SAPE  C31517726   6.744   0.576   8.705  0.6735 -0.7908 -0.2158
  158SAPE  H15X17727   6.639   0.612   8.716  1.2361  0.0634  2.8364
  158SAPE  H15Y17728   6.728   0.467   8.717 -1.3369 -0.4604  0.4106
  158SAPE  C31617729   6.791   0.615   8.571  0.5202 -0.2313  0.3908
  158SAPE  H16X17730   6.892   0.574   8.549  0.5616 -0.1229  0.3789
  158SAPE  H16Y17731   6.799   0.725   8.561 -2.2973 -0.0020  0.3239
  158SAPE  C31717732   6.694   0.575   8.461  0.5140 -0.3901  0.9692
  158SAPE  H17X17733   6.591   0.580   8.503  0.5025 -1.2278  1.0490
  158SAPE  H17Y17734   6.699   0.469   8.431  0.6338 -0.4745  1.2880
  158SAPE  C31817735   6.683   0.664   8.329  0.1446  0.6019  0.2042
  158SAPE  H18X17736   6.785   0.692   8.295  0.3561 -1.3906 -0.8806
  158SAPE  H18Y17737   6.624   0.757   8.342 -0.9366  0.3292 -2.5333
  158SAPE  H18Z17738   6.647   0.598   8.248  3.2745 -1.2518  0.2403
  159SAPE     N17739   5.892   5.357   6.573  0.0173  0.2827 -0.0583
  159SAPE   HN117740   5.853   5.444   6.532 -0.8305 -0.0964 -0.0732
  159SAPE   HN217741   5.924   5.297   6.494 -1.1858 -0.1129 -0.2640
  159SAPE   HN317742   5.814   5.298   6.610  1.5678  0.0262  2.8779
  159SAPE   C1217743   6.003   5.366   6.669  0.5417  0.5227  0.8715
  159SAPE  H12A17744   5.981   5.446   6.743 -1.9356  2.1122 -1.5004
  159SAPE  H12B17745   6.088   5.404   6.609  0.3233  1.0743  0.9145
  159SAPE   C1117746   6.041   5.231   6.720 -0.4369  0.0684  0.0106
  159SAPE  H11A17747   5.954   5.185   6.771  0.3178 -2.5668 -0.9903
  159SAPE  H11B17748   6.116   5.245   6.800  0.5696 -2.0011 -0.5571
  159SAPE     P17749   6.050   4.998   6.607  0.0954  0.1135  0.2441
  159SAPE   O1317750   5.912   4.990   6.544 -0.1881  0.0875  0.0371
  159SAPE   O1417751   6.154   4.923   6.530  0.2130 -0.0438  0.0708
  159SAPE   O1217752   6.093   5.148   6.612  0.0335 -0.3482  0.2532
  159SAPE   O1117753   6.053   4.957   6.760 -0.1373 -0.2613 -0.1663
  159SAPE    C117754   5.952   4.867   6.814 -0.8087 -0.2131  1.3372
  159SAPE    HA17755   5.908   4.797   6.740  0.9148  0.4199 -0.3377
  159SAPE    HB17756   6.002   4.804   6.891 -0.9231 -0.5524  1.1330
  159SAPE    C217757   5.826   4.940   6.873 -0.0625 -0.1291  0.2210
  159SAPE    HS17758   5.781   5.002   6.793 -0.5413 -0.6687  0.0719
  159SAPE   O2117759   5.866   5.018   6.990  0.1991  0.5709  0.4667
  159SAPE   C2117760   5.794   5.110   7.033  0.2094 -0.0554 -0.4984
  159SAPE   O2217761   5.709   5.172   6.965  0.3372 -0.1636 -0.4759
  159SAPE   C2217762   5.834   5.139   7.176  0.7709  0.1748 -0.3191
  159SAPE   H2R17763   5.936   5.102   7.198  0.6552  0.8666  1.5028
  159SAPE   H2S17764   5.831   5.247   7.200  1.7231 -0.0569  0.8850
  159SAPE    C317765   5.720   4.836   6.922  0.7988 -0.2552  0.1953
  159SAPE    HX17766   5.683   4.781   6.833 -0.0316 -1.3977  1.2154
  159SAPE    HY17767   5.632   4.890   6.964 -0.2245 -0.7759 -1.2388
  159SAPE   O3117768   5.772   4.746   7.017  0.5910  0.4196  0.2940
  159SAPE   C3117769   5.684   4.669   7.088  0.0009  0.0503 -0.2926
  159SAPE   O3217770   5.577   4.635   7.046  0.1769 -0.5301  0.3976
  159SAPE   C3217771   5.744   4.632   7.231 -0.1479 -0.0232  0.4774
  159SAPE   H2X17772   5.725   4.523   7.246  1.4450 -0.3888 -0.0621
  159SAPE   H2Y17773   5.681   4.694   7.299  0.6418  1.7449 -0.4009
  159SAPE   C2317774   5.723   5.069   7.264 -1.2109 -0.2703 -0.2672
  159SAPE   H3R17775   5.734   4.958   7.264 -0.8379 -0.2352  0.5891
  159SAPE   H3S17776   5.618   5.088   7.232 -1.3239 -1.5682 -0.7098
  159SAPE   C2417777   5.741   5.117   7.414 -0.3065  0.0015  0.2744
  159SAPE   H4R17778   5.660   5.069   7.472  1.0682  0.7982  2.9367
  159SAPE   H4S17779   5.722   5.226   7.424  1.7256  0.2045  2.2276
  159SAPE   C2517780   5.872   5.074   7.478 -0.1732  0.1421  0.2656
  159SAPE   H5R17781   5.943   5.030   7.407 -2.7136 -0.3297 -2.0604
  159SAPE   C2617782   5.903   5.080   7.612  0.5620  0.4764 -0.4693
  159SAPE   H6R17783   6.004   5.050   7.644  0.2285  0.0375  0.1820
  159SAPE   C2717784   5.805   5.134   7.721  0.4820 -0.5857 -0.6259
  159SAPE   H7R17785   5.811   5.062   7.806  2.2184  1.1995  0.8184
  159SAPE   H7S17786   5.701   5.142   7.685 -0.3338 -0.3536  1.7269
  159SAPE   C2817787   5.819   5.270   7.780 -0.0118 -0.1980 -0.7269
  159SAPE   H8R17788   5.746   5.344   7.744  0.5608  0.3284 -0.8136
  159SAPE   C2917789   5.918   5.315   7.871  0.4680  0.6610 -0.3284
  159SAPE   H9R17790   5.913   5.421   7.902  1.6536  0.3612  0.9398
  159SAPE  C21017791   6.024   5.229   7.929 -0.1980  0.1198 -0.3075
  159SAPE  H10R17792   6.115   5.283   7.962 -0.0510 -0.7061  0.6581
  159SAPE  H10S17793   6.062   5.142   7.872  2.9704  0.7979  0.6842
  159SAPE  C21117794   5.964   5.163   8.058  0.0325  0.1825  0.4634
  159SAPE  H11R17795   5.907   5.070   8.038  1.6808 -0.6459 -0.4877
  159SAPE  C21217796   5.959   5.208   8.183 -0.2366  0.0223 -0.1479
  159SAPE  H12R17797   5.898   5.155   8.258  1.8049 -1.4719  0.4789
  159SAPE  C21317798   6.023   5.332   8.247  0.0476 -0.2803 -0.1554
  159SAPE  H13R17799   6.113   5.374   8.197 -0.7330  0.5724 -0.8543
  159SAPE  H13S17800   6.045   5.310   8.354 -1.2358 -0.5217  0.0659
  159SAPE  C21417801   5.936   5.453   8.217 -0.0035  0.4297 -0.0153
  159SAPE  H14R17802   5.862   5.430   8.139  2.0683 -0.4115 -1.7852
  159SAPE  C21517803   5.940   5.568   8.287  0.3412  0.0994 -0.4951
  159SAPE  H15R17804   5.857   5.638   8.271 -0.6181 -0.6179  1.1823
  159SAPE  C21617805   6.023   5.601   8.403 -0.5015 -0.3087  0.0767
  159SAPE  H16R17806   6.085   5.687   8.369  0.1908  0.5794  3.4208
  159SAPE  H16S17807   6.095   5.520   8.426 -0.9662 -0.5466  0.7087
  159SAPE  C21717808   5.952   5.656   8.529  0.5043  0.4013  0.6801
  159SAPE  H17R17809   5.858   5.705   8.497  0.1872 -1.4630 -1.3784
  159SAPE  H17S17810   6.015   5.727   8.587  0.5617  0.1166  0.9673
  159SAPE  C21817811   5.917   5.542   8.625  0.0126 -0.6431 -0.5850
  159SAPE  H18R17812   6.013   5.495   8.654  0.7745  0.0174 -1.9791
  159SAPE  H18S17813   5.851   5.472   8.570  1.3559 -1.5508 -1.0663
  159SAPE  C21917814   5.834   5.593   8.743 -0.0394 -0.1294  0.2707
  159SAPE  H19R17815   5.841   5.701   8.769 -0.3869  0.2238 -1.0500
  159SAPE  H19S17816   5.869   5.537   8.833  3.5984  0.7353 -0.5318
  159SAPE  C22017817   5.685   5.570   8.734 -0.1054 -0.8973 -0.1023
  159SAPE  H20R17818   5.634   5.605   8.826 -0.4415  0.5464 -0.8176
  159SAPE  H20S17819   5.664   5.466   8.702  1.0527 -0.8290 -1.1123
  159SAPE  H20T17820   5.646   5.633   8.651 -1.2757 -1.2973  0.1438
  159SAPE   C3317821   5.888   4.685   7.264  0.7229 -0.0819  0.7628
  159SAPE   H3X17822   5.900   4.790   7.231  1.8009 -0.9644 -1.7261
  159SAPE   H3Y17823   5.957   4.634   7.193 -1.0500 -1.5542  0.0527
  159SAPE   C3417824   5.903   4.657   7.413  0.4415 -0.3418  0.2819
  159SAPE   H4X17825   5.921   4.549   7.429  4.0465  0.3955  1.6975
  159SAPE   H4Y17826   5.818   4.698   7.473  0.1619 -2.0587  1.0965
  159SAPE   C3517827   6.023   4.725   7.476  0.0010 -0.0704  0.0421
  159SAPE   H5X17828   6.028   4.829   7.437 -1.4618  0.3877  1.0491
  159SAPE   H5Y17829   6.115   4.675   7.437 -0.2733  0.0867 -0.8157
  159SAPE   C3617830   6.030   4.726   7.628 -0.2730 -0.3082  0.7113
  159SAPE   H6X17831   5.975   4.635   7.659 -0.0750 -1.3866 -1.9888
  159SAPE   H6Y17832   5.976   4.808   7.680  1.7879  0.2059  2.1486
  159SAPE   C3717833   6.168   4.718   7.681 -0.3662  0.2364 -0.5730
  159SAPE   H7X17834   6.241   4.792   7.642  1.8490 -1.5470  0.0936
  159SAPE   H7Y17835   6.199   4.613   7.663 -0.4085 -0.0222  0.7463
  159SAPE   C3817836   6.157   4.732   7.837  0.2261  0.0383  0.0016
  159SAPE   H8X17837   6.082   4.658   7.872  0.6076  0.0687  0.8892
  159SAPE   H8Y17838   6.134   4.837   7.863  1.8467 -0.2361  2.6753
  159SAPE   C3917839   6.288   4.682   7.902  0.3943 -0.5514 -0.1836
  159SAPE   H9X17840   6.378   4.733   7.862 -0.1359  0.8436  0.3619
  159SAPE   H9Y17841   6.306   4.575   7.879  1.3014 -0.1092 -1.6342
  159SAPE  C31017842   6.285   4.697   8.052  0.0926  0.6688 -0.1475
  159SAPE  H10X17843   6.376   4.665   8.107 -0.5481  1.9358  1.7291
  159SAPE  H10Y17844   6.195   4.642   8.087 -0.4198  1.1655 -0.6599
  159SAPE  C31117845   6.251   4.831   8.105  0.1487  0.2904 -0.0071
  159SAPE  H11X17846   6.157   4.879   8.070 -0.8985 -0.2404  1.9896
  159SAPE  H11Y17847   6.335   4.899   8.076 -0.1537  1.0857  0.9244
  159SAPE  C31217848   6.234   4.823   8.254 -0.1230 -0.1301 -0.3581
  159SAPE  H12X17849   6.322   4.767   8.292 -2.0825 -3.4021 -0.4150
  159SAPE  H12Y17850   6.157   4.754   8.296  1.0424 -0.2817  1.5575
  159SAPE  C31317851   6.215   4.964   8.324  0.1993  0.1409 -0.6148
  159SAPE  H13X17852   6.127   5.019   8.283  0.5329 -0.0012 -1.5501
  159SAPE  H13Y17853   6.297   5.037   8.310  0.2995  0.6054  2.2130
  159SAPE  C31417854   6.201   4.965   8.478  0.3192  0.4118 -0.5705
  159SAPE  H14X17855   6.292   4.922   8.526 -1.3264  0.3136  2.6263
  159SAPE  H14Y17856   6.123   4.899   8.521  0.1110  2.0574  1.6640
  159SAPE  C31517857   6.162   5.108   8.522 -0.2884  0.5132  0.3050
  159SAPE  H15X17858   6.064   5.126   8.473 -0.7088 -0.2730  0.8366
  159SAPE  H15Y17859   6.233   5.189   8.495 -0.6138 -0.1356 -2.6345
  159SAPE  C31617860   6.137   5.111   8.676 -0.2912  0.3388  0.6697
  159SAPE  H16X17861   6.061   5.036   8.707 -0.9683  1.5563  2.0258
  159SAPE  H16Y17862   6.089   5.207   8.703 -2.1282 -0.3441 -0.0108
  159SAPE  C31717863   6.267   5.102   8.763  0.9398 -0.3553  0.8250
  159SAPE  H17X17864   6.345   5.166   8.716 -0.7736  0.8363 -0.4231
  159SAPE  H17Y17865   6.304   4.998   8.773  1.0818 -0.2792  1.0961
  159SAPE  C31817866   6.264   5.170   8.898 -0.3636 -0.1186 -0.1180
  159SAPE  H18X17867   6.360   5.171   8.954 -0.3744 -1.1774 -0.0655
  159SAPE  H18Y17868   6.179   5.124   8.953  0.1304  0.7623  1.4098
  159SAPE  H18Z17869   6.233   5.275   8.883  4.5850  1.6085  0.7995
  160SAPE     N17870   4.756   5.143   6.692  0.1785 -0.9218  0.0001
  160SAPE   HN117871   4.728   5.046   6.715 -1.6760 -1.7400 -5.1133
  160SAPE   HN217872   4.839   5.142   6.629  0.2522  1.2259  0.0090
  160SAPE   HN317873   4.802   5.177   6.779 -0.5389 -1.9374  0.7789
  160SAPE   C1217874   4.642   5.233   6.645 -0.1603 -0.1369 -0.2536
  160SAPE  H12A17875   4.554   5.207   6.708  0.2984  0.8603  0.8229
  160SAPE  H12B17876   4.619   5.199   6.542 -1.1250  0.0351 -0.0974
  160SAPE   C1117877   4.691   5.378   6.646  1.0020 -0.8769 -0.1274
  160SAPE  H11A17878   4.675   5.419   6.748  2.9798  0.4947 -0.3360
  160SAPE  H11B17879   4.637   5.434   6.567  1.0424  0.5425  0.8456
  160SAPE     P17880   4.899   5.449   6.485  0.3827 -0.0145 -0.3371
  160SAPE   O1317881   5.043   5.474   6.514 -0.4802 -0.0871  0.3256
  160SAPE   O1417882   4.867   5.356   6.372  0.4357 -0.1814 -0.3892
  160SAPE   O1217883   4.835   5.398   6.621 -0.5678  0.1883  0.4126
  160SAPE   O1117884   4.817   5.580   6.460  0.1372 -0.6988  0.6362
  160SAPE    C117885   4.872   5.712   6.456 -0.5358  0.2407 -0.4631
  160SAPE    HA17886   4.961   5.717   6.389 -0.1137 -0.7110  0.0118
  160SAPE    HB17887   4.793   5.783   6.426 -0.5261 -0.1125 -1.3150
  160SAPE    C217888   4.914   5.763   6.589  0.1728  0.4178 -0.1840
  160SAPE    HS17889   4.998   5.701   6.627  0.1014 -0.5436 -1.5255
  160SAPE   O2117890   4.796   5.741   6.667 -0.7227 -0.2601  0.2538
  160SAPE   C2117891   4.819   5.713   6.793  0.2188  0.2553  0.5364
  160SAPE   O2217892   4.919   5.677   6.849 -0.5543 -0.4262 -0.0212
  160SAPE   C2217893   4.688   5.744   6.863  0.2495  0.1860 -0.0850
  160SAPE   H2R17894   4.681   5.853   6.845 -0.7790 -0.0681 -1.2484
  160SAPE   H2S17895   4.601   5.690   6.822 -1.1531  1.6568  0.8901
  160SAPE    C317896   4.949   5.910   6.592  0.3353 -0.1067 -1.2066
  160SAPE    HX17897   4.855   5.966   6.573 -0.7620 -1.7994 -0.8828
  160SAPE    HY17898   5.008   5.938   6.502  0.5074  2.1460 -0.4413
  160SAPE   O3117899   5.010   5.941   6.713 -0.2272 -0.4407 -0.1392
  160SAPE   C3117900   5.140   5.912   6.735  0.5435 -0.0474  0.5225
  160SAPE   O3217901   5.228   5.877   6.657  0.0944  0.1731  0.0369
  160SAPE   C3217902   5.161   5.939   6.878  0.0214  0.9340  0.2756
  160SAPE   H2X17903   5.092   5.875   6.937  1.9525 -0.3301  1.2184
  160SAPE   H2Y17904   5.140   6.046   6.902  0.1285  0.9124  0.4645
  160SAPE   C2317905   4.691   5.722   7.016  0.2648 -0.5647 -0.0146
  160SAPE   H3R17906   4.782   5.756   7.070  0.6065 -1.7975  0.1945
  160SAPE   H3S17907   4.675   5.613   7.025 -1.7089 -0.2686  0.1725
  160SAPE   C2417908   4.564   5.791   7.069 -0.8352  0.6345  0.0544
  160SAPE   H4R17909   4.536   5.738   7.163 -0.8433  1.9116  0.7879
  160SAPE   H4S17910   4.480   5.771   6.999  0.4715 -3.0002 -0.6014
  160SAPE   C2517911   4.595   5.928   7.115  0.5832  0.3205 -0.0872
  160SAPE   H5R17912   4.626   5.990   7.030 -1.3374 -0.1378 -1.1443
  160SAPE   C2617913   4.583   5.984   7.236 -0.2057 -0.4804  0.3637
  160SAPE   H6R17914   4.610   6.090   7.247 -0.0737 -0.5776  1.0043
  160SAPE   C2717915   4.537   5.908   7.364  0.0048 -0.1867 -0.0925
  160SAPE   H7R17916   4.617   5.919   7.440 -0.3189 -2.0864  0.5288
  160SAPE   H7S17917   4.497   5.805   7.356 -1.6043  0.2370  1.7761
  160SAPE   C2817918   4.415   5.974   7.408  0.1616 -0.1937 -0.3442
  160SAPE   H8R17919   4.322   5.935   7.364 -0.6697 -0.7513  1.8146
  160SAPE   C2917920   4.396   6.053   7.512  0.4767  0.0466  0.1846
  160SAPE   H9R17921   4.296   6.100   7.516  0.3636  0.0389 -2.2332
  160SAPE  C21017922   4.496   6.099   7.613 -0.5602 -0.5732 -0.3795
  160SAPE  H10R17923   4.451   6.190   7.659  0.5012 -1.0572  1.6561
  160SAPE  H10S17924   4.591   6.129   7.564 -1.1165  1.5165 -0.2273
  160SAPE  C21117925   4.515   5.999   7.721 -0.3362  0.6532 -0.4867
  160SAPE  H11R17926   4.464   5.903   7.704 -1.7446  1.7379 -2.5525
  160SAPE  C21217927   4.592   6.011   7.831  0.3249  0.1515 -0.0059
  160SAPE  H12R17928   4.615   5.926   7.897  0.2869  0.1789  0.0432
  160SAPE  C21317929   4.668   6.136   7.864  0.1483 -0.1466  0.3533
  160SAPE  H13R17930   4.650   6.209   7.783 -0.5172 -0.4589  0.2180
  160SAPE  H13S17931   4.776   6.114   7.849 -0.1050 -0.2180 -1.4646
  160SAPE  C21417932   4.642   6.212   7.991  0.0228  0.5580 -0.5393
  160SAPE  H14R17933   4.611   6.316   7.972 -0.1006  0.5235 -0.5278
  160SAPE  C21517934   4.677   6.179   8.119 -0.3078 -0.1419 -0.1554
  160SAPE  H15R17935   4.637   6.238   8.203 -1.5072 -0.6425 -0.3590
  160SAPE  C21617936   4.746   6.050   8.158  0.1495 -1.0781  0.7248
  160SAPE  H16R17937   4.828   6.071   8.230  0.2689 -1.2399  0.6330
  160SAPE  H16S17938   4.801   6.002   8.074 -1.5884 -0.6796 -0.6740
  160SAPE  C21717939   4.643   5.965   8.231  0.7535  0.1811 -0.2197
  160SAPE  H17R17940   4.668   5.857   8.233 -2.8335 -0.7131  1.5749
  160SAPE  H17S17941   4.547   5.970   8.174 -0.2299 -4.2051  0.8531
  160SAPE  C21817942   4.606   6.010   8.377  0.6104 -0.0283 -0.8497
  160SAPE  H18R17943   4.535   5.933   8.411  0.1974  0.4583 -0.5992
  160SAPE  H18S17944   4.556   6.108   8.360 -1.0607 -0.6273  0.5051
  160SAPE  C21917945   4.725   6.024   8.471 -0.4603  0.0664  0.1327
  160SAPE  H19R17946   4.800   6.090   8.422 -2.4529  0.7777 -2.0310
  160SAPE  H19S17947   4.764   5.920   8.481  1.1245  0.4610 -1.5691
  160SAPE  C22017948   4.709   6.093   8.607  0.5971 -0.2595  0.6041
  160SAPE  H20R17949   4.681   6.197   8.579 -0.1792 -0.4957  0.4926
  160SAPE  H20S17950   4.800   6.082   8.670  2.1430  1.7056 -1.1765
  160SAPE  H20T17951   4.626   6.046   8.663 -2.0180  1.6813 -1.5446
  160SAPE   C3317952   5.300   5.885   6.928 -0.2456 -0.1350  0.3881
  160SAPE   H3X17953   5.331   5.944   7.017  1.5001 -1.5576  0.7491
  160SAPE   H3Y17954   5.385   5.905   6.860  0.6769  1.2300  1.8986
  160SAPE   C3417955   5.302   5.735   6.963  0.3611 -0.2164 -0.5082
  160SAPE   H4X17956   5.399   5.709   7.010 -0.4351 -1.4791  0.4749
  160SAPE   H4Y17957   5.290   5.674   6.871  0.5081 -0.7196 -0.1932
  160SAPE   C3517958   5.198   5.686   7.070 -0.1065  0.4992  1.3196
  160SAPE   H5X17959   5.227   5.582   7.097  2.6466  1.1447  1.0343
  160SAPE   H5Y17960   5.099   5.676   7.021  1.0690 -0.9847 -0.8688
  160SAPE   C3617961   5.191   5.771   7.197  0.2661  0.0675  0.2616
  160SAPE   H6X17962   5.107   5.748   7.266  0.8142 -0.0410  0.9032
  160SAPE   H6Y17963   5.164   5.874   7.165  2.9535  0.6243 -0.3467
  160SAPE   C3717964   5.315   5.779   7.275 -0.0632  0.0175  0.1955
  160SAPE   H7X17965   5.394   5.820   7.208 -0.6264  1.1482  0.2229
  160SAPE   H7Y17966   5.334   5.674   7.305  1.5940  0.6439  1.4499
  160SAPE   C3817967   5.309   5.862   7.400  0.3277  0.6694 -0.1065
  160SAPE   H8X17968   5.229   5.829   7.469  0.5074  0.1239 -0.1586
  160SAPE   H8Y17969   5.304   5.972   7.384 -0.7781  0.3740 -1.9143
  160SAPE   C3917970   5.441   5.823   7.472 -0.4335  0.3874  0.0628
  160SAPE   H9X17971   5.534   5.877   7.445 -0.0175 -0.4230 -0.1457
  160SAPE   H9Y17972   5.457   5.714   7.458 -1.2316  0.4486 -1.3778
  160SAPE  C31017973   5.426   5.848   7.620  0.2923 -0.1370 -1.1035
  160SAPE  H10X17974   5.352   5.779   7.667 -0.1943  1.6292  0.8225
  160SAPE  H10Y17975   5.370   5.944   7.632  1.4733  0.2546  1.5153
  160SAPE  C31117976   5.542   5.865   7.701 -0.9120 -0.4414  0.4533
  160SAPE  H11X17977   5.514   5.895   7.804 -0.9939  1.0980  0.0045
  160SAPE  H11Y17978   5.603   5.949   7.659 -1.9879  0.3009  0.3506
  160SAPE  C31217979   5.628   5.732   7.714  0.0051 -0.1040  0.1832
  160SAPE  H12X17980   5.692   5.732   7.623 -1.0333 -0.9221 -0.5595
  160SAPE  H12Y17981   5.561   5.643   7.709 -1.2431  0.8920 -0.8817
  160SAPE  C31317982   5.716   5.727   7.843  0.1855  0.2990 -0.0906
  160SAPE  H13X17983   5.761   5.626   7.837 -1.0269 -0.0909 -5.0271
  160SAPE  H13Y17984   5.645   5.734   7.928 -0.3583  1.8884 -0.6523
  160SAPE  C31417985   5.823   5.830   7.849  0.3233  0.4349 -0.1853
  160SAPE  H14X17986   5.770   5.928   7.846  1.2605  0.9254 -1.2338
  160SAPE  H14Y17987   5.887   5.817   7.759 -0.6433  2.4617 -1.1992
  160SAPE  C31517988   5.901   5.805   7.980 -0.3166 -0.1386 -0.4625
  160SAPE  H15X17989   5.961   5.712   7.978 -0.1768 -0.0429 -0.6769
  160SAPE  H15Y17990   5.836   5.794   8.069 -3.3650  0.1358 -2.5525
  160SAPE  C31617991   6.011   5.920   8.006  0.1379 -0.2788  0.2509
  160SAPE  H16X17992   5.977   6.025   8.015  2.4101  0.3246  2.5211
  160SAPE  H16Y17993   6.073   5.920   7.914 -0.3827  1.2222 -0.1162
  160SAPE  C31717994   6.094   5.899   8.128 -0.1327  0.1611 -0.7024
  160SAPE  H17X17995   6.032   5.865   8.214 -0.5013  0.9029 -0.6717
  160SAPE  H17Y17996   6.128   5.999   8.163 -1.8509  0.3766  0.4384
  160SAPE  C31817997   6.216   5.810   8.103  0.1786  0.2318 -0.5460
  160SAPE  H18X17998   6.279   5.815   8.193  0.5906  3.5637 -0.9445
  160SAPE  H18Y17999   6.274   5.835   8.011  0.1838 -1.1424 -0.9229
  160SAPE  H18Z18000   6.185   5.705   8.087 -0.5199  0.2456  0.7089
  161SAPE     N18001   6.370   4.742   6.174  0.6262  0.2756 -0.4874
  161SAPE   HN118002   6.289   4.782   6.122  0.1947 -0.3403 -0.2887
  161SAPE   HN218003   6.357   4.766   6.275 -0.1922 -1.1357 -0.2536
  161SAPE   HN318004   6.458   4.793   6.152  0.3456  0.8678 -0.2658
  161SAPE   C1218005   6.388   4.591   6.174  0.0069 -0.0036  0.7503
  161SAPE  H12A18006   6.437   4.570   6.077  1.0801  0.6499  1.1448
  161SAPE  H12B18007   6.291   4.541   6.193  0.0333 -0.6803 -0.8484
  161SAPE   C1118008   6.490   4.550   6.284  0.5376 -0.6876 -0.4342
  161SAPE  H11A18009   6.515   4.442   6.285  1.6246 -0.4473  2.0884
  161SAPE  H11B18010   6.444   4.564   6.385 -1.2361 -0.1870 -1.2893
  161SAPE     P18011   6.750   4.602   6.275  0.0326  0.3925 -0.0257
  161SAPE   O1318012   6.790   4.468   6.231 -0.0818  0.4258  0.0223
  161SAPE   O1418013   6.821   4.714   6.206  0.0276 -0.0954 -0.1727
  161SAPE   O1218014   6.600   4.636   6.262  0.2316  0.4396  0.4784
  161SAPE   O1118015   6.779   4.618   6.432  0.0621 -0.3435  0.8488
  161SAPE    C118016   6.738   4.520   6.531 -0.4621  0.3807  0.0863
  161SAPE    HA18017   6.643   4.557   6.576 -0.2105  2.2074 -0.8193
  161SAPE    HB18018   6.717   4.417   6.496 -1.1007  0.0957  1.2699
  161SAPE    C218019   6.843   4.509   6.637  0.0193 -0.9520 -0.0066
  161SAPE    HS18020   6.903   4.416   6.647  0.1225 -0.9341 -0.4668
  161SAPE   O2118021   6.782   4.552   6.761 -0.2165  0.1608 -0.6410
  161SAPE   C2118022   6.756   4.454   6.841 -0.7206 -0.0763  0.4305
  161SAPE   O2218023   6.795   4.338   6.821  0.4612  0.0833  0.0262
  161SAPE   C2218024   6.688   4.512   6.957 -0.0756  0.5036 -0.9444
  161SAPE   H2R18025   6.762   4.572   7.015  1.2247 -0.4139 -1.6412
  161SAPE   H2S18026   6.612   4.586   6.923  0.2049 -0.1360 -2.9716
  161SAPE    C318027   6.959   4.611   6.610  0.4043 -0.3132  0.6128
  161SAPE    HX18028   6.914   4.709   6.634 -2.0366 -1.1072 -0.5759
  161SAPE    HY18029   6.978   4.616   6.501  0.0758  2.2378  0.6413
  161SAPE   O3118030   7.081   4.597   6.688  0.2081 -0.4655 -0.7567
  161SAPE   C3118031   7.153   4.494   6.648 -0.5423  0.3912  0.3226
  161SAPE   O3218032   7.123   4.413   6.559 -0.2841 -0.1167  0.1682
  161SAPE   C3218033   7.266   4.474   6.752  0.3532 -0.0817  0.1517
  161SAPE   H2X18034   7.341   4.546   6.714 -0.3832  0.0740 -1.0206
  161SAPE   H2Y18035   7.302   4.371   6.732  1.9495  0.6601 -0.8670
  161SAPE   C2318036   6.650   4.402   7.059 -0.1366 -0.1617 -0.0787
  161SAPE   H3R18037   6.579   4.337   7.004  0.1771  1.9454 -3.0405
  161SAPE   H3S18038   6.591   4.440   7.146  0.9261 -3.2542  2.0830
  161SAPE   C2418039   6.764   4.314   7.123 -0.1491 -0.2654  0.0197
  161SAPE   H4R18040   6.814   4.369   7.206 -2.2106  0.1268  1.0472
  161SAPE   H4S18041   6.846   4.295   7.051  0.6304  1.4124  0.4307
  161SAPE   C2518042   6.696   4.199   7.193 -0.4089  0.0326 -0.2943
  161SAPE   H5R18043   6.605   4.165   7.141 -1.4611  3.1638 -0.6212
  161SAPE   C2618044   6.714   4.165   7.323  0.1406 -0.1333 -0.0284
  161SAPE   H6R18045   6.665   4.079   7.372 -0.1644  1.4327  2.5333
  161SAPE   C2718046   6.811   4.235   7.410  0.0272 -0.4189  0.1373
  161SAPE   H7R18047   6.915   4.234   7.369 -0.5250 -2.7847 -1.2779
  161SAPE   H7S18048   6.827   4.156   7.486  0.7654 -1.4640 -1.0723
  161SAPE   C2818049   6.782   4.369   7.483  0.0178  0.0839 -0.1137
  161SAPE   H8R18050   6.702   4.428   7.436 -1.2996 -0.4773  1.4044
  161SAPE   C2918051   6.837   4.405   7.597  0.0957  0.2595 -1.0560
  161SAPE   H9R18052   6.813   4.504   7.639  1.8424  0.0511  0.4579
  161SAPE  C21018053   6.929   4.331   7.681 -0.6559  0.4877  0.3439
  161SAPE  H10R18054   6.997   4.401   7.733 -0.0870 -0.3678  0.7711
  161SAPE  H10S18055   7.002   4.275   7.620 -0.7457  0.9762 -0.2116
  161SAPE  C21118056   6.863   4.239   7.784  0.1751 -0.7359  0.8444
  161SAPE  H11R18057   6.774   4.190   7.741 -0.1721  0.6160  0.0089
  161SAPE  C21218058   6.876   4.251   7.920 -0.1938 -1.1781  0.4713
  161SAPE  H12R18059   6.818   4.187   7.988 -3.2352  0.4343 -0.5189
  161SAPE  C21318060   6.979   4.338   7.989 -0.0974 -0.0148 -0.3113
  161SAPE  H13R18061   7.043   4.411   7.935 -2.3136  1.5378 -0.9198
  161SAPE  H13S18062   7.057   4.275   8.036  0.7704  1.6158  0.4661
  161SAPE  C21418063   6.910   4.421   8.099 -0.3077 -0.4598  0.6276
  161SAPE  H14R18064   6.845   4.500   8.059  0.2804 -0.6486 -0.7594
  161SAPE  C21518065   6.920   4.401   8.230 -0.2079 -0.0578  0.0608
  161SAPE  H15R18066   6.870   4.476   8.293  2.2811  1.3170  0.4565
  161SAPE  C21618067   7.014   4.300   8.304 -0.5319 -0.4622  0.2449
  161SAPE  H16R18068   7.115   4.343   8.318 -0.3617 -0.8105  0.0994
  161SAPE  H16S18069   7.032   4.203   8.252  0.0117 -0.4331  0.3740
  161SAPE  C21718070   6.969   4.246   8.435  0.1545 -0.0704 -0.7510
  161SAPE  H17R18071   7.031   4.157   8.460  1.4803  1.4650  1.5527
  161SAPE  H17S18072   6.867   4.207   8.414 -0.2791  1.3376 -1.3392
  161SAPE  C21818073   6.971   4.349   8.550 -0.6270  0.0863 -0.3805
  161SAPE  H18R18074   6.916   4.442   8.525  0.9815  0.6275 -1.9868
  161SAPE  H18S18075   7.077   4.372   8.573 -0.7468 -0.5869  0.9182
  161SAPE  C21918076   6.916   4.284   8.679 -0.0317 -0.3293  0.1449
  161SAPE  H19R18077   6.954   4.351   8.758  1.4556 -0.9758  0.0009
  161SAPE  H19S18078   6.971   4.187   8.685 -1.2547 -1.0917 -0.6798
  161SAPE  C22018079   6.772   4.256   8.703  0.4581 -1.1891 -0.1421
  161SAPE  H20R18080   6.773   4.178   8.782  0.6598 -0.5924  0.4508
  161SAPE  H20S18081   6.722   4.216   8.612  1.4631  0.8665 -1.6616
  161SAPE  H20T18082   6.708   4.341   8.736 -0.5974 -1.8381 -0.4836
  161SAPE   C3318083   7.213   4.504   6.890  0.4776  0.3855 -0.5260
  161SAPE   H3X18084   7.104   4.483   6.887  0.5800 -0.5527  1.3242
  161SAPE   H3Y18085   7.229   4.607   6.927  0.3659  1.2137 -2.7413
  161SAPE   C3418086   7.280   4.409   6.996  0.5365  0.2277  0.4827
  161SAPE   H4X18087   7.390   4.416   6.987  0.8581 -0.6072  3.4769
  161SAPE   H4Y18088   7.254   4.306   6.963  0.0008  0.5214 -0.0375
  161SAPE   C3518089   7.222   4.428   7.139 -0.4074 -0.1898  0.3656
  161SAPE   H5X18090   7.111   4.419   7.139 -0.6390  2.3383  2.0432
  161SAPE   H5Y18091   7.254   4.528   7.174  0.9093 -0.9817  1.4957
  161SAPE   C3618092   7.294   4.333   7.233 -0.5759  0.4331  0.3009
  161SAPE   H6X18093   7.399   4.328   7.198 -0.5533  1.0206  0.2856
  161SAPE   H6Y18094   7.250   4.233   7.214  2.0736 -0.8815  0.7969
  161SAPE   C3718095   7.283   4.372   7.384  0.5443 -0.4191 -0.3319
  161SAPE   H7X18096   7.180   4.363   7.424 -0.2597  1.1095 -1.9872
  161SAPE   H7Y18097   7.314   4.477   7.401  1.0539 -0.2985 -1.9649
  161SAPE   C3818098   7.368   4.288   7.479 -0.2166  0.1561 -0.0331
  161SAPE   H8X18099   7.472   4.324   7.466 -0.6161  1.0189 -0.9389
  161SAPE   H8Y18100   7.351   4.182   7.453 -1.4463  0.8400 -2.1814
  161SAPE   C3918101   7.326   4.315   7.627 -0.0365 -0.4522  0.0870
  161SAPE   H9X18102   7.222   4.284   7.651  0.1647  0.0077  1.6133
  161SAPE   H9Y18103   7.333   4.423   7.653  0.4337  0.1807 -2.4459
  161SAPE  C31018104   7.419   4.242   7.723  0.3105  0.0940 -0.7055
  161SAPE  H10X18105   7.522   4.283   7.716  0.1367  0.4661 -1.0897
  161SAPE  H10Y18106   7.419   4.134   7.698 -0.4774 -0.4736  1.5648
  161SAPE  C31118107   7.367   4.255   7.864 -0.6422 -0.2540 -0.5160
  161SAPE  H11X18108   7.256   4.247   7.863 -0.7140  0.5232  0.1604
  161SAPE  H11Y18109   7.391   4.358   7.900 -2.0688 -0.8447  2.2863
  161SAPE  C31218110   7.420   4.161   7.972 -0.4375 -0.2684  0.0600
  161SAPE  H12X18111   7.530   4.151   7.960 -0.4124 -1.3639  1.1122
  161SAPE  H12Y18112   7.378   4.058   7.967 -2.4625  0.5230  0.3168
  161SAPE  C31318113   7.411   4.233   8.108  0.4095 -0.3872  0.1224
  161SAPE  H13X18114   7.312   4.284   8.115  0.1721 -0.8420  0.1051
  161SAPE  H13Y18115   7.495   4.305   8.111 -0.3805  0.7151 -3.0841
  161SAPE  C31418116   7.439   4.137   8.232 -0.6407 -0.1164 -1.3863
  161SAPE  H14X18117   7.531   4.080   8.211  0.8413  1.3616  0.9189
  161SAPE  H14Y18118   7.358   4.062   8.249 -1.3470  1.0356  0.5900
  161SAPE  C31518119   7.466   4.221   8.363 -0.9355  0.1723 -0.7981
  161SAPE  H15X18120   7.380   4.288   8.387 -2.8123 -3.2197  2.4050
  161SAPE  H15Y18121   7.551   4.289   8.341 -1.1675  1.0051  0.8124
  161SAPE  C31618122   7.504   4.130   8.484  0.1665  0.3182  0.1227
  161SAPE  H16X18123   7.582   4.058   8.450 -0.9963 -1.9288  2.0542
  161SAPE  H16Y18124   7.430   4.055   8.517 -0.0253  0.5118  0.1346
  161SAPE  C31718125   7.545   4.214   8.604 -0.2717  0.3879  0.2968
  161SAPE  H17X18126   7.458   4.277   8.633 -0.4721 -0.2960  1.1988
  161SAPE  H17Y18127   7.624   4.287   8.576  0.7093 -0.0952  1.7670
  161SAPE  C31818128   7.590   4.126   8.717 -0.0962 -0.1819  0.4373
  161SAPE  H18X18129   7.504   4.063   8.747 -0.3444 -0.3765 -0.6612
  161SAPE  H18Y18130   7.616   4.190   8.804  0.5965 -0.1693  0.2270
  161SAPE  H18Z18131   7.681   4.066   8.692  0.1514 -0.8540  2.7949
  162SAPE     N18132   6.152   6.559   5.740 -0.3414  0.7379  0.5639
  162SAPE   HN118133   6.210   6.597   5.663  0.1397  0.1195  0.6095
  162SAPE   HN218134   6.077   6.499   5.700 -1.1589  0.3495  2.6246
  162SAPE   HN318135   6.111   6.637   5.794 -0.6349 -0.8398  2.7032
  162SAPE   C1218136   6.235   6.456   5.820  0.3630  0.3140 -0.5101
  162SAPE  H12A18137   6.326   6.509   5.857  0.6876 -0.1068 -0.6979
  162SAPE  H12B18138   6.263   6.376   5.748 -0.3835 -0.3820 -0.0266
  162SAPE   C1118139   6.143   6.411   5.935 -0.1902  0.0475 -0.2357
  162SAPE  H11A18140   6.120   6.504   5.992  1.8638  0.6967 -0.4253
  162SAPE  H11B18141   6.208   6.350   6.001 -1.4857 -1.6987 -0.5548
  162SAPE     P18142   5.942   6.219   5.931 -0.2514  0.0991  0.4772
  162SAPE   O1318143   5.816   6.230   5.855  0.6396 -1.1625  0.2097
  162SAPE   O1418144   6.028   6.098   5.910  0.4540 -0.7677  0.6831
  162SAPE   O1218145   6.021   6.347   5.891  0.5071  0.0079 -0.3189
  162SAPE   O1118146   5.904   6.248   6.081  0.0217 -0.1791  0.2206
  162SAPE    C118147   5.806   6.352   6.110  0.0992  1.2100  0.1479
  162SAPE    HA18148   5.720   6.363   6.041  1.3657  0.9081 -1.5105
  162SAPE    HB18149   5.763   6.317   6.207  3.3926 -0.7115  1.0012
  162SAPE    C218150   5.856   6.494   6.145  0.3199 -0.1886 -0.0402
  162SAPE    HS18151   5.908   6.537   6.057  0.2545  0.7031  0.3527
  162SAPE   O2118152   5.937   6.477   6.253  0.9839  0.0305 -0.4713
  162SAPE   C2118153   6.036   6.563   6.294  0.2238  0.1221  0.0302
  162SAPE   O2218154   6.064   6.674   6.245 -0.3950  0.3425 -0.3803
  162SAPE   C2218155   6.094   6.500   6.417 -0.4514 -0.6875  0.2061
  162SAPE   H2R18156   6.079   6.390   6.403  1.0865 -0.8719 -0.0151
  162SAPE   H2S18157   6.202   6.523   6.424 -0.8624  0.7449  2.2433
  162SAPE    C318158   5.747   6.599   6.179 -0.8203 -0.5278 -0.0613
  162SAPE    HX18159   5.676   6.601   6.093 -0.3392  0.2073 -0.4461
  162SAPE    HY18160   5.793   6.700   6.177  0.7760 -1.2026  1.5726
  162SAPE   O3118161   5.674   6.573   6.301  0.0201  0.5850 -0.0790
  162SAPE   C3118162   5.669   6.665   6.395  0.3303  0.5125 -0.2831
  162SAPE   O3218163   5.702   6.784   6.387  0.8231  0.0693 -0.2702
  162SAPE   C3218164   5.612   6.597   6.522  0.3297 -0.1213  0.1425
  162SAPE   H2X18165   5.656   6.496   6.523  1.2112  0.2627  0.8518
  162SAPE   H2Y18166   5.500   6.599   6.525  0.3312 -0.1762  0.2335
  162SAPE   C2318167   6.020   6.559   6.538  0.4937 -0.1307  0.6263
  162SAPE   H3R18168   5.909   6.550   6.532  0.4680 -0.1013  1.0339
  162SAPE   H3S18169   6.040   6.668   6.534  1.1054 -0.2464  0.4070
  162SAPE   C2418170   6.073   6.521   6.674  0.1881  0.0529  0.1871
  162SAPE   H4R18171   6.170   6.574   6.685  0.7100 -1.2623  2.1646
  162SAPE   H4S18172   6.101   6.413   6.673  0.7614  0.2006 -1.8881
  162SAPE   C2518173   5.977   6.552   6.783  0.5552  0.1501 -0.0684
  162SAPE   H5R18174   5.870   6.547   6.759  0.5496 -1.3313  0.2069
  162SAPE   C2618175   6.012   6.589   6.909  0.2836  0.0157  0.4568
  162SAPE   H6R18176   5.934   6.597   6.985  0.0679 -1.8319  0.4415
  162SAPE   C2718177   6.156   6.606   6.963 -0.3720  0.5126  0.8656
  162SAPE   H7R18178   6.228   6.589   6.880 -2.5527 -0.0231 -0.9846
  162SAPE   H7S18179   6.176   6.524   7.035 -1.3009 -0.5584 -0.0676
  162SAPE   C2818180   6.188   6.735   7.038 -0.7117 -0.6306 -0.3746
  162SAPE   H8R18181   6.155   6.819   6.976  2.7343  0.9605 -0.1558
  162SAPE   C2918182   6.251   6.755   7.155 -0.6869 -0.4827 -0.2827
  162SAPE   H9R18183   6.275   6.856   7.189 -0.6792 -0.6138  0.0996
  162SAPE  C21018184   6.306   6.652   7.243  0.0694  0.2661  0.3698
  162SAPE  H10R18185   6.395   6.690   7.297  0.5658 -1.7427  1.0089
  162SAPE  H10S18186   6.331   6.557   7.190 -0.5359 -0.7416  1.8466
  162SAPE  C21118187   6.210   6.626   7.355  1.1399  0.0342  0.6399
  162SAPE  H11R18188   6.112   6.592   7.318  1.8841  0.0733 -1.4501
  162SAPE  C21218189   6.237   6.620   7.484  0.9410  0.4463 -0.1724
  162SAPE  H12R18190   6.147   6.603   7.546  0.4601 -1.3384 -1.3461
  162SAPE  C21318191   6.376   6.647   7.533  0.3553  0.0144  0.9371
  162SAPE  H13R18192   6.458   6.603   7.472  0.4298  0.0667  1.0006
  162SAPE  H13S18193   6.375   6.591   7.629  0.9162 -2.6320 -0.5523
  162SAPE  C21418194   6.382   6.805   7.560 -0.3997  0.6268 -0.2591
  162SAPE  H14R18195   6.408   6.858   7.468  0.8677 -1.0262 -0.8890
  162SAPE  C21518196   6.356   6.865   7.673 -0.1825 -0.0332 -0.4439
  162SAPE  H15R18197   6.397   6.966   7.683 -0.5481  0.2135 -1.3591
  162SAPE  C21618198   6.297   6.795   7.794 -0.5986 -0.5454  0.8393
  162SAPE  H16R18199   6.258   6.693   7.778  0.2814 -0.5226 -1.6211
  162SAPE  H16S18200   6.210   6.856   7.827 -0.3882 -0.0802  0.5480
  162SAPE  C21718201   6.402   6.785   7.899  0.1078 -0.3374 -0.2326
  162SAPE  H17R18202   6.421   6.890   7.930 -0.0501 -0.2085 -0.5684
  162SAPE  H17S18203   6.497   6.734   7.874  0.6192  0.2047  0.5792
  162SAPE  C21818204   6.361   6.724   8.038  0.3699  0.0495 -0.5691
  162SAPE  H18R18205   6.274   6.655   8.025  1.1633 -1.1295  0.2543
  162SAPE  H18S18206   6.327   6.809   8.100 -0.5438 -0.9487  0.3215
  162SAPE  C21918207   6.473   6.658   8.117  0.2902  0.6820 -0.0284
  162SAPE  H19R18208   6.535   6.581   8.067 -0.5235  0.3405 -0.5054
  162SAPE  H19S18209   6.446   6.620   8.218  0.0489 -0.4385 -0.5130
  162SAPE  C22018210   6.578   6.754   8.168 -0.2593  0.2740  0.0048
  162SAPE  H20R18211   6.645   6.710   8.246  1.4080  2.2824 -0.2468
  162SAPE  H20S18212   6.526   6.841   8.214 -2.4184 -0.6302 -0.6958
  162SAPE  H20T18213   6.647   6.781   8.085  0.0492 -1.3811 -0.2878
  162SAPE   C3318214   5.644   6.673   6.659  0.4098 -0.3400 -0.3123
  162SAPE   H3X18215   5.602   6.776   6.656  1.6812  0.2706  2.0140
  162SAPE   H3Y18216   5.753   6.690   6.668  0.4403  0.0774 -1.3708
  162SAPE   C3418217   5.585   6.605   6.786  0.8940 -0.5165  0.2137
  162SAPE   H4X18218   5.653   6.520   6.803  2.2640  0.9320  2.2091
  162SAPE   H4Y18219   5.478   6.578   6.770  0.1327  2.4377 -0.0457
  162SAPE   C3518220   5.587   6.707   6.907  0.4762 -0.3193  0.3753
  162SAPE   H5X18221   5.510   6.787   6.909  1.5937  0.7835  3.6502
  162SAPE   H5Y18222   5.688   6.755   6.909 -0.2870  1.3462 -0.0289
  162SAPE   C3618223   5.571   6.632   7.037 -0.2051 -1.0693 -0.7556
  162SAPE   H6X18224   5.624   6.534   7.030  0.0641 -0.8007 -2.5854
  162SAPE   H6Y18225   5.464   6.606   7.049  0.4491 -3.6167 -0.1641
  162SAPE   C3718226   5.615   6.711   7.150  0.2893  0.1293 -0.0909
  162SAPE   H7X18227   5.546   6.798   7.154 -1.1583 -0.9046 -1.9100
  162SAPE   H7Y18228   5.721   6.743   7.136  0.3376  0.1974  0.4115
  162SAPE   C3818229   5.608   6.639   7.283 -0.0360 -0.1733  0.3318
  162SAPE   H8X18230   5.688   6.561   7.272 -0.6775 -0.9902  1.3658
  162SAPE   H8Y18231   5.510   6.587   7.289 -0.0368 -0.0285  1.6694
  162SAPE   C3918232   5.635   6.715   7.420 -0.2006 -0.4205  0.9095
  162SAPE   H9X18233   5.736   6.762   7.416  0.5265 -2.0567 -0.8048
  162SAPE   H9Y18234   5.646   6.644   7.505 -1.0582 -0.7730  0.7295
  162SAPE  C31018235   5.525   6.825   7.445 -0.0624  0.3191  0.4479
  162SAPE  H10X18236   5.428   6.782   7.414  0.2445  0.8098 -1.2402
  162SAPE  H10Y18237   5.548   6.909   7.376 -0.4284 -1.4052 -1.8617
  162SAPE  C31118238   5.516   6.888   7.586 -0.1694  0.0523 -0.3903
  162SAPE  H11X18239   5.428   6.956   7.586 -0.9053 -0.8606 -1.3560
  162SAPE  H11Y18240   5.601   6.949   7.621 -0.3004  0.5991 -1.0085
  162SAPE  C31218241   5.475   6.771   7.690 -0.7140  0.0162  0.2596
  162SAPE  H12X18242   5.568   6.713   7.708 -0.2808  0.6575  0.1295
  162SAPE  H12Y18243   5.396   6.703   7.651 -0.2704 -0.2558 -0.1749
  162SAPE  C31318244   5.427   6.830   7.819  0.0145 -0.0586 -0.3636
  162SAPE  H13X18245   5.326   6.874   7.801 -0.2990 -0.9651 -0.8317
  162SAPE  H13Y18246   5.496   6.914   7.843 -0.1947  0.1671 -0.5495
  162SAPE  C31418247   5.416   6.734   7.935  0.6087 -0.4642 -0.4363
  162SAPE  H14X18248   5.513   6.689   7.966  1.4923  1.6484  0.0259
  162SAPE  H14Y18249   5.357   6.646   7.904  2.6307 -2.4737  1.2882
  162SAPE  C31518250   5.357   6.802   8.057  0.3393 -0.5105  0.6905
  162SAPE  H15X18251   5.312   6.716   8.111  1.8847 -0.6877  1.7176
  162SAPE  H15Y18252   5.277   6.874   8.029  2.2420  1.8229  1.1229
  162SAPE  C31618253   5.447   6.881   8.146 -0.4384  0.0201  0.5500
  162SAPE  H16X18254   5.489   6.964   8.085 -5.0095  0.6916 -1.9984
  162SAPE  H16Y18255   5.525   6.812   8.182  0.7764  0.7570 -0.6520
  162SAPE  C31718256   5.373   6.958   8.268 -0.7710 -0.1712  0.2226
  162SAPE  H17X18257   5.456   7.018   8.312 -0.9428  0.7346 -0.6651
  162SAPE  H17Y18258   5.341   6.876   8.335  0.2267 -1.5612 -0.9662
  162SAPE  C31818259   5.257   7.044   8.230 -0.6193 -0.1208 -0.5777
  162SAPE  H18X18260   5.279   7.097   8.135 -0.3454  0.7938 -0.0021
  162SAPE  H18Y18261   5.248   7.124   8.307 -1.9714 -0.9962  0.1926
  162SAPE  H18Z18262   5.162   6.987   8.220 -0.0612 -1.1295 -0.2467
  163SAPE     N18263   4.525   5.040   6.284  0.2657  0.3733 -0.3031
  163SAPE   HN118264   4.560   5.002   6.194  0.0997  2.8290 -1.4194
  163SAPE   HN218265   4.472   5.128   6.268 -1.3515 -0.8624 -1.9160
  163SAPE   HN318266   4.606   5.061   6.346  0.0404  0.3144  0.0134
  163SAPE   C1218267   4.432   4.946   6.349 -0.5266 -0.1821 -0.2142
  163SAPE  H12A18268   4.483   4.847   6.349 -0.5609 -0.2007 -0.8400
  163SAPE  H12B18269   4.337   4.938   6.293 -1.0876  1.2260  0.5035
  163SAPE   C1118270   4.405   4.991   6.492  0.0789 -0.3629 -0.5679
  163SAPE  H11A18271   4.328   4.934   6.548  1.6265  0.0476  2.0578
  163SAPE  H11B18272   4.370   5.096   6.491  0.5423 -0.2024 -1.7384
  163SAPE     P18273   4.561   4.846   6.649  0.2884 -0.2954  0.0645
  163SAPE   O1318274   4.567   4.735   6.553 -0.4641 -0.5643 -0.0280
  163SAPE   O1418275   4.680   4.874   6.730 -0.0639  0.5035 -0.1602
  163SAPE   O1218276   4.526   4.982   6.564 -0.0062 -0.4959 -0.4168
  163SAPE   O1118277   4.429   4.836   6.743  0.1271 -0.2569  0.4509
  163SAPE    C118278   4.394   4.951   6.825 -0.0613 -0.3248 -0.4286
  163SAPE    HA18279   4.452   5.042   6.800  2.0308 -1.1430  1.2587
  163SAPE    HB18280   4.291   4.990   6.808 -0.2211 -0.8522 -0.6589
  163SAPE    C218281   4.414   4.931   6.981  0.0939  0.5431 -0.9807
  163SAPE    HS18282   4.389   5.024   7.037 -0.8256 -0.9343  1.1092
  163SAPE   O2118283   4.552   4.882   7.011  0.0099 -0.9511  0.9658
  163SAPE   C2118284   4.640   4.979   7.005  0.0679  0.3992  0.9123
  163SAPE   O2218285   4.625   5.090   6.958 -0.1374 -0.0946  0.3281
  163SAPE   C2218286   4.763   4.939   7.087 -0.0185 -0.3118  0.5680
  163SAPE   H2R18287   4.791   4.832   7.073 -0.3135 -0.2683 -0.3287
  163SAPE   H2S18288   4.853   4.999   7.061 -0.3944  0.2662  0.5906
  163SAPE    C318289   4.301   4.830   7.012  0.3209  0.0924 -0.9623
  163SAPE    HX18290   4.335   4.734   6.967  1.9730 -0.8046  2.0783
  163SAPE    HY18291   4.207   4.851   6.955 -0.1514 -1.1159 -0.6512
  163SAPE   O3118292   4.276   4.810   7.152 -0.6423 -0.2676 -0.3711
  163SAPE   C3118293   4.207   4.913   7.209  0.8919 -0.1809 -0.2545
  163SAPE   O3218294   4.184   5.015   7.149  0.0021 -0.0604 -0.5135
  163SAPE   C3218295   4.187   4.892   7.362  0.5046 -0.1434  0.1156
  163SAPE   H2X18296   4.282   4.866   7.414  0.4997 -1.2622 -0.4129
  163SAPE   H2Y18297   4.116   4.807   7.360  0.6898 -0.2963 -4.0869
  163SAPE   C2318298   4.751   4.975   7.231 -0.3294 -0.0031  0.0279
  163SAPE   H3R18299   4.654   4.953   7.281 -0.1657 -1.3021 -0.1878
  163SAPE   H3S18300   4.763   5.083   7.253 -1.8893  0.0817  0.5512
  163SAPE   C2418301   4.865   4.906   7.317 -0.3707 -0.0589  0.4621
  163SAPE   H4R18302   4.966   4.912   7.270 -1.1139  1.6158 -0.9971
  163SAPE   H4S18303   4.851   4.797   7.329 -0.6369  0.1227  1.8492
  163SAPE   C2518304   4.879   4.971   7.452  0.0372 -0.0448  0.6436
  163SAPE   H5R18305   4.860   5.079   7.443  2.8326  0.3324 -1.8386
  163SAPE   C2618306   4.905   4.911   7.563  0.2135  0.3013 -0.2739
  163SAPE   H6R18307   4.907   4.967   7.658 -1.7937  1.3172 -0.8144
  163SAPE   C2718308   4.931   4.763   7.586 -0.0841 -1.0890  0.3728
  163SAPE   H7R18309   4.966   4.714   7.493 -0.4358  1.8099 -1.3227
  163SAPE   H7S18310   4.835   4.711   7.604 -1.9869  1.3438 -2.3351
  163SAPE   C2818311   5.026   4.735   7.702  0.5028 -0.9076 -0.4741
  163SAPE   H8R18312   5.130   4.750   7.672  0.4293  0.7931  0.0607
  163SAPE   C2918313   4.996   4.730   7.836  0.3901 -0.0966  0.1529
  163SAPE   H9R18314   5.078   4.714   7.908  0.5436  1.9038  0.4371
  163SAPE  C21018315   4.863   4.732   7.899 -0.1581  0.2760 -0.0682
  163SAPE  H10R18316   4.837   4.636   7.948 -0.1338  0.8193  1.0209
  163SAPE  H10S18317   4.780   4.755   7.828  1.6165  1.4937 -1.8100
  163SAPE  C21118318   4.885   4.835   8.009 -0.6413 -0.1001 -0.1055
  163SAPE  H11R18319   4.927   4.793   8.102 -1.7487 -0.7681  0.1044
  163SAPE  C21218320   4.843   4.959   8.007  0.0390  0.5677 -0.3573
  163SAPE  H12R18321   4.868   5.022   8.094 -1.2634 -2.2103  2.1076
  163SAPE  C21318322   4.770   5.040   7.899 -0.0977  0.8589 -0.7024
  163SAPE  H13R18323   4.682   5.086   7.950 -1.2234 -1.6563 -0.2846
  163SAPE  H13S18324   4.732   4.977   7.816 -3.2421  0.2162  1.1191
  163SAPE  C21418325   4.854   5.157   7.858 -0.4465  0.4037  0.5790
  163SAPE  H14R18326   4.911   5.132   7.767 -0.9445  1.7746 -0.1081
  163SAPE  C21518327   4.870   5.275   7.920  0.4516  0.0507 -0.5898
  163SAPE  H15R18328   4.938   5.347   7.871  0.5004  0.3531 -0.0830
  163SAPE  C21618329   4.797   5.320   8.043 -0.4281 -0.1531  0.5259
  163SAPE  H16R18330   4.746   5.234   8.092 -1.8186  0.8117  0.7988
  163SAPE  H16S18331   4.734   5.408   8.016 -0.7402 -0.1379  1.2861
  163SAPE  C21718332   4.897   5.379   8.148  0.3564 -0.0490 -0.5543
  163SAPE  H17R18333   4.954   5.463   8.102 -0.6733  1.6729  1.2373
  163SAPE  H17S18334   4.960   5.295   8.184  0.5333  0.1302 -0.4464
  163SAPE  C21818335   4.824   5.434   8.270  0.3834  0.1685  0.4768
  163SAPE  H18R18336   4.752   5.355   8.297 -0.0306  0.0719 -0.8706
  163SAPE  H18S18337   4.776   5.531   8.245 -2.0697 -0.9833  0.6407
  163SAPE  C21918338   4.918   5.460   8.385  0.2425 -0.2344 -0.3628
  163SAPE  H19R18339   4.998   5.528   8.349 -1.6779  0.9716 -2.4464
  163SAPE  H19S18340   4.968   5.362   8.404 -3.1027 -2.4310 -2.4427
  163SAPE  C22018341   4.859   5.504   8.518  0.2529  0.5372  0.2290
  163SAPE  H20R18342   4.807   5.602   8.505  0.4954  0.8571  1.6816
  163SAPE  H20S18343   4.942   5.519   8.590 -0.3082  1.5181  0.6777
  163SAPE  H20T18344   4.800   5.422   8.565 -2.0369  2.1826  0.3244
  163SAPE   C3318345   4.124   5.010   7.441  0.2883  0.0422  0.1491
  163SAPE   H3X18346   4.055   5.058   7.368  0.8618 -1.0100 -1.0927
  163SAPE   H3Y18347   4.214   5.073   7.458 -1.1981  2.5237 -0.9771
  163SAPE   C3418348   4.057   4.956   7.571 -0.6878 -0.2831 -0.0823
  163SAPE   H4X18349   4.025   4.849   7.571 -0.8886 -0.2329  1.0883
  163SAPE   H4Y18350   3.972   5.023   7.596 -0.9000 -1.2560  1.8997
  163SAPE   C3518351   4.152   4.983   7.688 -0.2476  0.4832 -0.3935
  163SAPE   H5X18352   4.180   5.091   7.684  2.0490 -0.1557 -4.2046
  163SAPE   H5Y18353   4.239   4.914   7.683 -0.2182  0.5812 -1.5390
  163SAPE   C3618354   4.082   4.964   7.824 -0.2306 -0.4806  0.0603
  163SAPE   H6X18355   4.075   4.859   7.859 -1.8008 -0.5701 -0.4980
  163SAPE   H6Y18356   3.976   4.996   7.825 -0.4468 -1.1888 -0.1476
  163SAPE   C3718357   4.172   5.040   7.930 -1.0046 -0.6138  0.6642
  163SAPE   H7X18358   4.162   5.148   7.911  0.1877 -0.8940 -1.6957
  163SAPE   H7Y18359   4.280   5.022   7.909 -0.4713  1.5797  1.4197
  163SAPE   C3818360   4.133   4.999   8.073 -0.1012  0.1882 -0.3686
  163SAPE   H8X18361   4.143   4.889   8.082  1.4277  0.3751  0.3969
  163SAPE   H8Y18362   4.026   5.029   8.076  0.1121  0.8798  0.6204
  163SAPE   C3918363   4.216   5.069   8.180  0.9220  0.5415  0.3958
  163SAPE   H9X18364   4.147   5.079   8.267 -1.6427 -0.1026 -1.5102
  163SAPE   H9Y18365   4.241   5.171   8.144  0.6079  0.2310 -0.7000
  163SAPE  C31018366   4.348   4.988   8.224  0.4899 -0.5132 -0.7418
  163SAPE  H10X18367   4.359   4.897   8.160 -1.4172 -0.5233 -1.0857
  163SAPE  H10Y18368   4.332   4.951   8.328 -0.2405  1.0058 -0.3065
  163SAPE  C31118369   4.486   5.064   8.240  0.5539  0.7212 -0.3887
  163SAPE  H11X18370   4.468   5.144   8.315 -1.2667  1.0929 -1.1978
  163SAPE  H11Y18371   4.519   5.104   8.142 -2.4962  1.6319 -1.0865
  163SAPE  C31218372   4.597   4.985   8.311 -0.0490 -0.2676  0.6259
  163SAPE  H12X18373   4.633   4.907   8.241 -0.4564  0.6950 -0.6594
  163SAPE  H12Y18374   4.559   4.927   8.398  0.6321  0.0076  1.1128
  163SAPE  C31318375   4.717   5.067   8.373  0.2796  0.2601  0.5169
  163SAPE  H13X18376   4.696   5.130   8.462 -0.4076 -0.9867  1.2619
  163SAPE  H13Y18377   4.740   5.137   8.290  0.8114  0.2647  0.6699
  163SAPE  C31418378   4.844   4.981   8.415  0.6942  0.1936  0.2490
  163SAPE  H14X18379   4.862   4.894   8.349 -1.8470 -0.4003  0.2677
  163SAPE  H14Y18380   4.807   4.940   8.511 -1.7367 -3.2733 -2.0634
  163SAPE  C31518381   4.963   5.074   8.426  0.1921 -0.0546 -0.2668
  163SAPE  H15X18382   4.939   5.170   8.476 -0.9007 -1.4329  1.9646
  163SAPE  H15Y18383   4.996   5.095   8.322  0.4608 -0.4049 -0.2566
  163SAPE  C31618384   5.076   5.010   8.508  0.0156 -0.3748  0.0100
  163SAPE  H16X18385   5.177   5.031   8.467  0.0203 -0.4906 -0.0369
  163SAPE  H16Y18386   5.064   4.900   8.499 -0.8044 -0.1923 -1.2051
  163SAPE  C31718387   5.080   5.035   8.655  0.1976  0.1330  0.1561
  163SAPE  H17X18388   5.140   4.951   8.694 -0.7196 -0.8394 -0.5018
  163SAPE  H17Y18389   4.978   5.032   8.699 -0.5223  0.0323 -1.4824
  163SAPE  C31818390   5.142   5.165   8.695  0.1737  0.3002  0.3941
  163SAPE  H18X18391   5.147   5.168   8.806 -0.3726  0.3372  0.4151
  163SAPE  H18Y18392   5.087   5.255   8.658  0.5936  0.0560 -0.8639
  163SAPE  H18Z18393   5.242   5.172   8.646  0.0139 -0.4291 -0.0364
  164SAPE     N18394   0.092   1.427   5.967 -0.4753  0.2912  0.4034
  164SAPE   HN118395   0.029   1.382   5.898  0.2443  1.0083 -0.7514
  164SAPE   HN218396   0.189   1.414   5.930 -0.5313  3.7119 -1.2166
  164SAPE   HN318397   0.077   1.392   6.063 -2.4526  0.1305  0.0617
  164SAPE   C1218398   0.065   1.575   5.966 -0.5838 -0.2123  0.3661
  164SAPE  H12A18399  -0.044   1.595   5.951 -0.4232  0.3811 -0.0014
  164SAPE  H12B18400   0.110   1.613   5.872  0.6688  1.7115  1.7075
  164SAPE   C1118401   0.129   1.637   6.091 -0.2038  0.3684 -0.6711
  164SAPE  H11A18402   0.234   1.609   6.109 -1.0193 -1.4768  1.4412
  164SAPE  H11B18403   0.070   1.599   6.178  0.9801  2.0674  0.9184
  164SAPE     P18404   0.207   1.893   6.071 -0.2844  0.5223 -0.2814
  164SAPE   O1318405   0.336   1.832   6.016  0.0056  0.1300  0.2538
  164SAPE   O1418406   0.150   2.011   6.008  0.2892 -0.0974 -0.1667
  164SAPE   O1218407   0.102   1.779   6.090  0.0343 -0.3270 -0.2026
  164SAPE   O1118408   0.230   1.932   6.222 -0.0936 -0.0227  0.6380
  164SAPE    C118409   0.126   1.919   6.321  0.1349  0.0192 -0.6268
  164SAPE    HA18410   0.038   1.979   6.289  0.2335  0.9039  0.7327
  164SAPE    HB18411   0.091   1.815   6.341  3.5565 -1.2861 -0.8915
  164SAPE    C218412   0.187   1.964   6.449  0.3905 -0.0028  0.2500
  164SAPE    HS18413   0.238   2.059   6.423 -0.1496 -0.3042 -1.9753
  164SAPE   O2118414   0.281   1.862   6.486  0.1383 -0.1797  0.2585
  164SAPE   C2118415   0.385   1.895   6.560  0.5171  0.5772  0.3340
  164SAPE   O2218416   0.433   2.005   6.570  0.2495  0.1821 -0.7792
  164SAPE   C2218417   0.413   1.771   6.647 -0.3823  0.1608 -0.3295
  164SAPE   H2R18418   0.315   1.733   6.683 -1.4393  0.7628 -2.4611
  164SAPE   H2S18419   0.464   1.689   6.593  0.4014  1.0311 -0.9329
  164SAPE    C318420   0.083   1.982   6.566  0.2561 -0.1350  0.5909
  164SAPE    HX18421   0.028   1.886   6.580 -1.6924  1.0079  0.9325
  164SAPE    HY18422  -0.002   2.050   6.542  1.1294  0.4308 -0.9332
  164SAPE   O3118423   0.140   2.010   6.698  0.4687 -0.0294 -0.3819
  164SAPE   C3118424   0.166   2.139   6.721  0.3807  0.2606  1.4229
  164SAPE   O3218425   0.130   2.234   6.651 -0.4059 -0.2555 -0.2275
  164SAPE   C3218426   0.266   2.143   6.842  0.5431 -1.0364  0.5400
  164SAPE   H2X18427   0.363   2.178   6.801 -0.5162  0.7110 -0.5274
  164SAPE   H2Y18428   0.275   2.038   6.879  0.3564 -1.4908 -0.6727
  164SAPE   C2318429   0.512   1.813   6.767 -0.1276 -0.7263  0.6633
  164SAPE   H3R18430   0.485   1.913   6.808 -2.1729 -0.4441 -1.2835
  164SAPE   H3S18431   0.611   1.814   6.718 -0.8368  1.3806 -0.8135
  164SAPE   C2418432   0.506   1.710   6.881  0.9390 -0.3834  0.0243
  164SAPE   H4R18433   0.404   1.708   6.925  0.1221  1.3281 -1.7134
  164SAPE   H4S18434   0.574   1.756   6.956  1.6251  0.2851 -0.9993
  164SAPE   C2518435   0.532   1.569   6.841 -0.1489 -0.0528  0.0196
  164SAPE   H5R18436   0.516   1.541   6.736 -1.0188  1.1523 -0.1810
  164SAPE   C2618437   0.609   1.481   6.907  0.5111  0.6392 -0.4229
  164SAPE   H6R18438   0.610   1.382   6.860 -0.7972 -0.0428  0.9356
  164SAPE   C2718439   0.683   1.499   7.035 -0.2840 -0.3937 -0.2906
  164SAPE   H7R18440   0.608   1.535   7.109 -0.5880  0.3753 -0.9648
  164SAPE   H7S18441   0.742   1.589   7.007 -1.9395  0.4789 -1.0350
  164SAPE   C2818442   0.764   1.381   7.088 -0.8921 -0.3888  0.0960
  164SAPE   H8R18443   0.777   1.295   7.020 -1.7730 -2.1633  2.0777
  164SAPE   C2918444   0.801   1.364   7.218  0.1726 -0.1288 -0.0271
  164SAPE   H9R18445   0.871   1.283   7.243  1.3460  0.1946 -2.2362
  164SAPE  C21018446   0.765   1.462   7.326  0.9632 -0.2798 -0.3152
  164SAPE  H10R18447   0.805   1.561   7.296  1.0119  0.0595  0.8298
  164SAPE  H10S18448   0.817   1.439   7.422 -1.8306  0.5290  1.4635
  164SAPE  C21118449   0.620   1.465   7.362 -0.3847 -0.2015 -0.3659
  164SAPE  H11R18450   0.553   1.453   7.275  0.8781  0.9696 -1.5402
  164SAPE  C21218451   0.570   1.493   7.489 -0.2312  0.4404 -0.1489
  164SAPE  H12R18452   0.461   1.491   7.494 -0.3803 -1.6987 -2.8292
  164SAPE  C21318453   0.650   1.516   7.618 -0.4185 -0.4380  0.3624
  164SAPE  H13R18454   0.609   1.604   7.671 -1.7901 -1.7306  1.4893
  164SAPE  H13S18455   0.759   1.532   7.605 -0.5530  0.6642  0.5505
  164SAPE  C21418456   0.647   1.403   7.718  1.0858  0.1594  0.0050
  164SAPE  H14R18457   0.653   1.308   7.663 -0.0277  0.3234 -0.4122
  164SAPE  C21518458   0.639   1.410   7.851  0.0517  0.4989  0.1858
  164SAPE  H15R18459   0.652   1.310   7.896 -0.8884  0.4840  0.4244
  164SAPE  C21618460   0.635   1.537   7.933  0.3915  0.0408  0.2724
  164SAPE  H16R18461   0.616   1.623   7.865 -0.1575 -0.0337  0.3293
  164SAPE  H16S18462   0.736   1.561   7.972  0.0197  2.9693 -0.4296
  164SAPE  C21718463   0.542   1.541   8.050  0.3830  0.0791 -0.3556
  164SAPE  H17R18464   0.443   1.514   8.009 -0.9684  1.6548  1.7797
  164SAPE  H17S18465   0.543   1.638   8.104 -1.5932 -0.4897  0.7311
  164SAPE  C21818466   0.567   1.430   8.156  0.8545  0.0486  0.5329
  164SAPE  H18R18467   0.674   1.428   8.185  1.2970  1.0763 -0.9579
  164SAPE  H18S18468   0.562   1.326   8.119  2.1668 -0.3514  1.4732
  164SAPE  C21918469   0.484   1.443   8.281  0.0862  0.2424  0.0614
  164SAPE  H19R18470   0.378   1.413   8.261  0.1554 -0.4185  0.6718
  164SAPE  H19S18471   0.499   1.546   8.320 -0.8653  0.5470 -0.3681
  164SAPE  C22018472   0.534   1.340   8.382 -0.2866 -0.3093 -0.0052
  164SAPE  H20R18473   0.491   1.356   8.483  0.3864 -0.9370  0.3847
  164SAPE  H20S18474   0.645   1.340   8.383 -0.2132  0.4234 -3.2289
  164SAPE  H20T18475   0.509   1.241   8.338  3.0037 -2.2344  2.2575
  164SAPE   C3318476   0.222   2.241   6.945 -0.3013  0.5792 -0.2298
  164SAPE   H3X18477   0.216   2.344   6.904  1.1927  1.6389  2.1283
  164SAPE   H3Y18478   0.306   2.245   7.017 -1.2496  1.0293  0.8569
  164SAPE   C3418479   0.093   2.201   7.016  0.3425  0.5829  0.0344
  164SAPE   H4X18480   0.074   2.095   7.041  1.5089 -0.0555 -1.7171
  164SAPE   H4Y18481   0.007   2.237   6.955 -0.5453 -0.4398  0.6758
  164SAPE   C3518482   0.072   2.284   7.149  0.0800  0.7809 -0.2137
  164SAPE   H5X18483  -0.038   2.277   7.165 -0.1351  1.2895 -1.3834
  164SAPE   H5Y18484   0.099   2.389   7.124  1.3877  0.5039  0.0113
  164SAPE   C3618485   0.160   2.234   7.263 -0.5121 -0.4089  0.2727
  164SAPE   H6X18486   0.266   2.223   7.234 -0.7988 -2.4634 -0.0658
  164SAPE   H6Y18487   0.131   2.128   7.278 -1.3118 -0.2346  0.0376
  164SAPE   C3718488   0.144   2.304   7.398 -0.2399 -0.2870  0.2785
  164SAPE   H7X18489   0.040   2.295   7.437  0.2297  2.2752  2.2546
  164SAPE   H7Y18490   0.169   2.411   7.382 -0.2957 -0.1843  0.8760
  164SAPE   C3818491   0.248   2.244   7.497  0.5552 -0.1959 -0.3189
  164SAPE   H8X18492   0.352   2.249   7.461  0.7597  2.8584  0.5676
  164SAPE   H8Y18493   0.228   2.138   7.527 -1.0973  0.7345  2.0127
  164SAPE   C3918494   0.244   2.311   7.640 -0.3879  0.5073  0.7139
  164SAPE   H9X18495   0.140   2.305   7.680 -0.5568  0.8195  0.3203
  164SAPE   H9Y18496   0.284   2.414   7.636 -0.5872  0.6052  1.1915
  164SAPE  C31018497   0.345   2.253   7.740  0.0010  0.1216  0.2613
  164SAPE  H10X18498   0.449   2.238   7.704  1.1342  4.2071  1.5334
  164SAPE  H10Y18499   0.309   2.152   7.767  0.4976 -1.1214 -3.4493
  164SAPE  C31118500   0.353   2.335   7.867  0.7496 -0.6075 -0.1868
  164SAPE  H11X18501   0.247   2.360   7.888  0.5627  0.7375 -2.5715
  164SAPE  H11Y18502   0.399   2.432   7.838 -0.2210 -0.0720  0.0566
  164SAPE  C31218503   0.412   2.272   7.996  0.2515 -0.0469  0.5098
  164SAPE  H12X18504   0.520   2.268   7.969  0.5513  3.8941  0.8135
  164SAPE  H12Y18505   0.382   2.166   7.994  0.3602 -0.1071  1.5778
  164SAPE  C31318506   0.378   2.353   8.121  0.1548  0.2480 -0.3751
  164SAPE  H13X18507   0.278   2.352   8.170 -0.6581  2.1577 -1.9296
  164SAPE  H13Y18508   0.389   2.455   8.079 -0.2756  0.4128 -0.0961
  164SAPE  C31418509   0.490   2.349   8.229 -0.0394 -0.1118  0.0996
  164SAPE  H14X18510   0.485   2.445   8.285 -0.0086 -2.2718  3.9429
  164SAPE  H14Y18511   0.593   2.356   8.188 -0.3769  0.0989 -0.7385
  164SAPE  C31518512   0.474   2.232   8.329  0.3449 -0.3430 -0.2885
  164SAPE  H15X18513   0.365   2.218   8.345  0.3081 -1.3371 -1.3630
  164SAPE  H15Y18514   0.527   2.268   8.420 -0.6587 -2.0078  0.9820
  164SAPE  C31618515   0.521   2.091   8.289 -0.9328  0.1543  0.0505
  164SAPE  H16X18516   0.621   2.101   8.242 -0.9598  1.5125  0.2627
  164SAPE  H16Y18517   0.461   2.059   8.201 -1.7137 -0.2857  0.7399
  164SAPE  C31718518   0.519   1.979   8.400 -0.0167  0.3073  0.7389
  164SAPE  H17X18519   0.434   1.979   8.472 -0.8260  0.4110 -0.2009
  164SAPE  H17Y18520   0.606   2.008   8.463  0.2037 -0.6260  0.8592
  164SAPE  C31818521   0.554   1.838   8.342  0.6485  0.3466  0.2719
  164SAPE  H18X18522   0.486   1.802   8.262 -0.2900 -0.6688  1.5048
  164SAPE  H18Y18523   0.550   1.754   8.415 -0.1818 -1.1613 -1.4711
  164SAPE  H18Z18524   0.657   1.837   8.300  0.7364 -4.4326  0.3205
  165SAPE     N18525   1.093   5.201   6.283  0.4415 -0.3862  0.5439
  165SAPE   HN118526   1.147   5.181   6.197 -1.1009 -1.9345 -0.0977
  165SAPE   HN218527   1.088   5.305   6.288  3.1440 -0.2459  0.9978
  165SAPE   HN318528   1.147   5.167   6.365 -1.9492  0.7951  2.6998
  165SAPE   C1218529   0.960   5.128   6.285 -0.5785 -0.6933  0.7778
  165SAPE  H12A18530   0.880   5.181   6.229 -2.2389 -1.0180  2.7554
  165SAPE  H12B18531   0.927   5.136   6.391 -1.3772  0.8756  0.4214
  165SAPE   C1118532   0.972   4.985   6.246  0.1736 -0.0887  0.6008
  165SAPE  H11A18533   0.997   4.989   6.138 -4.3712  0.6928 -0.5283
  165SAPE  H11B18534   0.882   4.921   6.264  1.4147 -2.0828 -0.1619
  165SAPE     P18535   1.146   4.798   6.300  0.4649 -0.1672 -0.1438
  165SAPE   O1318536   1.066   4.730   6.194  0.2932  0.3913 -0.0407
  165SAPE   O1418537   1.292   4.825   6.286 -0.5890  0.6451  0.3779
  165SAPE   O1218538   1.079   4.933   6.329  0.0454 -0.7779 -0.5361
  165SAPE   O1118539   1.114   4.721   6.429 -0.1597  0.0388 -0.4875
  165SAPE    C118540   0.979   4.680   6.464  0.8035  0.9584  0.3402
  165SAPE    HA18541   0.915   4.668   6.373  1.0413 -0.2643  0.3255
  165SAPE    HB18542   0.980   4.576   6.504  0.5607  1.0633  0.6249
  165SAPE    C218543   0.917   4.767   6.577 -0.1305  0.6858  0.7411
  165SAPE    HS18544   0.916   4.873   6.543 -1.9776  0.6614  0.6529
  165SAPE   O2118545   1.001   4.748   6.693 -0.2712  0.1615 -0.0492
  165SAPE   C2118546   0.999   4.851   6.779  0.0835  0.4607  0.0217
  165SAPE   O2218547   0.957   4.963   6.760 -0.1512 -0.0518  0.0848
  165SAPE   C2218548   1.053   4.805   6.909  0.6012 -0.4203 -0.1788
  165SAPE   H2R18549   0.959   4.783   6.964  0.2133  0.1467 -0.6043
  165SAPE   H2S18550   1.115   4.714   6.893 -1.2735 -1.6767 -0.5645
  165SAPE    C318551   0.770   4.729   6.613 -0.0822 -0.4229  0.6572
  165SAPE    HX18552   0.750   4.620   6.605 -0.9352 -0.1936 -0.4448
  165SAPE    HY18553   0.720   4.768   6.522  2.2158 -0.8051 -0.8047
  165SAPE   O3118554   0.714   4.782   6.733  0.2046  0.3700  0.1577
  165SAPE   C3118555   0.675   4.906   6.727 -0.0556  0.0472  0.1236
  165SAPE   O3218556   0.675   4.975   6.628  0.3651  0.6027  0.2672
  165SAPE   C3218557   0.621   4.953   6.865 -0.4652  0.2308  0.0911
  165SAPE   H2X18558   0.645   4.874   6.939 -0.3136 -0.4613 -0.6870
  165SAPE   H2Y18559   0.511   4.970   6.851 -0.5681  0.4180  1.1294
  165SAPE   C2318560   1.133   4.909   7.007  0.5851 -0.2676 -0.1651
  165SAPE   H3R18561   1.125   5.004   6.951  0.7199  0.4632  1.0365
  165SAPE   H3S18562   1.241   4.885   6.994  0.3229 -1.6335  0.0733
  165SAPE   C2418563   1.086   4.905   7.149 -0.3425  0.7238 -0.3316
  165SAPE   H4R18564   1.112   4.799   7.171  2.2173  1.4318  0.2042
  165SAPE   H4S18565   0.976   4.919   7.142 -0.4796  0.8648  1.9430
  165SAPE   C2518566   1.140   5.011   7.236  0.0269  0.1559  0.0428
  165SAPE   H5R18567   1.174   5.099   7.180  1.6692 -0.5510 -0.0894
  165SAPE   C2618568   1.154   5.003   7.374 -0.4031  0.1101  0.4954
  165SAPE   H6R18569   1.202   5.086   7.427  2.2840  0.1329 -1.8703
  165SAPE   C2718570   1.119   4.882   7.461 -0.5053  0.3246  0.0792
  165SAPE   H7R18571   1.027   4.844   7.412 -0.3145  1.1515 -0.9174
  165SAPE   H7S18572   1.091   4.926   7.560  1.6536  2.2794 -0.1343
  165SAPE   C2818573   1.238   4.788   7.474  0.5480 -0.0181  0.4755
  165SAPE   H8R18574   1.298   4.769   7.384 -0.1520  0.1371 -0.0233
  165SAPE   C2918575   1.295   4.746   7.589  0.9654  0.3093  0.0037
  165SAPE   H9R18576   1.369   4.665   7.584  0.8858  0.2154  0.3301
  165SAPE  C21018577   1.258   4.786   7.728 -0.4735  0.5480  1.1303
  165SAPE  H10R18578   1.250   4.700   7.798 -0.3236 -0.4541 -0.0824
  165SAPE  H10S18579   1.157   4.832   7.732 -0.1060  1.8462 -2.8080
  165SAPE  C21118580   1.351   4.884   7.791 -0.1714 -0.0229  0.1327
  165SAPE  H11R18581   1.458   4.863   7.779  0.7939  2.2636  3.9044
  165SAPE  C21218582   1.315   4.970   7.888 -0.1003  0.5296 -0.1664
  165SAPE  H12R18583   1.396   5.023   7.939 -0.3957 -0.9230  1.8679
  165SAPE  C21318584   1.181   5.004   7.948  0.8734 -0.4154  0.0227
  165SAPE  H13R18585   1.132   4.913   7.989 -0.8852  0.4252 -0.1835
  165SAPE  H13S18586   1.123   5.038   7.860  3.3200 -0.0651 -1.5241
  165SAPE  C21418587   1.192   5.118   8.050 -0.1777 -0.3641  0.5362
  165SAPE  H14R18588   1.197   5.216   8.000  0.1508 -0.6891 -0.0750
  165SAPE  C21518589   1.197   5.109   8.185 -0.2645  0.3677 -0.9213
  165SAPE  H15R18590   1.204   5.194   8.254  1.2457  0.2077 -0.8708
  165SAPE  C21618591   1.210   4.982   8.272 -0.1020 -0.3898  0.5862
  165SAPE  H16R18592   1.183   4.887   8.222  0.2655 -0.0400 -0.2722
  165SAPE  H16S18593   1.134   4.994   8.352 -0.6959  0.8197 -0.1420
  165SAPE  C21718594   1.354   4.961   8.335  0.0617 -0.5939  0.9902
  165SAPE  H17R18595   1.374   5.057   8.385 -2.0424  0.0218  0.7017
  165SAPE  H17S18596   1.428   4.954   8.251  0.8225  1.0539  1.5021
  165SAPE  C21818597   1.372   4.836   8.412  0.1341 -0.2412 -0.2026
  165SAPE  H18R18598   1.477   4.814   8.440  0.6686 -2.0795 -3.4485
  165SAPE  H18S18599   1.337   4.749   8.353 -1.2168 -1.1689  1.8928
  165SAPE  C21918600   1.297   4.854   8.544  0.7877 -0.1409 -0.5815
  165SAPE  H19R18601   1.310   4.754   8.590  1.4619  1.0789  1.9102
  165SAPE  H19S18602   1.190   4.870   8.516  0.4724 -2.2823 -0.6809
  165SAPE  C22018603   1.350   4.960   8.637 -0.7911 -0.0225  0.8151
  165SAPE  H20R18604   1.461   4.959   8.639 -0.8097 -1.5290  1.2367
  165SAPE  H20S18605   1.309   4.957   8.740 -1.0108  0.8123  0.7588
  165SAPE  H20T18606   1.317   5.058   8.596 -2.6588  0.2970  2.9980
  165SAPE   C3318607   0.684   5.090   6.911  0.3129 -0.5163 -0.4919
  165SAPE   H3X18608   0.712   5.155   6.826  0.0310  1.5431  0.9595
  165SAPE   H3Y18609   0.781   5.067   6.962  0.2832  0.0236 -0.1886
  165SAPE   C3418610   0.600   5.158   7.017  0.0529  0.2267  0.4446
  165SAPE   H4X18611   0.501   5.181   6.972  0.5487  1.8163  0.1336
  165SAPE   H4Y18612   0.635   5.260   7.046  0.1112  0.4409 -0.3542
  165SAPE   C3518613   0.579   5.068   7.140  0.2497 -0.0735 -0.4698
  165SAPE   H5X18614   0.516   4.981   7.112 -0.5978  0.2873  0.2888
  165SAPE   H5Y18615   0.517   5.118   7.217 -1.3710 -0.9925 -1.1615
  165SAPE   C3618616   0.710   5.026   7.205  0.2546  0.0536  0.6305
  165SAPE   H6X18617   0.766   5.118   7.234  0.4865  0.4403 -1.0069
  165SAPE   H6Y18618   0.763   4.959   7.135  1.3367  0.4417  1.0655
  165SAPE   C3718619   0.713   4.932   7.325 -0.9131  0.7222 -0.0140
  165SAPE   H7X18620   0.818   4.900   7.344 -1.1901  1.4272  2.9264
  165SAPE   H7Y18621   0.650   4.843   7.304  0.5703 -0.6513  1.1904
  165SAPE   C3818622   0.670   5.000   7.453  0.2166 -0.8266  0.5687
  165SAPE   H8X18623   0.559   4.998   7.452  0.1513  1.5652  0.5380
  165SAPE   H8Y18624   0.699   5.107   7.453 -2.4372 -0.0656  0.4085
  165SAPE   C3918625   0.726   4.946   7.593 -0.0548 -0.1588  0.1002
  165SAPE   H9X18626   0.835   4.967   7.582  0.1802 -1.8424 -1.0372
  165SAPE   H9Y18627   0.708   4.837   7.604  0.1808 -0.0427  1.8263
  165SAPE  C31018628   0.673   5.023   7.720  0.8994  0.5243  1.2073
  165SAPE  H10X18629   0.562   5.029   7.713  0.7843 -1.6415  0.7751
  165SAPE  H10Y18630   0.712   5.126   7.704  0.2011  0.5141 -0.6628
  165SAPE  C31118631   0.714   4.971   7.856 -0.0415 -0.4340  0.2631
  165SAPE  H11X18632   0.824   4.987   7.854 -0.0013 -0.6580  0.5578
  165SAPE  H11Y18633   0.684   4.865   7.875  1.9251 -0.8279  1.2634
  165SAPE  C31218634   0.680   5.052   7.982  0.4334  0.1985 -0.0962
  165SAPE  H12X18635   0.571   5.062   8.003  0.6252  2.0990  0.1379
  165SAPE  H12Y18636   0.696   5.155   7.944 -0.9346  0.3883 -0.2072
  165SAPE  C31318637   0.765   5.003   8.099 -0.0247 -0.6812  0.4181
  165SAPE  H13X18638   0.865   5.046   8.078 -1.6568  2.9661 -0.3216
  165SAPE  H13Y18639   0.773   4.892   8.101 -3.3994 -0.9596  2.2036
  165SAPE  C31418640   0.710   5.058   8.229 -0.2070 -0.2629  0.5940
  165SAPE  H14X18641   0.600   5.045   8.225 -0.0900 -1.8216  1.5465
  165SAPE  H14Y18642   0.735   5.166   8.225  2.3507 -0.7251  2.2073
  165SAPE  C31518643   0.770   4.996   8.355 -0.2382 -0.6390 -0.5715
  165SAPE  H15X18644   0.881   5.008   8.362 -0.1915 -1.5944  0.5085
  165SAPE  H15Y18645   0.763   4.885   8.349  0.2906 -0.7183  0.2075
  165SAPE  C31618646   0.709   5.028   8.490  0.1664  0.6497  0.0880
  165SAPE  H16X18647   0.598   5.026   8.486  0.1809  0.9980 -0.7385
  165SAPE  H16Y18648   0.737   5.132   8.517  2.1764  0.3884 -0.8935
  165SAPE  C31718649   0.760   4.934   8.606  0.4457 -0.4154  0.0533
  165SAPE  H17X18650   0.871   4.946   8.604  0.5211 -0.7320  1.6693
  165SAPE  H17Y18651   0.749   4.825   8.587  3.2783 -0.8058  0.3586
  165SAPE  C31818652   0.691   4.968   8.738 -0.2255  0.4812 -0.1412
  165SAPE  H18X18653   0.738   5.050   8.798 -1.6588  0.9897  0.3099
  165SAPE  H18Y18654   0.700   4.875   8.797  0.8941  0.9063  0.3726
  165SAPE  H18Z18655   0.586   5.000   8.724 -0.0695  0.4470 -1.4247
  166SAPE     N18656   6.696   2.078   5.884 -0.2247 -0.2743  0.0878
  166SAPE   HN118657   6.780   2.082   5.946 -0.5716 -0.4684  0.5820
  166SAPE   HN218658   6.730   2.118   5.795  2.8883 -0.2622  1.2305
  166SAPE   HN318659   6.626   2.140   5.930  1.8904  1.4836  1.0152
  166SAPE   C1218660   6.660   1.929   5.884  0.1599 -0.7591  0.1595
  166SAPE  H12A18661   6.641   1.903   5.991 -0.4697  1.3501  0.5908
  166SAPE  H12B18662   6.743   1.872   5.837 -1.1503 -1.5723 -1.1957
  166SAPE   C1118663   6.525   1.909   5.808  0.1045  0.1131  0.0077
  166SAPE  H11A18664   6.558   1.922   5.702 -1.6250  0.8002 -0.4557
  166SAPE  H11B18665   6.457   1.995   5.828 -0.4339 -0.3658  0.2172
  166SAPE     P18666   6.344   1.722   5.776  0.2194  0.2882  0.4589
  166SAPE   O1318667   6.252   1.836   5.803  0.0892  0.1738 -0.9819
  166SAPE   O1418668   6.370   1.684   5.637  0.2639 -0.7699 -0.3748
  166SAPE   O1218669   6.480   1.774   5.839 -0.4162 -0.4897 -0.1511
  166SAPE   O1118670   6.309   1.595   5.861  0.4568 -0.2552  0.3493
  166SAPE    C118671   6.402   1.481   5.865  0.1012 -1.0389 -0.0258
  166SAPE    HA18672   6.363   1.403   5.796 -0.8256  1.0033 -1.9051
  166SAPE    HB18673   6.510   1.501   5.851  0.0163  0.1031  0.8440
  166SAPE    C218674   6.405   1.434   6.011 -0.2045  0.9175 -0.3928
  166SAPE    HS18675   6.300   1.412   6.042 -0.1081 -0.8023 -1.2316
  166SAPE   O2118676   6.478   1.523   6.105 -0.1174 -0.0255 -0.1710
  166SAPE   C2118677   6.406   1.615   6.162  1.3246 -0.3103 -0.6607
  166SAPE   O2218678   6.285   1.627   6.161 -0.2368  0.1340 -0.1145
  166SAPE   C2218679   6.491   1.706   6.246 -0.8144  0.3634 -0.0050
  166SAPE   H2R18680   6.570   1.642   6.291  1.3970  2.5999 -0.5376
  166SAPE   H2S18681   6.541   1.777   6.176 -0.5254  2.1213  1.9151
  166SAPE    C318682   6.480   1.297   6.023 -0.7517  0.4684 -0.0424
  166SAPE    HX18683   6.578   1.301   5.970 -0.5140 -2.3105  0.1089
  166SAPE    HY18684   6.408   1.239   5.962  0.0262 -0.3588 -0.1877
  166SAPE   O3118685   6.484   1.255   6.164 -0.6216 -0.7994 -0.3446
  166SAPE   C3118686   6.600   1.272   6.220 -0.4134  0.1539 -0.1212
  166SAPE   O3218687   6.705   1.321   6.165  0.1143 -0.2486  0.6378
  166SAPE   C3218688   6.601   1.219   6.364 -0.1443  0.0845 -0.2091
  166SAPE   H2X18689   6.707   1.203   6.392 -0.0927 -0.7132 -0.8335
  166SAPE   H2Y18690   6.548   1.121   6.362 -1.2964  0.6458  2.1122
  166SAPE   C2318691   6.406   1.786   6.340 -0.4675  0.9116 -0.1050
  166SAPE   H3R18692   6.351   1.710   6.399 -0.2004  1.6625  1.1310
  166SAPE   H3S18693   6.333   1.846   6.282  0.4845  1.7571 -0.4630
  166SAPE   C2418694   6.498   1.868   6.432  0.4210  0.5154  0.3142
  166SAPE   H4R18695   6.564   1.926   6.363 -0.8876  1.0264 -0.5252
  166SAPE   H4S18696   6.553   1.800   6.501  1.2016 -0.2018 -0.9851
  166SAPE   C2518697   6.424   1.969   6.509  0.0122  0.5720 -0.2208
  166SAPE   H5R18698   6.405   2.061   6.452 -0.1218  0.2334 -0.7269
  166SAPE   C2618699   6.387   1.970   6.640  0.2652  0.0698  0.9094
  166SAPE   H6R18700   6.323   2.054   6.672  0.5763  1.3520 -1.7289
  166SAPE   C2718701   6.414   1.849   6.733  0.4037  0.8592 -0.1981
  166SAPE   H7R18702   6.475   1.767   6.690  0.7402  0.6209  0.7264
  166SAPE   H7S18703   6.323   1.796   6.769  0.5156  0.2383 -0.8307
  166SAPE   C2818704   6.500   1.914   6.843 -0.3482  0.3252  0.0826
  166SAPE   H8R18705   6.598   1.956   6.817  0.9276 -1.9542  1.0689
  166SAPE   C2918706   6.461   1.933   6.973 -0.3073 -0.2734  0.1849
  166SAPE   H9R18707   6.537   1.982   7.034  0.1121 -0.6395 -0.0409
  166SAPE  C21018708   6.335   1.889   7.041 -0.1520 -0.6934 -0.1987
  166SAPE  H10R18709   6.362   1.801   7.104 -0.7236 -1.5192 -1.0800
  166SAPE  H10S18710   6.257   1.855   6.969 -3.5584 -1.0366  3.4507
  166SAPE  C21118711   6.286   2.008   7.115 -0.1561 -1.0650  0.1344
  166SAPE  H11R18712   6.229   2.082   7.056 -0.2849 -2.8469 -2.0446
  166SAPE  C21218713   6.302   2.026   7.249  0.0156  0.1472 -0.3702
  166SAPE  H12R18714   6.268   2.118   7.299  0.6871  0.3355 -0.2496
  166SAPE  C21318715   6.367   1.935   7.348 -1.3880  0.3765 -0.3438
  166SAPE  H13R18716   6.432   2.000   7.411 -0.2651  1.4228 -2.5169
  166SAPE  H13S18717   6.429   1.863   7.291 -0.3159  0.5310  0.6092
  166SAPE  C21418718   6.283   1.836   7.422  0.1556  0.0890  0.0133
  166SAPE  H14R18719   6.260   1.742   7.368  0.7450 -0.1678  0.2072
  166SAPE  C21518720   6.213   1.858   7.535  0.7188 -0.3392  0.1753
  166SAPE  H15R18721   6.172   1.768   7.581 -0.9854  0.2343 -0.1867
  166SAPE  C21618722   6.203   1.991   7.616  0.5638  0.2789  0.5956
  166SAPE  H16R18723   6.102   2.032   7.596  0.6487 -0.2593 -1.0034
  166SAPE  H16S18724   6.272   2.070   7.578 -1.2058  1.0733 -1.0578
  166SAPE  C21718725   6.223   1.978   7.776 -0.0589 -0.4332  0.2985
  166SAPE  H17R18726   6.163   1.890   7.806 -1.2037 -0.3533 -1.7080
  166SAPE  H17S18727   6.190   2.070   7.830  0.5657  0.4052 -0.7330
  166SAPE  C21818728   6.374   1.949   7.812 -0.0810 -0.0469  0.1673
  166SAPE  H18R18729   6.436   2.036   7.781  1.6477 -1.9785 -1.8807
  166SAPE  H18S18730   6.394   1.860   7.750  0.4452  0.8661 -0.9986
  166SAPE  C21918731   6.389   1.912   7.958 -0.9649 -0.8309 -0.1061
  166SAPE  H19R18732   6.292   1.881   8.001 -0.3193  0.1692  2.1349
  166SAPE  H19S18733   6.417   2.009   8.005 -0.2868 -0.2414 -1.6756
  166SAPE  C22018734   6.495   1.818   8.005  0.4655  0.4122 -0.6720
  166SAPE  H20R18735   6.479   1.798   8.113  3.1138 -0.1390 -0.3353
  166SAPE  H20S18736   6.599   1.851   7.984 -0.1490  4.2344  1.8856
  166SAPE  H20T18737   6.489   1.717   7.957  1.4833  0.8872 -1.8172
  166SAPE   C3318738   6.532   1.317   6.457  0.5289  0.3143  0.6150
  166SAPE   H3X18739   6.461   1.371   6.391 -1.8679 -2.2567  0.9717
  166SAPE   H3Y18740   6.610   1.379   6.505 -0.6775  2.2208  0.1388
  166SAPE   C3418741   6.440   1.261   6.563  0.5402 -0.0745 -0.2047
  166SAPE   H4X18742   6.497   1.181   6.617 -1.0127 -1.0294  0.0551
  166SAPE   H4Y18743   6.358   1.204   6.515  1.2160 -0.9423 -0.3553
  166SAPE   C3518744   6.398   1.368   6.664  0.3265  0.0986 -0.1355
  166SAPE   H5X18745   6.322   1.440   6.627 -1.6445 -0.6439  2.2841
  166SAPE   H5Y18746   6.489   1.430   6.680 -0.2660  0.9879 -0.2057
  166SAPE   C3618747   6.336   1.320   6.799 -0.0944 -0.6306 -0.3143
  166SAPE   H6X18748   6.409   1.257   6.854 -0.5442  0.8786  2.0861
  166SAPE   H6Y18749   6.252   1.252   6.772 -1.5065  0.4012  1.2942
  166SAPE   C3718750   6.277   1.441   6.880 -0.4836 -0.4619  0.4785
  166SAPE   H7X18751   6.200   1.494   6.820 -0.7900 -2.1879 -0.6849
  166SAPE   H7Y18752   6.366   1.504   6.900  0.4521 -1.5544 -0.2064
  166SAPE   C3818753   6.197   1.396   7.002 -0.1259 -0.2331  1.2535
  166SAPE   H8X18754   6.269   1.355   7.077 -1.1999  0.5410  2.7348
  166SAPE   H8Y18755   6.118   1.326   6.969  1.6286 -0.7890 -2.0080
  166SAPE   C3918756   6.130   1.513   7.083  0.4075  0.0300 -0.7342
  166SAPE   H9X18757   6.082   1.568   7.000  3.1851  2.9761 -0.5268
  166SAPE   H9Y18758   6.205   1.588   7.118 -0.7738  0.4761  0.9142
  166SAPE  C31018759   6.050   1.460   7.197  0.6015 -0.6717 -0.4585
  166SAPE  H10X18760   6.008   1.360   7.174 -0.0004 -0.3893 -0.5799
  166SAPE  H10Y18761   5.960   1.524   7.206  0.8745 -0.4411  0.8117
  166SAPE  C31118762   6.136   1.459   7.328 -0.1174  0.7145 -0.0204
  166SAPE  H11X18763   6.166   1.558   7.367  0.3773  0.0632  1.2635
  166SAPE  H11Y18764   6.232   1.406   7.314  0.5468  1.6170  1.1089
  166SAPE  C31218765   6.070   1.392   7.442 -0.0478 -0.1091  0.3010
  166SAPE  H12X18766   6.036   1.294   7.401 -2.1299  1.2787 -1.4200
  166SAPE  H12Y18767   5.984   1.458   7.466 -0.2941 -0.2442 -0.1862
  166SAPE  C31318768   6.160   1.360   7.567 -0.7027  0.4796  1.1342
  166SAPE  H13X18769   6.261   1.361   7.520 -0.5838  0.9344  1.4015
  166SAPE  H13Y18770   6.137   1.258   7.604 -0.9346  0.6589  1.4921
  166SAPE  C31418771   6.156   1.468   7.676  0.5189  0.0156 -0.4203
  166SAPE  H14X18772   6.057   1.455   7.726  0.7168 -2.5534 -0.6661
  166SAPE  H14Y18773   6.145   1.568   7.629 -1.0749  0.3771  0.6661
  166SAPE  C31518774   6.277   1.473   7.772  0.0587 -0.2297  0.4738
  166SAPE  H15X18775   6.266   1.561   7.839  1.0192  1.0621 -1.0402
  166SAPE  H15Y18776   6.370   1.493   7.714  2.2510 -1.2163  3.5568
  166SAPE  C31618777   6.303   1.345   7.859  0.1484  0.0797  0.1073
  166SAPE  H16X18778   6.347   1.273   7.786 -0.6243  0.0711 -0.3514
  166SAPE  H16Y18779   6.209   1.305   7.901  0.2549  0.7582  1.0049
  166SAPE  C31718780   6.395   1.363   7.980  0.7367  0.1390 -0.3132
  166SAPE  H17X18781   6.404   1.266   8.032 -2.0975  0.4323  0.8065
  166SAPE  H17Y18782   6.355   1.439   8.051  1.2045 -0.0491  0.1490
  166SAPE  C31818783   6.543   1.393   7.945 -0.8241 -0.2256 -0.3324
  166SAPE  H18X18784   6.544   1.491   7.893  1.5601  0.5289  1.0654
  166SAPE  H18Y18785   6.597   1.308   7.899 -0.3535  0.4762 -1.0833
  166SAPE  H18Z18786   6.598   1.412   8.040 -0.1372 -3.1523 -0.1100
  167SAPE     N18787   1.180   1.796   6.324 -0.0037  0.1418 -0.5677
  167SAPE   HN118788   1.245   1.716   6.338  0.9532  0.8655 -0.8480
  167SAPE   HN218789   1.169   1.814   6.222 -0.9314  3.7681  0.1083
  167SAPE   HN318790   1.227   1.873   6.375  0.9363 -0.0231 -1.1865
  167SAPE   C1218791   1.052   1.750   6.387 -0.0420 -0.6634 -0.4270
  167SAPE  H12A18792   0.980   1.825   6.348 -3.1610 -3.3030 -0.0089
  167SAPE  H12B18793   1.053   1.770   6.497 -2.1673 -0.0790 -0.4979
  167SAPE   C1118794   1.011   1.611   6.363  0.0352 -0.6877 -0.6238
  167SAPE  H11A18795   0.903   1.610   6.389  0.1164  1.2966 -0.1275
  167SAPE  H11B18796   1.059   1.548   6.441  0.1635 -1.9088 -1.6668
  167SAPE     P18797   0.957   1.437   6.180  0.0302 -0.0813  0.4530
  167SAPE   O1318798   0.813   1.432   6.212  0.2445 -0.0430  0.7738
  167SAPE   O1418799   0.999   1.416   6.039  0.7619  0.3042  0.4028
  167SAPE   O1218800   1.022   1.572   6.223 -0.2522 -0.3953 -0.5260
  167SAPE   O1118801   1.030   1.335   6.278 -0.2061  0.0236 -0.3273
  167SAPE    C118802   0.956   1.220   6.333  0.0895 -0.0353 -0.3182
  167SAPE    HA18803   0.916   1.160   6.248 -1.2253  0.9996 -0.4413
  167SAPE    HB18804   1.033   1.152   6.376  0.6600  0.9284  0.1830
  167SAPE    C218805   0.856   1.263   6.439  0.2504 -0.1572 -0.9128
  167SAPE    HS18806   0.767   1.310   6.392 -0.1652 -0.9614 -0.9416
  167SAPE   O2118807   0.920   1.353   6.535  0.3792 -0.2975 -0.0284
  167SAPE   C2118808   0.846   1.440   6.586 -0.5691  0.1933 -0.3021
  167SAPE   O2218809   0.734   1.468   6.544  0.4590  0.3166 -0.5093
  167SAPE   C2218810   0.920   1.517   6.698 -0.3440  0.3552 -0.4450
  167SAPE   H2R18811   0.947   1.618   6.661  0.9237 -0.7239 -2.5303
  167SAPE   H2S18812   0.851   1.535   6.784 -1.1720  1.1648 -1.2651
  167SAPE    C318813   0.795   1.140   6.503 -0.1041 -0.2130  0.3850
  167SAPE    HX18814   0.757   1.073   6.423  1.4316 -0.5558 -0.0662
  167SAPE    HY18815   0.707   1.166   6.566 -1.3877  0.9187 -1.8304
  167SAPE   O3118816   0.889   1.056   6.570  0.4038  0.0417 -0.8272
  167SAPE   C3118817   0.922   1.105   6.695  0.8304  0.1156 -0.1428
  167SAPE   O3218818   0.849   1.181   6.753 -0.5695 -0.4082  0.3602
  167SAPE   C3218819   1.057   1.043   6.728  0.7187 -0.5936  0.0871
  167SAPE   H2X18820   1.124   1.059   6.641 -1.1610 -0.8657 -1.4192
  167SAPE   H2Y18821   1.050   0.932   6.719  0.7313 -0.5107 -1.0035
  167SAPE   C2318822   1.056   1.452   6.759 -0.0687 -1.1641 -0.6005
  167SAPE   H3R18823   1.124   1.443   6.671 -1.1629 -0.0800 -1.5841
  167SAPE   H3S18824   1.034   1.351   6.798 -3.0624 -0.8634 -1.3510
  167SAPE   C2418825   1.106   1.539   6.872 -0.4951  0.4618  0.5469
  167SAPE   H4R18826   1.033   1.540   6.955  2.0214 -0.9853  2.8538
  167SAPE   H4S18827   1.097   1.643   6.833 -0.3710  0.4237  0.4187
  167SAPE   C2518828   1.246   1.516   6.921  0.9767  0.1625  0.5620
  167SAPE   H5R18829   1.306   1.470   6.841  1.1346  0.0967  0.7166
  167SAPE   C2618830   1.291   1.523   7.049  0.3727 -0.1403  0.9824
  167SAPE   H6R18831   1.400   1.523   7.063  0.8850  0.7075 -2.4515
  167SAPE   C2718832   1.209   1.558   7.171  0.2544  0.4875  0.4649
  167SAPE   H7R18833   1.162   1.464   7.207  0.4482  1.0885  2.3627
  167SAPE   H7S18834   1.123   1.617   7.131  0.9218 -0.0953 -1.9063
  167SAPE   C2818835   1.277   1.629   7.288 -0.1281  0.3225  0.0515
  167SAPE   H8R18836   1.368   1.690   7.275 -0.3645  1.0936  1.7825
  167SAPE   C2918837   1.232   1.618   7.416 -0.9745 -0.8930  0.2093
  167SAPE   H9R18838   1.283   1.678   7.493  1.3030 -0.8808 -1.2698
  167SAPE  C21018839   1.122   1.532   7.465  0.2263  0.2669 -0.4619
  167SAPE  H10R18840   1.150   1.436   7.514  0.3256 -0.0075 -1.0494
  167SAPE  H10S18841   1.057   1.499   7.382  0.7252 -0.6047 -0.5052
  167SAPE  C21118842   1.029   1.613   7.556 -0.1580 -0.9065  0.2493
  167SAPE  H11R18843   0.951   1.671   7.506  0.5403 -0.3000 -0.1547
  167SAPE  C21218844   1.028   1.611   7.695  0.5420 -0.7969  0.1611
  167SAPE  H12R18845   0.961   1.677   7.752  0.4314  1.0418 -2.0372
  167SAPE  C21318846   1.128   1.534   7.777 -0.3490  0.1984  0.1544
  167SAPE  H13R18847   1.118   1.574   7.880  0.0257 -0.4499  0.4468
  167SAPE  H13S18848   1.233   1.541   7.742  0.8753 -2.5386  3.0223
  167SAPE  C21418849   1.092   1.388   7.775 -0.0891 -0.1059  0.2826
  167SAPE  H14R18850   1.113   1.330   7.683  0.9040 -0.2292  0.5785
  167SAPE  C21518851   1.021   1.325   7.876 -0.3524 -0.8593  0.4411
  167SAPE  H15R18852   1.004   1.216   7.869 -0.9712 -0.8514  1.6668
  167SAPE  C21618853   0.970   1.391   8.000 -0.1783 -0.2152  0.4929
  167SAPE  H16R18854   0.872   1.346   8.025 -1.4889  2.2255 -0.0842
  167SAPE  H16S18855   0.964   1.502   7.992  1.1141 -0.2112 -0.5682
  167SAPE  C21718856   1.050   1.350   8.126 -0.4036  0.0155 -0.3139
  167SAPE  H17R18857   1.150   1.397   8.114  0.1124 -0.1511  2.9959
  167SAPE  H17S18858   1.068   1.242   8.144  1.2992  0.3517  0.1474
  167SAPE  C21818859   1.002   1.414   8.254  0.3599 -0.0842 -0.5593
  167SAPE  H18R18860   0.902   1.369   8.275  0.5134  0.7362  2.1573
  167SAPE  H18S18861   0.982   1.523   8.253  0.0276 -0.1247  0.9553
  167SAPE  C21918862   1.092   1.380   8.380  1.5247 -0.4595 -0.3155
  167SAPE  H19R18863   1.195   1.397   8.343  1.5326  0.7893  0.2496
  167SAPE  H19S18864   1.080   1.272   8.404  0.6754 -0.0104  1.3447
  167SAPE  C22018865   1.069   1.478   8.501 -0.0045  0.0387 -0.5671
  167SAPE  H20R18866   1.152   1.458   8.572  0.4482  3.2640 -0.1211
  167SAPE  H20S18867   0.972   1.457   8.551  0.1576  2.6847  0.9360
  167SAPE  H20T18868   1.072   1.582   8.464  0.1424 -0.1369 -1.0554
  167SAPE   C3318869   1.114   1.078   6.859  0.4811 -0.5573  0.6058
  167SAPE   H3X18870   1.038   1.058   6.939 -0.1526  1.2225  0.4720
  167SAPE   H3Y18871   1.140   1.186   6.867 -0.4191 -0.4105  1.7207
  167SAPE   C3418872   1.242   0.993   6.899 -0.1822 -0.3254 -0.0358
  167SAPE   H4X18873   1.332   1.020   6.840 -0.5927 -0.3645 -0.6874
  167SAPE   H4Y18874   1.217   0.885   6.889 -0.5494 -0.0650 -2.3209
  167SAPE   C3518875   1.280   1.002   7.052 -0.7677 -0.0678 -0.2462
  167SAPE   H5X18876   1.367   0.934   7.066 -1.3171 -0.8970 -0.8204
  167SAPE   H5Y18877   1.197   0.963   7.115  0.1291 -1.4150  0.1327
  167SAPE   C3618878   1.315   1.141   7.112  0.1616 -0.2586 -0.3435
  167SAPE   H6X18879   1.216   1.192   7.119 -0.5455 -1.3701 -2.0367
  167SAPE   H6Y18880   1.381   1.198   7.043  2.0807 -0.3227  1.3953
  167SAPE   C3718881   1.377   1.135   7.253  0.3056  0.1789 -0.1189
  167SAPE   H7X18882   1.395   1.242   7.278  1.3312 -0.2772  1.1300
  167SAPE   H7Y18883   1.471   1.077   7.243 -0.9768 -1.6991 -1.8188
  167SAPE   C3818884   1.287   1.077   7.368  0.4515 -0.3033  0.8431
  167SAPE   H8X18885   1.255   0.977   7.331  0.5043 -0.4218  1.1094
  167SAPE   H8Y18886   1.205   1.149   7.389  0.1019 -1.0297  2.0594
  167SAPE   C3918887   1.345   1.073   7.510  0.1857 -0.4137  0.4153
  167SAPE   H9X18888   1.389   1.170   7.541  1.6983 -0.9298 -0.0269
  167SAPE   H9Y18889   1.437   1.010   7.516  0.2063 -0.2417  2.1777
  167SAPE  C31018890   1.241   1.026   7.612  0.2728 -0.4255  0.5317
  167SAPE  H10X18891   1.212   0.921   7.590 -2.3191  0.6693 -1.5182
  167SAPE  H10Y18892   1.148   1.086   7.605 -0.3553 -1.1469  2.4473
  167SAPE  C31118893   1.307   1.022   7.751 -0.0598 -0.2384 -0.5545
  167SAPE  H11X18894   1.350   1.118   7.786 -0.3236 -0.0110 -0.8643
  167SAPE  H11Y18895   1.402   0.964   7.741 -0.8377 -1.9890  1.6195
  167SAPE  C31218896   1.221   0.962   7.869 -0.2630 -0.3272 -0.2502
  167SAPE  H12X18897   1.219   0.851   7.866 -0.6352 -0.3663  1.3896
  167SAPE  H12Y18898   1.117   0.993   7.846 -0.7343 -1.0300  0.9041
  167SAPE  C31318899   1.273   0.998   8.004 -0.2658  0.4557 -0.7116
  167SAPE  H13X18900   1.263   1.108   8.014 -0.1495  0.4654 -0.7039
  167SAPE  H13Y18901   1.382   0.980   8.005 -0.0324  1.3789 -3.5978
  167SAPE  C31418902   1.193   0.940   8.120  0.3874 -0.0431  0.2110
  167SAPE  H14X18903   1.197   0.829   8.124 -0.6209 -0.1103 -0.3007
  167SAPE  H14Y18904   1.087   0.968   8.101  0.8701  1.0937 -0.8811
  167SAPE  C31518905   1.232   1.004   8.253  0.2114  0.0364  0.7796
  167SAPE  H15X18906   1.189   1.106   8.248  1.8115  0.8086  2.1373
  167SAPE  H15Y18907   1.340   1.030   8.264  0.3050 -0.3780  0.8324
  167SAPE  C31618908   1.172   0.932   8.378 -0.5786  0.4980  0.5763
  167SAPE  H16X18909   1.201   0.825   8.379  0.5570  0.7927 -0.3603
  167SAPE  H16Y18910   1.061   0.937   8.367 -0.3513  1.3910 -1.4429
  167SAPE  C31718911   1.228   0.994   8.513  0.0449  0.1648  0.4462
  167SAPE  H17X18912   1.246   1.102   8.492 -3.2949  0.9837  1.5304
  167SAPE  H17Y18913   1.320   0.938   8.544  0.2503 -0.9861 -2.1245
  167SAPE  C31818914   1.129   0.974   8.626  0.2321  0.0821 -0.3159
  167SAPE  H18X18915   1.032   1.028   8.632  0.4311  0.2968  1.1013
  167SAPE  H18Y18916   1.188   1.006   8.715 -1.0410  0.7078  0.3141
  167SAPE  H18Z18917   1.106   0.866   8.632 -0.2123  0.2617  1.9347
  168SAPE     N18918   2.622   1.804   6.182 -0.1975 -0.2619 -0.0283
  168SAPE   HN118919   2.534   1.749   6.178  0.9651 -2.1279 -0.7878
  168SAPE   HN218920   2.606   1.891   6.127 -0.8879  0.4481  1.2662
  168SAPE   HN318921   2.703   1.747   6.150 -0.4332 -1.1960  1.0218
  168SAPE   C1218922   2.630   1.843   6.331  0.9161  0.5014  0.0106
  168SAPE  H12A18923   2.732   1.882   6.353  0.2271  2.2983  0.0459
  168SAPE  H12B18924   2.594   1.766   6.401  0.0225  0.6461 -0.2897
  168SAPE   C1118925   2.526   1.961   6.349 -0.6871  0.0228 -0.5079
  168SAPE  H11A18926   2.501   1.972   6.457 -0.3888 -1.8270 -0.2287
  168SAPE  H11B18927   2.433   1.941   6.292 -2.2637  1.8529  1.3244
  168SAPE     P18928   2.513   2.220   6.309 -0.3770  0.2674  0.1033
  168SAPE   O1318929   2.513   2.296   6.183 -0.0585 -0.3841  0.3302
  168SAPE   O1418930   2.378   2.211   6.375 -0.2450 -0.2500 -0.2530
  168SAPE   O1218931   2.582   2.080   6.291  0.1046  0.1939 -0.1168
  168SAPE   O1118932   2.606   2.286   6.411  0.2100  0.0521 -1.1586
  168SAPE    C118933   2.715   2.213   6.478 -0.1591  0.0892 -0.1106
  168SAPE    HA18934   2.667   2.127   6.529  0.9464  0.7775  2.1285
  168SAPE    HB18935   2.790   2.183   6.402 -1.4101  0.8269 -1.6787
  168SAPE    C218936   2.779   2.308   6.591  0.5280  0.4236  0.0830
  168SAPE    HS18937   2.850   2.251   6.654  0.1130  0.8197  0.9146
  168SAPE   O2118938   2.674   2.379   6.660  0.0384  0.0268  0.4675
  168SAPE   C2118939   2.621   2.316   6.767  0.8214  0.5600  0.1221
  168SAPE   O2218940   2.643   2.201   6.800  0.1625  0.4785 -0.0445
  168SAPE   C2218941   2.534   2.415   6.841 -0.0076 -0.0023 -0.0374
  168SAPE   H2R18942   2.592   2.509   6.828 -1.5256  0.6736 -2.2287
  168SAPE   H2S18943   2.440   2.428   6.783 -1.3683  0.3730  2.1697
  168SAPE    C318944   2.868   2.409   6.529 -0.0739  0.2990  0.2194
  168SAPE    HX18945   2.816   2.459   6.445 -2.7412 -1.6797  0.6287
  168SAPE    HY18946   2.956   2.356   6.487 -0.6010  1.9314 -3.1041
  168SAPE   O3118947   2.919   2.495   6.636  0.1192 -0.2277  0.0626
  168SAPE   C3118948   2.858   2.613   6.642 -0.0238  0.0526 -0.0593
  168SAPE   O3218949   2.774   2.649   6.561 -0.2992  0.1269 -0.0138
  168SAPE   C3218950   2.907   2.686   6.768  0.2057 -0.4363  0.3826
  168SAPE   H2X18951   3.007   2.642   6.788 -0.0279 -1.4245 -0.6478
  168SAPE   H2Y18952   2.842   2.657   6.854  0.5740 -1.4500  0.3167
  168SAPE   C2318953   2.506   2.360   6.981  0.8592 -0.6338  0.7864
  168SAPE   H3R18954   2.599   2.312   7.020  0.1867 -2.9839 -0.4253
  168SAPE   H3S18955   2.421   2.289   6.976  0.7273 -0.4944  1.0761
  168SAPE   C2418956   2.484   2.469   7.078  0.7395 -0.3573 -0.5185
  168SAPE   H4R18957   2.458   2.411   7.170 -1.7477 -2.5628 -2.5327
  168SAPE   H4S18958   2.391   2.520   7.046 -0.0097 -1.3470  0.0378
  168SAPE   C2518959   2.595   2.562   7.109 -0.1536 -0.1558 -0.2814
  168SAPE   H5R18960   2.625   2.632   7.029  2.0101 -0.5176  0.1851
  168SAPE   C2618961   2.660   2.580   7.226 -0.5806 -0.0446  0.5899
  168SAPE   H6R18962   2.750   2.642   7.214 -1.3589  0.7437 -1.1702
  168SAPE   C2718963   2.655   2.498   7.350 -0.0799  0.1548  0.3603
  168SAPE   H7R18964   2.748   2.511   7.409  3.2352 -4.7694 -3.4040
  168SAPE   H7S18965   2.660   2.392   7.317  0.6993  0.1710  0.4225
  168SAPE   C2818966   2.528   2.518   7.436  0.4751 -0.1920 -0.6941
  168SAPE   H8R18967   2.446   2.561   7.377  0.7321 -0.8608 -1.5449
  168SAPE   C2918968   2.501   2.486   7.560 -0.4107  0.2034 -0.0721
  168SAPE   H9R18969   2.408   2.518   7.609  0.9422  1.2381  1.8826
  168SAPE  C21018970   2.579   2.420   7.670 -0.3412  0.7618  0.1847
  168SAPE  H10R18971   2.678   2.389   7.630 -0.2712 -1.4634  1.9734
  168SAPE  H10S18972   2.524   2.327   7.696 -1.0608  0.9472 -0.6513
  168SAPE  C21118973   2.601   2.504   7.794 -0.1761 -0.0209  0.4511
  168SAPE  H11R18974   2.522   2.577   7.818 -1.2905 -1.2168  0.4339
  168SAPE  C21218975   2.704   2.486   7.877 -0.2349 -0.3335  0.6084
  168SAPE  H12R18976   2.701   2.544   7.970 -2.3770  0.5202  0.0432
  168SAPE  C21318977   2.809   2.389   7.865 -0.0463 -0.1533 -0.6334
  168SAPE  H13R18978   2.860   2.407   7.768  0.1730 -0.1958 -0.5245
  168SAPE  H13S18979   2.768   2.286   7.859 -1.4592  0.0624  3.6633
  168SAPE  C21418980   2.919   2.399   7.971 -0.5553 -0.7668 -0.3045
  168SAPE  H14R18981   2.981   2.489   7.961 -1.9465  0.3319  0.7232
  168SAPE  C21518982   2.935   2.319   8.077 -0.1002  0.6144  0.2426
  168SAPE  H15R18983   3.028   2.323   8.136 -0.4110 -0.0770  0.7868
  168SAPE  C21618984   2.839   2.201   8.113 -0.2943  0.3561 -0.5324
  168SAPE  H16R18985   2.876   2.099   8.090 -0.6917 -0.5039  2.4054
  168SAPE  H16S18986   2.739   2.222   8.069  0.3651  3.8295 -0.5829
  168SAPE  C21718987   2.811   2.202   8.264 -0.5038  0.2650  0.8130
  168SAPE  H17R18988   2.733   2.128   8.293  1.7184 -1.2494  3.1215
  168SAPE  H17S18989   2.767   2.295   8.305  0.6188  1.9092 -1.5987
  168SAPE  C21818990   2.944   2.155   8.335  0.7921 -0.6268 -0.1645
  168SAPE  H18R18991   3.015   2.240   8.342 -1.7735  1.5204  0.7211
  168SAPE  H18S18992   2.996   2.079   8.273 -0.7319 -0.7634 -1.3154
  168SAPE  C21918993   2.915   2.098   8.475  0.0370  0.5303  0.1952
  168SAPE  H19R18994   3.010   2.062   8.521 -0.4906 -1.6004 -0.3579
  168SAPE  H19S18995   2.844   2.013   8.479 -0.4073  0.9272  0.8155
  168SAPE  C22018996   2.861   2.211   8.560  0.0598  0.0613 -0.8436
  168SAPE  H20R18997   2.931   2.296   8.550  0.8958 -0.6816 -1.3662
  168SAPE  H20S18998   2.858   2.187   8.668  0.8935 -2.5434 -1.3542
  168SAPE  H20T18999   2.759   2.245   8.531 -0.5717 -0.8106  0.3146
  168SAPE   C3319000   2.919   2.839   6.753  0.1330 -0.0697 -0.4544
  168SAPE   H3X19001   2.822   2.883   6.722  0.7609  0.2519 -2.0007
  168SAPE   H3Y19002   3.002   2.878   6.690  0.0297  0.3658 -0.3268
  168SAPE   C3419003   2.943   2.918   6.888 -0.2580 -0.4632 -0.5637
  168SAPE   H4X19004   2.870   2.879   6.962  1.3908 -0.1570  1.2700
  168SAPE   H4Y19005   2.914   3.025   6.879 -1.3884 -0.7985 -0.9630
  168SAPE   C3519006   3.088   2.913   6.939 -0.7525  0.5741  0.7092
  168SAPE   H5X19007   3.149   2.980   6.875 -2.8518  0.9473 -0.9823
  168SAPE   H5Y19008   3.128   2.811   6.918 -0.5247  0.8186 -0.0647
  168SAPE   C3619009   3.105   2.958   7.085  0.4515  0.3504  0.3644
  168SAPE   H6X19010   3.052   3.055   7.093  1.4068  0.8230  1.1335
  168SAPE   H6Y19011   3.204   2.976   7.134  1.1006 -1.3795 -0.2522
  168SAPE   C3719012   3.044   2.866   7.194 -0.1004  0.6690  0.5604
  168SAPE   H7X19013   3.093   2.767   7.201 -0.8640  0.1831 -0.7339
  168SAPE   H7Y19014   2.941   2.840   7.161  0.6189  0.1403 -1.3763
  168SAPE   C3819015   3.043   2.937   7.332 -0.5874 -0.0323  0.4781
  168SAPE   H8X19016   3.028   3.046   7.313  1.7167  0.0709 -0.9386
  168SAPE   H8Y19017   3.147   2.920   7.366  0.3592 -0.0517 -2.2944
  168SAPE   C3919018   2.951   2.878   7.445 -0.2843  0.9655  0.1096
  168SAPE   H9X19019   2.974   2.770   7.447 -0.1256  1.0139  1.6064
  168SAPE   H9Y19020   2.846   2.896   7.414 -0.2804  0.1163 -0.3884
  168SAPE  C31019021   2.972   2.942   7.586  0.2440 -0.4688  0.5913
  168SAPE  H10X19022   2.900   3.027   7.580  1.3429  0.3173 -1.8702
  168SAPE  H10Y19023   3.078   2.975   7.589  0.0040  0.2847  0.9216
  168SAPE  C31119024   2.922   2.841   7.692 -0.3623  0.3377 -0.0865
  168SAPE  H11X19025   3.002   2.764   7.704  1.7770  2.1624 -2.1788
  168SAPE  H11Y19026   2.826   2.794   7.665 -1.6864  2.4238  0.8977
  168SAPE  C31219027   2.879   2.893   7.826  0.4844 -0.9836 -0.1854
  168SAPE  H12X19028   2.804   2.974   7.815 -1.1356 -2.4717 -0.2920
  168SAPE  H12Y19029   2.965   2.934   7.883 -0.8780  0.5456  0.8131
  168SAPE  C31319030   2.823   2.783   7.917  0.1053  0.0424  0.1931
  168SAPE  H13X19031   2.889   2.694   7.907 -1.3496 -0.9957 -0.3485
  168SAPE  H13Y19032   2.717   2.767   7.889  0.0012 -2.3001  1.7216
  168SAPE  C31419033   2.807   2.829   8.061 -0.1673 -0.2152  0.5881
  168SAPE  H14X19034   2.745   2.922   8.063  1.0504  0.6171  0.2370
  168SAPE  H14Y19035   2.903   2.860   8.106 -0.1424 -0.1110  0.4622
  168SAPE  C31519036   2.743   2.726   8.155  0.4194 -0.7128  0.0439
  168SAPE  H15X19037   2.807   2.636   8.164 -1.3184 -2.0940 -1.1451
  168SAPE  H15Y19038   2.645   2.693   8.113  0.3961 -2.2087  1.2143
  168SAPE  C31619039   2.739   2.776   8.300  0.4740  0.0219  0.7128
  168SAPE  H16X19040   2.647   2.838   8.305  0.2233 -0.2976  0.0048
  168SAPE  H16Y19041   2.825   2.838   8.334  0.0001  1.3177 -0.4136
  168SAPE  C31719042   2.721   2.665   8.412 -0.1374 -0.5502 -0.0871
  168SAPE  H17X19043   2.633   2.600   8.392 -2.6001  2.3305  0.8800
  168SAPE  H17Y19044   2.696   2.722   8.505  0.9727  0.0578 -0.1479
  168SAPE  C31819045   2.847   2.577   8.436  0.1248  0.4797  0.1418
  168SAPE  H18X19046   2.833   2.507   8.521 -0.0041  0.8767  0.4456
  168SAPE  H18Y19047   2.935   2.642   8.452 -0.4385  1.3751 -0.3262
  168SAPE  H18Z19048   2.868   2.512   8.348 -0.6773  2.1291 -1.3120
  169SAPE     N19049   2.182   5.008   6.117  0.4747  0.0056 -0.3201
  169SAPE   HN119050   2.139   5.062   6.195 -0.0668 -3.5487  1.9840
  169SAPE   HN219051   2.285   4.998   6.118  0.3360 -1.6317 -0.9545
  169SAPE   HN319052   2.163   5.059   6.028  3.1385 -1.6420 -1.9009
  169SAPE   C1219053   2.121   4.871   6.110  0.4449 -0.2285 -0.1886
  169SAPE  H12A19054   2.136   4.836   6.006 -0.1908  0.6248 -0.5675
  169SAPE  H12B19055   2.012   4.882   6.124  0.6246 -1.3923  2.5608
  169SAPE   C1119056   2.193   4.772   6.209 -0.0510 -1.1881 -0.4253
  169SAPE  H11A19057   2.206   4.819   6.309  0.3920  0.7014 -1.3400
  169SAPE  H11B19058   2.297   4.758   6.174  0.1976 -4.8935  1.5664
  169SAPE     P19059   2.036   4.597   6.332 -0.1618  0.4938  0.1581
  169SAPE   O1319060   1.928   4.695   6.339 -0.4694 -0.2665  0.5051
  169SAPE   O1419061   1.988   4.462   6.296 -0.0439 -1.1521  0.5530
  169SAPE   O1219062   2.130   4.646   6.219 -0.2184  0.8879  0.8668
  169SAPE   O1119063   2.119   4.602   6.465 -0.5388  0.2048 -0.3332
  169SAPE    C119064   2.163   4.480   6.537  0.0254 -0.7664 -0.1150
  169SAPE    HA19065   2.167   4.387   6.477 -0.3978 -0.7189 -0.2136
  169SAPE    HB19066   2.263   4.505   6.578 -0.7713  1.5907  0.4274
  169SAPE    C219067   2.068   4.457   6.655 -0.0277  0.6423  0.0018
  169SAPE    HS19068   1.974   4.435   6.601  0.3520 -0.8768 -0.0716
  169SAPE   O2119069   2.062   4.579   6.730  0.3581  0.0549 -0.1778
  169SAPE   C2119070   1.942   4.594   6.780 -0.0688  0.2346  0.4190
  169SAPE   O2219071   1.840   4.535   6.750  0.1978 -0.0814  0.2988
  169SAPE   C2219072   1.950   4.725   6.861  0.0913  0.5422  1.0428
  169SAPE   H2R19073   2.055   4.758   6.866  0.4719 -0.5643  0.6831
  169SAPE   H2S19074   1.893   4.798   6.799 -0.3349 -0.4309  0.2564
  169SAPE    C319075   2.126   4.341   6.747  0.3606 -0.0253  0.1324
  169SAPE    HX19076   2.224   4.375   6.787  0.0350  0.5533  0.4554
  169SAPE    HY19077   2.129   4.244   6.693 -0.6050 -0.0155  0.0458
  169SAPE   O3119078   2.038   4.319   6.862  0.1819  0.3518  0.2884
  169SAPE   C3119079   1.933   4.249   6.841 -0.4129 -0.7075  0.1009
  169SAPE   O3219080   1.888   4.218   6.732  0.1287 -0.1132 -0.0573
  169SAPE   C3219081   1.848   4.227   6.968 -0.1875 -0.7145  0.3792
  169SAPE   H2X19082   1.773   4.148   6.946 -0.8451 -0.0763  0.3065
  169SAPE   H2Y19083   1.798   4.325   6.986  0.6619 -0.8140  3.5952
  169SAPE   C2319084   1.893   4.700   6.997 -0.1930 -0.0744  0.3498
  169SAPE   H3R19085   1.788   4.665   6.985  0.1683 -0.8168 -0.6842
  169SAPE   H3S19086   1.895   4.791   7.060 -3.0891 -0.6701  1.3844
  169SAPE   C2419087   1.959   4.587   7.078 -0.0904  0.8894 -0.1956
  169SAPE   H4R19088   1.938   4.484   7.043 -0.6050  0.2663  1.8648
  169SAPE   H4S19089   1.919   4.589   7.182 -1.2582 -0.8664 -0.5887
  169SAPE   C2519090   2.109   4.610   7.069 -0.0005 -0.5626  0.2490
  169SAPE   H5R19091   2.162   4.577   6.978 -1.6559  0.2632 -1.0603
  169SAPE   C2619092   2.184   4.666   7.159  0.4335  0.0389  0.2108
  169SAPE   H6R19093   2.292   4.671   7.139  0.3413 -1.8145 -0.8270
  169SAPE   C2719094   2.144   4.715   7.296  0.1837  0.6012  0.0154
  169SAPE   H7R19095   2.041   4.756   7.297  0.4403  1.2350  0.9259
  169SAPE   H7S19096   2.215   4.797   7.321 -2.4345  3.0823 -0.4082
  169SAPE   C2819097   2.131   4.603   7.398 -0.0002 -1.1094 -0.6166
  169SAPE   H8R19098   2.043   4.539   7.384 -1.2834  0.4350  0.1700
  169SAPE   C2919099   2.216   4.578   7.495  0.2582  0.5250  0.4828
  169SAPE   H9R19100   2.204   4.493   7.563 -0.8306  0.9757  0.8695
  169SAPE  C21019101   2.327   4.670   7.529 -0.1616  0.1012 -0.4190
  169SAPE  H10R19102   2.379   4.711   7.440 -0.9800 -0.0677 -0.9797
  169SAPE  H10S19103   2.407   4.621   7.589 -1.3768  1.1643  2.1880
  169SAPE  C21119104   2.291   4.795   7.605  0.4336 -0.3587 -0.1484
  169SAPE  H11R19105   2.286   4.888   7.547 -0.9357  1.1355  2.2706
  169SAPE  C21219106   2.275   4.798   7.738 -0.0745 -0.5082 -0.7410
  169SAPE  H12R19107   2.264   4.898   7.782  0.1380 -1.0680  0.5869
  169SAPE  C21319108   2.289   4.692   7.843  0.1147 -0.0103 -0.4012
  169SAPE  H13R19109   2.386   4.685   7.896 -1.3510  1.2770  2.5967
  169SAPE  H13S19110   2.257   4.595   7.801  0.4622 -0.3174  0.0382
  169SAPE  C21419111   2.193   4.718   7.960 -0.1133 -0.0942  0.0658
  169SAPE  H14R19112   2.093   4.752   7.928  1.5708  1.9257 -3.4054
  169SAPE  C21519113   2.215   4.710   8.091  0.4943 -0.1505  0.3012
  169SAPE  H15R19114   2.129   4.729   8.157 -1.3375 -0.6893 -1.8698
  169SAPE  C21619115   2.340   4.677   8.163  0.3153  0.8932 -0.4281
  169SAPE  H16R19116   2.350   4.743   8.252  0.3639 -1.2009  1.1364
  169SAPE  H16S19117   2.424   4.686   8.091 -0.8191  0.1897 -1.8660
  169SAPE  C21719118   2.357   4.533   8.227  0.0808  0.9805 -0.9532
  169SAPE  H17R19119   2.455   4.522   8.277 -0.6303 -1.7756 -0.0553
  169SAPE  H17S19120   2.343   4.457   8.147  2.1912  0.7398 -1.1204
  169SAPE  C21819121   2.259   4.492   8.341  0.7104  0.3984  0.2089
  169SAPE  H18R19122   2.200   4.578   8.378  2.4716  1.1341  1.3481
  169SAPE  H18S19123   2.300   4.441   8.431  0.7990 -0.9282 -0.5642
  169SAPE  C21919124   2.159   4.388   8.292  0.3703  0.4784 -0.4996
  169SAPE  H19R19125   2.213   4.304   8.243  0.5358  1.6721 -2.4052
  169SAPE  H19S19126   2.093   4.446   8.224  0.1282  0.5763 -0.1812
  169SAPE  C22019127   2.072   4.328   8.401  0.1523  0.1921 -0.4821
  169SAPE  H20R19128   2.013   4.407   8.452  0.2625  1.4325 -2.2144
  169SAPE  H20S19129   2.126   4.273   8.481 -0.5763  0.9146  0.5064
  169SAPE  H20T19130   1.997   4.267   8.346 -0.7803  0.8964  0.0054
  169SAPE   C3319131   1.929   4.177   7.091 -0.0559  0.8849 -0.3181
  169SAPE   H3X19132   2.028   4.225   7.105 -0.3735  1.3185  0.5250
  169SAPE   H3Y19133   1.949   4.069   7.078  3.0073  1.3337  0.3801
  169SAPE   C3419134   1.854   4.189   7.217 -0.0831  0.0815 -0.9059
  169SAPE   H4X19135   1.863   4.094   7.275  0.0483 -0.4730 -1.8221
  169SAPE   H4Y19136   1.748   4.219   7.208  0.4930  2.6717  0.4324
  169SAPE   C3519137   1.910   4.296   7.311  0.8078 -0.0841 -0.0277
  169SAPE   H5X19138   1.885   4.395   7.267  1.5642  0.9724  1.8330
  169SAPE   H5Y19139   2.020   4.277   7.309  1.1283  1.7179 -1.9205
  169SAPE   C3619140   1.834   4.302   7.441 -1.1082  0.0756 -0.6382
  169SAPE   H6X19141   1.852   4.198   7.475 -0.7534  0.6252  0.8822
  169SAPE   H6Y19142   1.725   4.312   7.424 -1.1046  1.6086  0.1319
  169SAPE   C3719143   1.889   4.412   7.536  0.1199  0.7189 -0.3185
  169SAPE   H7X19144   1.872   4.507   7.482  0.8258  0.6226 -0.7157
  169SAPE   H7Y19145   1.998   4.401   7.557 -0.7448 -2.2247  3.1817
  169SAPE   C3819146   1.807   4.428   7.667 -1.0338  0.1507  0.5277
  169SAPE   H8X19147   1.771   4.326   7.695 -0.8043 -0.1686 -0.3165
  169SAPE   H8Y19148   1.714   4.485   7.648  1.2654  4.1245  0.5474
  169SAPE   C3919149   1.903   4.486   7.773  0.0780 -0.4718 -0.3233
  169SAPE   H9X19150   1.931   4.585   7.731  1.1152 -1.1455 -1.2621
  169SAPE   H9Y19151   2.001   4.432   7.775  1.3846  1.8326 -1.0236
  169SAPE  C31019152   1.856   4.497   7.919  0.7077 -0.4098  0.2388
  169SAPE  H10X19153   1.958   4.502   7.963  1.4796  0.0036 -1.5512
  169SAPE  H10Y19154   1.812   4.398   7.945  1.5678 -1.1643 -1.0976
  169SAPE  C31119155   1.784   4.623   7.969  0.3240  0.1200 -0.6050
  169SAPE  H11X19156   1.694   4.643   7.907 -0.3280  1.6743  0.7940
  169SAPE  H11Y19157   1.845   4.715   7.953  1.6923 -0.9025 -1.3714
  169SAPE  C31219158   1.747   4.623   8.113  0.0858  0.1682 -0.6864
  169SAPE  H12X19159   1.840   4.630   8.173 -1.0491 -0.6308  1.2119
  169SAPE  H12Y19160   1.700   4.529   8.148  0.5355  0.3891  0.5298
  169SAPE  C31319161   1.643   4.731   8.143  0.5686  0.4045 -0.0973
  169SAPE  H13X19162   1.557   4.693   8.201  0.6855 -1.3687 -1.0584
  169SAPE  H13Y19163   1.588   4.756   8.050 -1.5603  0.4028  1.1428
  169SAPE  C31419164   1.693   4.853   8.211 -0.4066  0.2031  0.0252
  169SAPE  H14X19165   1.757   4.818   8.295 -0.1098 -0.1278 -0.3381
  169SAPE  H14Y19166   1.610   4.906   8.263  0.6191  2.4011 -0.5015
  169SAPE  C31519167   1.763   4.957   8.120  0.1174 -0.5139  0.4924
  169SAPE  H15X19168   1.682   5.007   8.063 -0.0383  0.2263  1.3519
  169SAPE  H15Y19169   1.843   4.914   8.056 -1.4205 -1.9251 -0.5302
  169SAPE  C31619170   1.836   5.074   8.192 -0.0572  0.0312  0.4840
  169SAPE  H16X19171   1.894   5.039   8.280 -1.4402  0.2822  1.5145
  169SAPE  H16Y19172   1.771   5.155   8.230  0.7846 -0.1729  2.4352
  169SAPE  C31719173   1.925   5.148   8.097 -0.0100  0.0171 -0.0726
  169SAPE  H17X19174   1.876   5.164   7.999 -0.6691  0.1975  0.2863
  169SAPE  H17Y19175   2.011   5.085   8.065  0.7395  1.0092 -0.0389
  169SAPE  C31819176   1.974   5.287   8.147 -0.2511 -0.3047  0.8722
  169SAPE  H18X19177   1.884   5.352   8.156  1.1899  1.5737  2.0754
  169SAPE  H18Y19178   2.044   5.333   8.074 -0.7655 -0.8753  0.0093
  169SAPE  H18Z19179   2.015   5.279   8.250 -2.0584  4.5348  2.1043
  170SAPE     N19180   4.020   1.771   6.355 -0.2954 -0.6332  0.4842
  170SAPE   HN119181   4.018   1.701   6.278  0.8711  0.3161 -0.4331
  170SAPE   HN219182   4.116   1.811   6.351 -0.6313  0.2621  1.1284
  170SAPE   HN319183   4.012   1.718   6.444 -4.4294 -0.5044  0.2624
  170SAPE   C1219184   3.922   1.893   6.349  0.3596  0.3319 -0.0968
  170SAPE  H12A19185   3.934   1.960   6.261  0.0051  1.0376  0.3776
  170SAPE  H12B19186   3.944   1.960   6.435 -0.5119  1.2526 -0.5648
  170SAPE   C1119187   3.769   1.846   6.360  0.1792  0.4052 -0.4343
  170SAPE  H11A19188   3.698   1.927   6.332 -1.1284 -0.2109  1.0179
  170SAPE  H11B19189   3.749   1.816   6.465 -1.0845 -0.3513 -0.8910
  170SAPE     P19190   3.677   1.735   6.140  0.0752  0.0844  0.0587
  170SAPE   O1319191   3.773   1.811   6.051  0.1565 -0.1921 -0.2559
  170SAPE   O1419192   3.647   1.600   6.095  0.2632  0.3783 -0.1184
  170SAPE   O1219193   3.749   1.729   6.283  0.6493  0.1092 -0.4665
  170SAPE   O1119194   3.544   1.810   6.162 -0.4105 -0.0874 -0.2919
  170SAPE    C119195   3.452   1.763   6.264  0.0958  0.6547  0.0906
  170SAPE    HA19196   3.382   1.693   6.215  0.3186 -0.5639  1.5028
  170SAPE    HB19197   3.509   1.704   6.338  0.4969  0.1179 -0.6309
  170SAPE    C219198   3.379   1.874   6.341 -0.4273 -0.2261 -0.0405
  170SAPE    HS19199   3.285   1.902   6.289  0.4712  1.6001 -0.7217
  170SAPE   O2119200   3.476   1.984   6.352 -0.9923  0.5560 -0.0780
  170SAPE   C2119201   3.405   2.099   6.361 -0.2079  0.3900 -0.0077
  170SAPE   O2219202   3.282   2.107   6.362 -0.1768  0.1582  0.1782
  170SAPE   C2219203   3.502   2.215   6.391 -1.3391  0.6168  0.4984
  170SAPE   H2R19204   3.602   2.171   6.371 -1.5935  0.9947 -1.7523
  170SAPE   H2S19205   3.481   2.293   6.315  0.6749  0.2143 -0.4914
  170SAPE    C319206   3.335   1.836   6.482  0.0948  0.3170 -0.5088
  170SAPE    HX19207   3.274   1.919   6.523 -0.2550 -0.4322  0.5066
  170SAPE    HY19208   3.421   1.829   6.552 -0.1785  1.9660 -0.0058
  170SAPE   O3119209   3.268   1.705   6.482 -0.2397 -0.6801 -0.2993
  170SAPE   C3119210   3.197   1.685   6.595 -0.4052 -0.0370 -1.0347
  170SAPE   O3219211   3.189   1.768   6.686 -0.5366  0.0694  0.7685
  170SAPE   C3219212   3.136   1.545   6.585 -0.2625  0.1794  0.2374
  170SAPE   H2X19213   3.143   1.510   6.690 -1.2653 -1.2041 -0.1367
  170SAPE   H2Y19214   3.198   1.485   6.515  0.7046  2.4292 -0.8992
  170SAPE   C2319215   3.496   2.260   6.538  0.4346 -0.0471  1.3077
  170SAPE   H3R19216   3.391   2.287   6.560  0.3111 -1.0734  2.0155
  170SAPE   H3S19217   3.561   2.348   6.560  0.4819  0.9421 -2.3706
  170SAPE   C2419218   3.536   2.152   6.639 -0.1140  0.3796  0.3599
  170SAPE   H4R19219   3.454   2.078   6.622  0.6680 -1.1854  3.1984
  170SAPE   H4S19220   3.525   2.203   6.737  1.5778 -1.0069  1.2939
  170SAPE   C2519221   3.674   2.086   6.644 -0.3493 -0.5151 -0.0589
  170SAPE   H5R19222   3.745   2.126   6.570  0.6127 -1.0461  0.5808
  170SAPE   C2619223   3.718   2.000   6.737  0.7612 -0.2348  0.5591
  170SAPE   H6R19224   3.823   1.966   6.738  1.6993  2.4738 -1.0378
  170SAPE   C2719225   3.625   1.959   6.854 -0.2937 -0.0795  0.4634
  170SAPE   H7R19226   3.544   1.885   6.834  0.2783 -0.4787 -0.4035
  170SAPE   H7S19227   3.556   2.041   6.884 -1.3823 -1.4837  1.8799
  170SAPE   C2819228   3.708   1.913   6.970 -1.2464 -0.2709  0.4742
  170SAPE   H8R19229   3.770   1.825   6.949 -1.8364 -0.2145 -1.5586
  170SAPE   C2919230   3.698   1.970   7.088  0.9617  0.2537 -0.2361
  170SAPE   H9R19231   3.762   1.928   7.168 -0.6757  0.6543  1.3325
  170SAPE  C21019232   3.617   2.094   7.122 -0.5178  0.2666 -0.3944
  170SAPE  H10R19233   3.512   2.060   7.111 -0.9345  0.8536  1.4768
  170SAPE  H10S19234   3.639   2.166   7.041 -2.5052  1.2092 -0.1141
  170SAPE  C21119235   3.659   2.160   7.254 -0.2033 -0.4139  0.4468
  170SAPE  H11R19236   3.721   2.251   7.247 -1.0088  0.2322  1.5967
  170SAPE  C21219237   3.609   2.142   7.377  0.3744  0.1263  0.3885
  170SAPE  H12R19238   3.645   2.196   7.466  1.1408  3.9243 -2.1044
  170SAPE  C21319239   3.503   2.046   7.416 -0.3378  0.3470 -0.4186
  170SAPE  H13R19240   3.461   2.001   7.323  1.5211 -1.0467 -0.5980
  170SAPE  H13S19241   3.422   2.097   7.473  0.5040  3.1239 -1.6127
  170SAPE  C21419242   3.549   1.930   7.495  0.5154 -0.0250  0.0244
  170SAPE  H14R19243   3.597   1.852   7.433 -2.1636 -2.2702  0.6399
  170SAPE  C21519244   3.559   1.910   7.627  0.3406  0.4060 -1.4252
  170SAPE  H15R19245   3.597   1.820   7.676 -0.7417  1.3292  1.2101
  170SAPE  C21619246   3.513   2.001   7.735 -0.3457 -0.5792  0.1922
  170SAPE  H16R19247   3.476   2.091   7.682 -1.4653 -0.3727  1.2996
  170SAPE  H16S19248   3.585   2.035   7.811 -0.3880 -1.6762  0.7262
  170SAPE  C21719249   3.398   1.927   7.812 -0.1105 -0.2759  0.0035
  170SAPE  H17R19250   3.448   1.846   7.871 -3.2399 -1.9325  0.4850
  170SAPE  H17S19251   3.327   1.877   7.743  0.5551  0.2622 -1.0730
  170SAPE  C21819252   3.320   2.010   7.909 -0.3815 -0.7910 -0.5531
  170SAPE  H18R19253   3.230   1.953   7.939 -0.8425 -0.4265 -1.2450
  170SAPE  H18S19254   3.271   2.100   7.865  2.5109  1.6681  1.0492
  170SAPE  C21919255   3.400   2.043   8.033 -0.9351  0.2961  0.0278
  170SAPE  H19R19256   3.462   2.131   8.004 -1.6702  1.1862  1.1179
  170SAPE  H19S19257   3.462   1.955   8.064  0.8099  1.0847 -1.1609
  170SAPE  C22019258   3.327   2.098   8.158  0.3765  0.3733 -0.1441
  170SAPE  H20R19259   3.272   2.193   8.141 -0.9493 -0.2482  0.6067
  170SAPE  H20S19260   3.399   2.112   8.240 -0.0630 -0.4301  0.3935
  170SAPE  H20T19261   3.261   2.014   8.189 -0.4800  0.5130 -1.5164
  170SAPE   C3319262   2.987   1.544   6.532 -0.6098  0.1648 -0.2099
  170SAPE   H3X19263   2.948   1.443   6.507 -0.7448 -0.1481  1.2555
  170SAPE   H3Y19264   2.977   1.599   6.436  1.2883 -1.3983 -1.3501
  170SAPE   C3419265   2.896   1.619   6.622  0.3676  0.6672 -0.4566
  170SAPE   H4X19266   2.794   1.611   6.579  0.0372  1.9852  0.0740
  170SAPE   H4Y19267   2.911   1.729   6.631  1.4440  0.3849  1.6871
  170SAPE   C3519268   2.874   1.552   6.764  0.0438  0.4876  0.1443
  170SAPE   H5X19269   2.872   1.443   6.741  0.0155  1.0848 -2.9561
  170SAPE   H5Y19270   2.767   1.572   6.783  0.2980  1.4463  0.5821
  170SAPE   C3619271   2.948   1.609   6.896 -0.1599  0.6401 -0.1064
  170SAPE   H6X19272   2.920   1.717   6.894 -1.3189  0.4168  2.1610
  170SAPE   H6Y19273   3.053   1.591   6.865 -0.2265  0.4378 -0.2100
  170SAPE   C3719274   2.905   1.551   7.029  0.5049  0.2333 -0.4107
  170SAPE   H7X19275   2.913   1.440   7.022  0.2356 -0.0604  2.9910
  170SAPE   H7Y19276   2.803   1.586   7.057 -0.0539 -1.1255 -0.6728
  170SAPE   C3819277   2.998   1.584   7.149 -0.4479 -0.4625  0.2718
  170SAPE   H8X19278   2.988   1.692   7.172 -2.7337 -0.9651  1.8416
  170SAPE   H8Y19279   3.104   1.554   7.130  0.7456  2.3916  2.1524
  170SAPE   C3919280   2.947   1.523   7.279 -0.2314 -0.0753  0.4227
  170SAPE   H9X19281   2.957   1.412   7.273  0.5210 -0.0257  0.6716
  170SAPE   H9Y19282   2.843   1.558   7.291 -0.1608 -0.0383  0.9457
  170SAPE  C31019283   3.013   1.565   7.410 -0.7529 -0.2482  0.2762
  170SAPE  H10X19284   3.121   1.538   7.406 -1.3512 -2.5278 -1.3465
  170SAPE  H10Y19285   2.971   1.497   7.487 -0.9313 -0.7018 -0.2175
  170SAPE  C31119286   2.978   1.707   7.438  0.3460 -0.4159  0.0967
  170SAPE  H11X19287   2.868   1.725   7.443  0.0713 -1.9655  0.0462
  170SAPE  H11Y19288   3.024   1.768   7.358  0.4928  0.2984  0.7203
  170SAPE  C31219289   3.029   1.746   7.575  0.2029  0.0685  0.0356
  170SAPE  H12X19290   3.015   1.855   7.589  0.3282  0.2602 -1.2379
  170SAPE  H12Y19291   3.140   1.737   7.571  0.2001  0.1437 -0.2208
  170SAPE  C31319292   2.982   1.666   7.696 -0.0046 -0.1776 -0.1673
  170SAPE  H13X19293   3.016   1.561   7.704  1.1520  0.2854  1.4177
  170SAPE  H13Y19294   2.871   1.663   7.705 -0.0522  0.4092 -0.5081
  170SAPE  C31419295   3.034   1.740   7.820  0.3928  0.9464 -1.0968
  170SAPE  H14X19296   3.031   1.850   7.805  0.1298  1.4488  2.1891
  170SAPE  H14Y19297   3.142   1.715   7.833  0.0970 -0.3819 -1.0826
  170SAPE  C31519298   2.961   1.700   7.951  0.1319 -0.6938  0.4453
  170SAPE  H15X19299   2.947   1.590   7.943  1.8887 -0.9303  0.2979
  170SAPE  H15Y19300   2.863   1.750   7.964 -0.7953 -2.2091 -0.6337
  170SAPE  C31619301   3.044   1.735   8.082  0.2416  0.3514  0.1252
  170SAPE  H16X19302   3.049   1.845   8.089 -0.8600  0.5008 -1.4134
  170SAPE  H16Y19303   3.145   1.688   8.075  1.1226  2.2601 -0.2430
  170SAPE  C31719304   2.980   1.681   8.215 -0.1391  0.0135  0.0126
  170SAPE  H17X19305   2.962   1.573   8.192 -2.9801 -0.0437  2.2772
  170SAPE  H17Y19306   2.880   1.727   8.225  0.6077  1.5103  0.7729
  170SAPE  C31819307   3.060   1.702   8.340  0.4102  0.5972  0.2405
  170SAPE  H18X19308   3.164   1.667   8.323  0.1531  0.6061 -1.4407
  170SAPE  H18Y19309   3.008   1.650   8.424 -1.3886  0.1536 -1.1182
  170SAPE  H18Z19310   3.058   1.808   8.373 -0.4564  0.7790 -0.3667
  171SAPE     N19311   4.508   2.673   6.012  0.2140 -0.2879  0.2681
  171SAPE   HN119312   4.451   2.740   6.068 -0.0352 -0.0569 -0.2630
  171SAPE   HN219313   4.601   2.685   6.057  0.6960  0.6158 -0.9532
  171SAPE   HN319314   4.506   2.704   5.913  0.7404  2.8830  1.1895
  171SAPE   C1219315   4.463   2.527   6.032 -0.1402  0.9048  0.2478
  171SAPE  H12A19316   4.552   2.470   5.997 -0.6510 -1.1679  2.2120
  171SAPE  H12B19317   4.376   2.517   5.963  0.5482  1.4843 -0.7158
  171SAPE   C1119318   4.415   2.498   6.173  0.1957  0.1163  0.7922
  171SAPE  H11A19319   4.509   2.523   6.226  0.6537 -0.1799  0.1242
  171SAPE  H11B19320   4.393   2.391   6.193 -2.3479  0.2361 -1.0848
  171SAPE     P19321   4.230   2.583   6.344 -0.0865  0.2807 -0.6122
  171SAPE   O1319322   4.161   2.711   6.366 -0.4319  0.7658  0.4514
  171SAPE   O1419323   4.147   2.466   6.329 -0.3090 -0.5993 -0.2751
  171SAPE   O1219324   4.316   2.596   6.218 -0.5726  0.4363  0.5106
  171SAPE   O1119325   4.310   2.574   6.483  0.2131  0.5363 -0.2766
  171SAPE    C119326   4.438   2.632   6.490  0.1049  0.2001  0.4783
  171SAPE    HA19327   4.517   2.568   6.445  0.4478  0.0859  1.2451
  171SAPE    HB19328   4.448   2.731   6.441 -1.4316  0.1420  0.0044
  171SAPE    C219329   4.474   2.636   6.635 -0.2541  0.2728 -0.6240
  171SAPE    HS19330   4.391   2.689   6.686 -0.0671  0.9018 -0.9719
  171SAPE   O2119331   4.596   2.709   6.653 -0.4712  0.4438 -0.7229
  171SAPE   C2119332   4.580   2.840   6.643 -0.2290  0.2422 -0.6961
  171SAPE   O2219333   4.480   2.897   6.599  0.2472  0.2853 -0.1756
  171SAPE   C2219334   4.695   2.907   6.702  0.3002  0.0502 -0.0839
  171SAPE   H2R19335   4.784   2.872   6.645 -0.4158 -1.4760 -0.2956
  171SAPE   H2S19336   4.679   3.016   6.690 -1.5486 -0.2691 -0.6737
  171SAPE    C319337   4.486   2.497   6.709 -0.1438 -0.6144  0.0607
  171SAPE    HX19338   4.574   2.447   6.662 -0.0099 -1.0659  0.7881
  171SAPE    HY19339   4.396   2.445   6.670 -1.0182  0.2926  0.8552
  171SAPE   O3119340   4.498   2.517   6.853 -0.8436  0.0892  0.2100
  171SAPE   C3119341   4.480   2.407   6.935  0.0626 -1.3980 -0.2501
  171SAPE   O3219342   4.446   2.299   6.893  0.1271  0.2776 -0.9033
  171SAPE   C3219343   4.514   2.453   7.080  0.3407 -0.2925 -0.6069
  171SAPE   H2X19344   4.517   2.563   7.089 -0.3032 -0.3959  0.9920
  171SAPE   H2Y19345   4.623   2.433   7.085  0.1814 -1.1404 -0.5025
  171SAPE   C2319346   4.724   2.863   6.848  0.0404  0.2996  0.5677
  171SAPE   H3R19347   4.818   2.920   6.859 -0.2854  1.2930 -1.5640
  171SAPE   H3S19348   4.751   2.756   6.846  1.5818  0.6633  0.9944
  171SAPE   C2419349   4.615   2.896   6.949  0.4450  0.0513 -0.3904
  171SAPE   H4R19350   4.651   2.844   7.040 -2.9323 -1.1390  0.3642
  171SAPE   H4S19351   4.517   2.845   6.935  2.1329 -2.5940 -2.9302
  171SAPE   C2519352   4.610   3.045   6.972 -0.4003 -0.5063 -0.0299
  171SAPE   H5R19353   4.597   3.100   6.878 -3.1307 -2.6338 -0.9838
  171SAPE   C2619354   4.620   3.117   7.084  0.2036 -0.0156 -0.4853
  171SAPE   H6R19355   4.596   3.224   7.082 -1.3933 -0.3614 -0.0799
  171SAPE   C2719356   4.627   3.064   7.230 -0.0930  0.2610  0.2386
  171SAPE   H7R19357   4.630   2.953   7.235  1.9572  0.2950  0.3456
  171SAPE   H7S19358   4.534   3.099   7.280 -1.0589 -2.1096  0.1467
  171SAPE   C2819359   4.743   3.124   7.295 -0.0909 -0.1955 -0.9066
  171SAPE   H8R19360   4.837   3.077   7.262  0.4398  0.9078 -1.0006
  171SAPE   C2919361   4.744   3.226   7.379  0.7000 -0.0782 -0.2948
  171SAPE   H9R19362   4.839   3.255   7.426  1.5883 -1.6763 -1.0426
  171SAPE  C21019363   4.621   3.306   7.430  0.3103  0.3984  0.2548
  171SAPE  H10R19364   4.551   3.323   7.346 -2.0714 -1.3469  1.8235
  171SAPE  H10S19365   4.662   3.405   7.460  2.7638 -0.9199  1.5108
  171SAPE  C21119366   4.589   3.235   7.561 -0.0926 -0.1470  0.4160
  171SAPE  H11R19367   4.539   3.140   7.541  1.6854 -0.7452 -1.3246
  171SAPE  C21219368   4.606   3.278   7.690 -0.0082  0.6404  0.2331
  171SAPE  H12R19369   4.585   3.198   7.762  0.4307 -0.6253 -0.9992
  171SAPE  C21319370   4.671   3.400   7.749  0.2709 -0.3954  0.3171
  171SAPE  H13R19371   4.703   3.479   7.677  3.0032  0.1261  2.0163
  171SAPE  H13S19372   4.768   3.371   7.795  0.0411  0.3180  1.2812
  171SAPE  C21419373   4.587   3.463   7.856  0.5071 -0.4644  0.7244
  171SAPE  H14R19374   4.498   3.519   7.822  0.8368  1.6614  3.1995
  171SAPE  C21519375   4.623   3.494   7.986  0.6947  0.5769  0.4950
  171SAPE  H15R19376   4.543   3.527   8.053 -1.9565 -2.5350 -1.0160
  171SAPE  C21619377   4.752   3.464   8.068  0.2975 -0.1870  0.3469
  171SAPE  H16R19378   4.830   3.440   7.993 -0.9793 -0.0455 -1.0684
  171SAPE  H16S19379   4.738   3.376   8.134 -2.6457 -0.9481 -1.1526
  171SAPE  C21719380   4.790   3.600   8.125 -0.4091 -0.2026 -0.3671
  171SAPE  H17R19381   4.879   3.586   8.189 -1.9292 -1.1349  1.5590
  171SAPE  H17S19382   4.716   3.631   8.201  0.1178  0.1290  0.0139
  171SAPE  C21819383   4.812   3.722   8.032 -0.0125  0.5036 -0.4046
  171SAPE  H18R19384   4.722   3.752   7.975  0.1744 -1.0001 -1.5219
  171SAPE  H18S19385   4.897   3.690   7.967  1.3020  1.3210  0.8743
  171SAPE  C21919386   4.864   3.855   8.098 -0.0231  0.1450 -0.6624
  171SAPE  H19R19387   4.775   3.906   8.139 -0.8999 -1.7454 -0.1694
  171SAPE  H19S19388   4.900   3.917   8.013  0.6991 -0.6163 -0.9219
  171SAPE  C22019389   4.962   3.844   8.217 -0.0371  0.0154 -0.2202
  171SAPE  H20R19390   5.062   3.812   8.181 -0.4360  1.8483 -3.1111
  171SAPE  H20S19391   4.918   3.785   8.300 -0.9680  1.1534  0.1142
  171SAPE  H20T19392   4.992   3.945   8.252  2.9650 -1.1864  0.8734
  171SAPE   C3319393   4.421   2.390   7.183 -0.4130  0.1016  0.8114
  171SAPE   H3X19394   4.408   2.283   7.159  3.5028 -0.5320  1.2785
  171SAPE   H3Y19395   4.321   2.437   7.169 -0.2357 -0.0202 -0.9815
  171SAPE   C3419396   4.470   2.413   7.324  0.0225  0.1443 -0.6702
  171SAPE   H4X19397   4.472   2.518   7.362 -1.7991 -0.9508  2.6687
  171SAPE   H4Y19398   4.566   2.361   7.340  0.0142  0.2059 -0.4024
  171SAPE   C3519399   4.383   2.347   7.432  0.1710 -0.4940 -0.3518
  171SAPE   H5X19400   4.380   2.240   7.402 -2.3042  0.0107 -2.0693
  171SAPE   H5Y19401   4.277   2.378   7.419 -0.2455 -0.8075  2.1337
  171SAPE   C3619402   4.428   2.367   7.582  0.0631 -0.4116 -0.0534
  171SAPE   H6X19403   4.397   2.471   7.605 -0.1908  0.0733 -2.4257
  171SAPE   H6Y19404   4.536   2.362   7.606  0.0540  2.9928  1.0621
  171SAPE   C3719405   4.356   2.292   7.695 -0.3344 -0.0769  0.2966
  171SAPE   H7X19406   4.377   2.182   7.696  1.1364  0.2049  2.2189
  171SAPE   H7Y19407   4.250   2.314   7.673  0.1787  0.4191 -1.8460
  171SAPE   C3819408   4.377   2.349   7.837  0.2978  0.1688 -0.4128
  171SAPE   H8X19409   4.481   2.386   7.853 -0.7703  2.4401  1.6030
  171SAPE   H8Y19410   4.376   2.263   7.907 -0.0823  0.2597 -0.3056
  171SAPE   C3919411   4.284   2.461   7.880  0.0755  0.1106 -0.0892
  171SAPE   H9X19412   4.187   2.450   7.826 -0.5574 -0.0802  1.0692
  171SAPE   H9Y19413   4.337   2.551   7.844  2.1193 -0.9856  0.0917
  171SAPE  C31019414   4.268   2.476   8.028 -0.2327 -0.2967 -0.7316
  171SAPE  H10X19415   4.210   2.571   8.040  0.8416  0.2427  0.2935
  171SAPE  H10Y19416   4.365   2.494   8.078  1.2357 -3.4695 -2.3144
  171SAPE  C31119417   4.191   2.372   8.103 -0.9058 -0.1788  0.0345
  171SAPE  H11X19418   4.247   2.277   8.111  0.3685  0.3277 -2.2098
  171SAPE  H11Y19419   4.095   2.344   8.056  0.1743  1.0771 -3.0584
  171SAPE  C31219420   4.169   2.390   8.258  1.1299  0.2696  0.0683
  171SAPE  H12X19421   4.267   2.410   8.306  1.1121  1.7790 -0.5122
  171SAPE  H12Y19422   4.136   2.297   8.310  4.2062  0.7899  3.1518
  171SAPE  C31319423   4.078   2.503   8.300  0.2977 -0.1211  0.5738
  171SAPE  H13X19424   3.983   2.480   8.249 -0.2810 -1.0301  2.0070
  171SAPE  H13Y19425   4.106   2.606   8.269  0.0124 -0.3438 -0.4070
  171SAPE  C31419426   4.054   2.495   8.455  0.0083  0.7078  0.1832
  171SAPE  H14X19427   4.152   2.486   8.506  0.1170 -0.0718 -0.1459
  171SAPE  H14Y19428   3.991   2.408   8.483  0.9032  1.1001  3.6408
  171SAPE  C31519429   3.973   2.614   8.507 -0.1182  0.1856  0.0572
  171SAPE  H15X19430   4.026   2.707   8.476  3.0792 -1.2628  0.9987
  171SAPE  H15Y19431   3.977   2.607   8.617  0.9509  0.9723  0.0803
  171SAPE  C31619432   3.821   2.609   8.469  0.5862  0.6611 -0.5282
  171SAPE  H16X19433   3.791   2.514   8.518  3.2545  0.3688  0.5950
  171SAPE  H16Y19434   3.804   2.597   8.360 -0.2693 -0.0158 -0.3272
  171SAPE  C31719435   3.734   2.726   8.515 -0.4478  0.4562 -0.8644
  171SAPE  H17X19436   3.736   2.820   8.456 -1.1383 -0.1673 -1.9079
  171SAPE  H17Y19437   3.776   2.742   8.616 -1.6400 -2.4018  0.1307
  171SAPE  C31819438   3.590   2.678   8.510  0.4051 -0.1426 -0.5174
  171SAPE  H18X19439   3.566   2.611   8.596  1.6414  1.4820  1.1385
  171SAPE  H18Y19440   3.565   2.633   8.412  1.1289 -0.4108 -0.5866
  171SAPE  H18Z19441   3.530   2.768   8.536  0.1244 -0.4143 -0.2206
  172SAPE     N19442   3.615   1.345   6.072 -0.3026  0.3523  0.3689
  172SAPE   HN119443   3.715   1.324   6.093 -0.0800  1.4390  0.4394
  172SAPE   HN219444   3.589   1.319   5.975 -1.3785  0.2651  0.6700
  172SAPE   HN319445   3.606   1.448   6.085 -1.1981  0.1756  1.2263
  172SAPE   C1219446   3.525   1.250   6.149  0.1358  0.2670  0.6088
  172SAPE  H12A19447   3.423   1.262   6.106  1.6540  0.6158 -3.0564
  172SAPE  H12B19448   3.535   1.275   6.257  3.2631  0.1826  0.3949
  172SAPE   C1119449   3.577   1.109   6.127  0.0081  0.1034  0.2139
  172SAPE  H11A19450   3.572   1.080   6.019 -0.6821 -2.1223  0.8111
  172SAPE  H11B19451   3.499   1.045   6.173 -0.9604  1.8018  0.9899
  172SAPE     P19452   3.757   0.942   6.192 -0.1601  0.1203  0.6574
  172SAPE   O1319453   3.640   0.848   6.191 -0.4543 -0.1862  0.1020
  172SAPE   O1419454   3.868   0.910   6.100  0.6236 -0.6227  0.1013
  172SAPE   O1219455   3.711   1.099   6.173  0.1316 -0.1487  0.1031
  172SAPE   O1119456   3.815   0.939   6.337  0.0087  0.0555 -0.0761
  172SAPE    C119457   3.791   1.036   6.437  0.3062  0.1465 -0.1872
  172SAPE    HA19458   3.881   1.045   6.501  1.3931 -1.9507 -1.3613
  172SAPE    HB19459   3.776   1.136   6.390  1.4320 -0.7580 -2.5821
  172SAPE    C219460   3.685   0.977   6.544  0.4559  0.1528  0.3449
  172SAPE    HS19461   3.662   1.064   6.608  1.8621  0.0137  1.0464
  172SAPE   O2119462   3.749   0.872   6.616  0.2542 -0.2857 -0.4832
  172SAPE   C2119463   3.842   0.899   6.696 -0.0724  0.0638  0.1318
  172SAPE   O2219464   3.885   1.010   6.727  0.0107 -0.4488 -0.3675
  172SAPE   C2219465   3.890   0.759   6.763 -0.9759 -0.2276  0.4203
  172SAPE   H2R19466   3.845   0.771   6.864  0.8342  1.0650  1.1110
  172SAPE   H2S19467   3.846   0.673   6.708 -1.7721 -0.1512  0.9310
  172SAPE    C319468   3.566   0.924   6.473  0.4623 -0.0957  0.3203
  172SAPE    HX19469   3.575   0.814   6.462 -0.0368 -0.0161 -0.9752
  172SAPE    HY19470   3.538   0.961   6.372 -1.6455 -3.1900 -0.2987
  172SAPE   O3119471   3.445   0.931   6.556 -0.5512  0.0004 -0.2914
  172SAPE   C3119472   3.387   1.056   6.562  0.0667 -0.3656 -0.2659
  172SAPE   O3219473   3.415   1.146   6.489  0.8748 -0.6610 -0.2283
  172SAPE   C3219474   3.296   1.062   6.674 -0.7223  0.3477  0.5376
  172SAPE   H2X19475   3.341   1.027   6.770 -1.7230 -1.3200  0.4110
  172SAPE   H2Y19476   3.204   1.003   6.652 -0.9433  1.1550 -0.7640
  172SAPE   C2319477   4.043   0.759   6.799  0.0073  0.2159 -0.1819
  172SAPE   H3R19478   4.056   0.865   6.830  1.8323  1.3360 -4.3439
  172SAPE   H3S19479   4.099   0.754   6.703  1.5747  2.1448  0.6154
  172SAPE   C2419480   4.087   0.654   6.897 -0.3902  0.6111  0.8189
  172SAPE   H4R19481   4.068   0.550   6.864 -1.8969  0.5734  1.7561
  172SAPE   H4S19482   4.018   0.664   6.984  0.6444 -1.6859  1.9554
  172SAPE   C2519483   4.233   0.677   6.922  0.3695  0.4679  0.3865
  172SAPE   H5R19484   4.301   0.662   6.837  1.1402  1.7360  0.7680
  172SAPE   C2619485   4.294   0.728   7.033  0.1892 -0.5922  1.0145
  172SAPE   H6R19486   4.403   0.739   7.043  0.4418 -1.3198 -0.6865
  172SAPE   C2719487   4.236   0.770   7.170 -0.2093  0.7803  0.3239
  172SAPE   H7R19488   4.278   0.707   7.251 -2.3638  0.7590  1.4414
  172SAPE   H7S19489   4.127   0.754   7.176 -0.2814  0.6418 -1.1038
  172SAPE   C2819490   4.266   0.912   7.192  0.1676  0.1094 -0.1307
  172SAPE   H8R19491   4.294   0.969   7.103  1.1047 -0.2890 -0.0933
  172SAPE   C2919492   4.257   0.969   7.311 -0.6695  0.0212  0.1557
  172SAPE   H9R19493   4.273   1.077   7.317  0.7021 -0.0443 -1.8447
  172SAPE  C21019494   4.216   0.901   7.436 -0.2953 -0.7546  0.2467
  172SAPE  H10R19495   4.161   0.809   7.407  1.5560 -1.6542 -0.5078
  172SAPE  H10S19496   4.143   0.970   7.483  1.6635  0.0676  2.2124
  172SAPE  C21119497   4.332   0.880   7.527 -0.3105 -0.4833  0.5174
  172SAPE  H11R19498   4.429   0.866   7.476  1.2663  0.9202  3.0674
  172SAPE  C21219499   4.328   0.862   7.658 -0.2611 -0.0339  0.0823
  172SAPE  H12R19500   4.415   0.843   7.724 -0.2519  0.6800  0.2766
  172SAPE  C21319501   4.206   0.871   7.740 -0.1332 -0.0084 -0.1848
  172SAPE  H13R19502   4.194   0.794   7.820 -3.2926  1.6626  1.0179
  172SAPE  H13S19503   4.107   0.873   7.690  0.3990  0.5773 -1.2253
  172SAPE  C21419504   4.215   0.999   7.823 -0.0818  0.9186 -0.5288
  172SAPE  H14R19505   4.249   1.091   7.775  0.5856  0.6759 -0.5252
  172SAPE  C21519506   4.188   1.025   7.953 -0.0852  0.5549 -0.1648
  172SAPE  H15R19507   4.221   1.122   7.992 -0.6327  1.0300 -0.8623
  172SAPE  C21619508   4.148   0.932   8.066 -0.3650 -0.0431 -0.1018
  172SAPE  H16R19509   4.237   0.912   8.129  1.0869  1.8210 -1.4782
  172SAPE  H16S19510   4.105   0.835   8.033 -1.3874  0.4230 -0.1477
  172SAPE  C21719511   4.042   0.973   8.163 -0.5134  0.0218  0.5977
  172SAPE  H17R19512   4.011   0.885   8.224  3.0942 -1.0691  0.9528
  172SAPE  H17S19513   3.947   0.995   8.109 -0.9880  0.4376  1.5900
  172SAPE  C21819514   4.075   1.096   8.246  0.0447 -0.2833 -0.5474
  172SAPE  H18R19515   3.981   1.125   8.297  0.6204  0.5014  0.0936
  172SAPE  H18S19516   4.093   1.172   8.167  2.6114  0.2625  0.5122
  172SAPE  C21919517   4.192   1.075   8.338 -0.2009  0.1182 -0.2611
  172SAPE  H19R19518   4.289   1.062   8.284 -0.1070  0.1100 -0.0922
  172SAPE  H19S19519   4.182   0.983   8.398  0.5634  0.2472  0.0731
  172SAPE  C22019520   4.212   1.193   8.429 -0.7219  0.3512  0.2467
  172SAPE  H20R19521   4.290   1.175   8.505  0.4489 -0.1527 -1.0524
  172SAPE  H20S19522   4.127   1.238   8.484  1.9120  0.9693  3.9599
  172SAPE  H20T19523   4.249   1.275   8.363  0.7950  0.0132  0.6662
  172SAPE   C3319524   3.264   1.212   6.712  0.0078  0.0513 -0.1374
  172SAPE   H3X19525   3.221   1.274   6.630 -3.1094 -0.8270  0.7689
  172SAPE   H3Y19526   3.361   1.260   6.738 -0.0077  0.0949 -0.1609
  172SAPE   C3419527   3.181   1.219   6.837  0.6580 -0.0195 -0.4519
  172SAPE   H4X19528   3.094   1.150   6.825  0.8877  0.0501 -2.7976
  172SAPE   H4Y19529   3.126   1.315   6.846 -2.1707 -1.4239 -2.1518
  172SAPE   C3519530   3.253   1.180   6.970 -0.1938 -0.2787 -0.8909
  172SAPE   H5X19531   3.354   1.226   6.964 -0.0854 -0.3478  0.2548
  172SAPE   H5Y19532   3.255   1.069   6.967 -4.9381 -0.5037 -0.1044
  172SAPE   C3619533   3.185   1.227   7.098  0.4307 -0.0282 -0.0587
  172SAPE   H6X19534   3.074   1.224   7.091  0.4623 -0.9569 -0.2890
  172SAPE   H6Y19535   3.206   1.335   7.112  1.3874  0.3045 -3.4843
  172SAPE   C3719536   3.238   1.157   7.221  0.0171 -0.4376  0.7167
  172SAPE   H7X19537   3.350   1.157   7.220  0.0570  0.1108  2.4169
  172SAPE   H7Y19538   3.203   1.053   7.207  1.1901 -1.0289  1.9708
  172SAPE   C3819539   3.174   1.211   7.345  0.5533  0.1540  0.5356
  172SAPE   H8X19540   3.066   1.193   7.329  0.8889 -3.5946  2.1068
  172SAPE   H8Y19541   3.187   1.321   7.357 -1.1018  0.3035  1.1833
  172SAPE   C3919542   3.229   1.158   7.477  0.2314  0.0071 -0.8927
  172SAPE   H9X19543   3.333   1.190   7.501 -0.4757  0.7498  1.3160
  172SAPE   H9Y19544   3.233   1.047   7.472  1.8176 -0.1077  1.8393
  172SAPE  C31019545   3.142   1.197   7.591  0.3383 -0.2833 -0.2646
  172SAPE  H10X19546   3.035   1.184   7.560  0.1733  1.7648 -0.5893
  172SAPE  H10Y19547   3.152   1.305   7.614 -1.8328  0.2442 -1.5898
  172SAPE  C31119548   3.159   1.113   7.719 -0.3114  0.0286  0.5621
  172SAPE  H11X19549   3.264   1.078   7.723 -0.6190 -0.9103  0.3653
  172SAPE  H11Y19550   3.104   1.018   7.704  0.8028 -0.2707 -1.8031
  172SAPE  C31219551   3.116   1.195   7.839 -0.3062 -0.1824 -0.2963
  172SAPE  H12X19552   3.012   1.234   7.827 -0.5391 -0.5646  0.4774
  172SAPE  H12Y19553   3.173   1.290   7.840 -1.5600  0.6924 -3.9389
  172SAPE  C31319554   3.127   1.104   7.962  0.3189  0.1906 -0.4950
  172SAPE  H13X19555   3.232   1.094   7.998  0.1759  2.1050  0.5347
  172SAPE  H13Y19556   3.081   1.004   7.950 -0.9629  0.8380 -1.0103
  172SAPE  C31419557   3.050   1.175   8.077 -0.1399 -0.0546  0.0069
  172SAPE  H14X19558   2.943   1.187   8.048  0.5602  1.6218 -1.9485
  172SAPE  H14Y19559   3.086   1.277   8.098  3.2392 -1.2111  0.0245
  172SAPE  C31519560   3.059   1.091   8.202  0.1506  0.1586 -0.0083
  172SAPE  H15X19561   3.168   1.076   8.213  0.0687 -0.6462 -0.2500
  172SAPE  H15Y19562   3.032   0.984   8.188  0.3276 -0.1174  1.7462
  172SAPE  C31619563   2.992   1.153   8.324 -0.0798  0.7833  0.0622
  172SAPE  H16X19564   2.881   1.153   8.315  0.0698  0.0284 -2.0376
  172SAPE  H16Y19565   3.031   1.257   8.336  1.4077  0.2518 -0.1101
  172SAPE  C31719566   3.048   1.088   8.452  0.2124  0.0772  0.0941
  172SAPE  H17X19567   3.159   1.094   8.449  0.1181  1.4518 -2.1698
  172SAPE  H17Y19568   3.017   0.982   8.458 -1.4253  0.6087  1.5712
  172SAPE  C31819569   3.003   1.164   8.575  0.0341 -0.6592 -0.0952
  172SAPE  H18X19570   3.051   1.264   8.574 -1.7839  0.2874  3.1854
  172SAPE  H18Y19571   3.040   1.119   8.669 -0.1723  1.1121  0.8536
  172SAPE  H18Z19572   2.897   1.195   8.580 -0.1119 -1.2870  0.7264
  173SOPE     N19573   5.024   5.439  11.248 -0.4431  0.3901  0.0550
  173SOPE   HN119574   5.083   5.520  11.225  0.2601  0.9201  3.4980
  173SOPE   HN219575   5.080   5.398  11.326  2.0306  4.6372  0.6044
  173SOPE   HN319576   5.022   5.372  11.169 -0.9161  2.2320 -1.5194
  173SOPE   C1219577   4.886   5.484  11.287  0.1568 -0.3247  0.0295
  173SOPE  H12A19578   4.896   5.549  11.376 -0.7028 -0.6866  0.3800
  173SOPE  H12B19579   4.832   5.390  11.311 -1.4404 -0.6270 -4.3561
  173SOPE   C1119580   4.814   5.562  11.172  0.6346 -0.2445  0.0838
  173SOPE  H11A19581   4.880   5.636  11.122  0.6190 -1.8309 -2.3605
  173SOPE  H11B19582   4.726   5.613  11.217 -0.1766 -1.8034  0.3060
  173SOPE     P19583   4.662   5.472  10.968  0.0804 -0.0891 -0.2711
  173SOPE   O1319584   4.533   5.495  11.034  0.8573 -0.2680 -0.2222
  173SOPE   O1419585   4.672   5.351  10.883  0.1014  0.0589  0.0800
  173SOPE   O1219586   4.780   5.459  11.077 -0.1610  0.3697 -0.2306
  173SOPE   O1119587   4.712   5.595  10.886 -0.7167  0.6974 -0.4482
  173SOPE    C119588   4.638   5.684  10.798 -0.6531  0.3622 -0.4777
  173SOPE    HA19589   4.644   5.789  10.832 -0.8263  0.3048 -0.2696
  173SOPE    HB19590   4.533   5.648  10.793 -0.7750  0.5365  0.6521
  173SOPE    C219591   4.700   5.697  10.650  0.0970 -0.6276  0.1509
  173SOPE    HS19592   4.776   5.778  10.648 -1.8415  1.2206 -2.5214
  173SOPE   O2119593   4.592   5.722  10.561  0.8326  0.2085  0.5712
  173SOPE   C2119594   4.582   5.850  10.517 -1.2598  0.0145 -0.2068
  173SOPE   O2219595   4.638   5.944  10.566  0.2793 -0.1742 -0.2709
  173SOPE   C2219596   4.494   5.839  10.388  0.8418 -0.2122 -0.0936
  173SOPE   H2R19597   4.397   5.890  10.405  1.4953  1.6150 -1.7088
  173SOPE   H2S19598   4.476   5.732  10.365 -0.2334  0.2863 -1.6128
  173SOPE    C319599   4.773   5.562  10.609 -0.5645  0.8024 -0.2094
  173SOPE    HX19600   4.697   5.484  10.633  1.9724 -1.5143  0.5473
  173SOPE    HY19601   4.852   5.569  10.687 -0.0669  0.7364 -0.7007
  173SOPE   O3119602   4.814   5.538  10.472  0.5758 -0.6524  0.4259
  173SOPE   C3119603   4.932   5.597  10.447  0.2894 -0.3031  0.7003
  173SOPE   O3219604   4.991   5.676  10.509 -0.3858 -0.5915  0.0754
  173SOPE   C3219605   4.992   5.531  10.319 -0.5911  0.7284  0.1884
  173SOPE   H2X19606   4.940   5.572  10.230  1.0912  1.1632 -0.5936
  173SOPE   H2Y19607   4.969   5.422  10.331 -0.3051  0.7699  1.2193
  173SOPE   C2319608   4.545   5.929  10.270  0.1250 -0.2331  0.5249
  173SOPE   H3R19609   4.597   6.024  10.296  0.5644 -0.0554 -0.9985
  173SOPE   H3S19610   4.448   5.957  10.223  0.2793 -0.6264 -0.0269
  173SOPE   C2419611   4.624   5.861  10.154 -0.2939  0.6497 -0.5741
  173SOPE   H4R19612   4.730   5.850  10.187  0.2567 -0.4259 -2.6255
  173SOPE   H4S19613   4.581   5.760  10.137  2.6474 -0.2205 -3.1997
  173SOPE   C2519614   4.612   5.945  10.027 -0.3930 -0.4209  0.1905
  173SOPE   H5R19615   4.503   5.964  10.014 -0.2353 -1.0142 -2.2668
  173SOPE   H5S19616   4.661   6.044  10.044 -0.9055 -0.2837  0.8892
  173SOPE   C2619617   4.676   5.887   9.899 -0.6179 -0.3734 -0.0504
  173SOPE   H6R19618   4.681   5.956   9.812 -0.7324 -1.8352 -1.2234
  173SOPE   H6S19619   4.780   5.857   9.922  0.0411  1.0690 -1.0676
  173SOPE   C2719620   4.592   5.770   9.845  0.2826 -0.1784 -0.8550
  173SOPE   H7R19621   4.570   5.710   9.936  0.3363 -1.2640 -1.5493
  173SOPE   H7S19622   4.495   5.817   9.816  0.2284  0.8817  0.9108
  173SOPE   C2819623   4.643   5.686   9.723  0.1450  0.0122 -0.1005
  173SOPE   H8R19624   4.565   5.611   9.702 -1.7740  1.0657  2.9189
  173SOPE   H8S19625   4.646   5.752   9.633  0.5940 -0.4696 -0.4385
  173SOPE   C2919626   4.776   5.613   9.743 -0.1406 -0.1484 -0.0722
  173SOPE   H9119627   4.859   5.660   9.799 -1.0166 -0.6043  1.6413
  173SOPE  C21019628   4.819   5.491   9.700  0.0174 -0.6051  0.2542
  173SOPE  H10119629   4.921   5.463   9.733 -0.7602 -2.5235  1.0989
  173SOPE  C21119630   4.745   5.385   9.625 -0.3517  0.0125 -0.1689
  173SOPE  H11R19631   4.637   5.404   9.643  0.4067  0.3846  4.4706
  173SOPE  H11S19632   4.758   5.293   9.686 -0.2890 -0.2139 -0.5262
  173SOPE  C21219633   4.787   5.364   9.469  0.5961 -0.5044  0.3219
  173SOPE  H12R19634   4.737   5.269   9.441  0.3719 -0.1063 -0.6521
  173SOPE  H12S19635   4.894   5.336   9.480  1.1011  0.7206 -1.3731
  173SOPE  C21319636   4.760   5.490   9.385  0.3039 -0.1279  0.7849
  173SOPE  H13R19637   4.830   5.569   9.419  0.3438  0.5114 -0.7256
  173SOPE  H13S19638   4.657   5.520   9.415  0.4928  1.2010  0.1343
  173SOPE  C21419639   4.750   5.464   9.235 -0.3248  0.2748  0.4355
  173SOPE  H14R19640   4.855   5.450   9.202 -0.6236  0.0576 -0.4356
  173SOPE  H14S19641   4.707   5.557   9.193 -0.9519 -1.0397 -1.9243
  173SOPE  C21519642   4.666   5.340   9.192  0.1338  0.3204 -0.0834
  173SOPE  H15R19643   4.568   5.342   9.244 -0.3067  0.2870 -0.9013
  173SOPE  H15S19644   4.727   5.252   9.221  0.4350  0.3585 -0.5827
  173SOPE  C21619645   4.644   5.326   9.032 -0.2271 -0.1642 -0.5494
  173SOPE  H16R19646   4.571   5.405   9.004 -0.0437  0.0275 -0.4892
  173SOPE  H16S19647   4.596   5.228   9.012 -1.4502  0.3036  0.0314
  173SOPE  C21719648   4.772   5.338   8.943 -1.0087  0.2789 -0.1262
  173SOPE  H17R19649   4.858   5.294   8.997 -1.2713  1.3584  1.2168
  173SOPE  H17S19650   4.791   5.447   8.929  0.6169 -0.2287 -2.0112
  173SOPE  C21819651   4.752   5.274   8.808 -0.1309  1.0712 -0.3190
  173SOPE  H18R19652   4.841   5.292   8.744 -0.0644 -2.2121 -1.2290
  173SOPE  H18S19653   4.660   5.315   8.761 -0.8913 -1.4121 -1.0684
  173SOPE  H18T19654   4.750   5.163   8.817  2.6025  1.0630  0.4059
  173SOPE   C3319655   5.141   5.557  10.309  0.5806 -0.3494  0.2332
  173SOPE   H3X19656   5.194   5.481  10.371  0.7934  0.2166  0.7444
  173SOPE   H3Y19657   5.167   5.654  10.355 -1.8695  0.1233  0.6525
  173SOPE   C3419658   5.188   5.548  10.166  0.8865  0.8789 -0.1297
  173SOPE   H4X19659   5.288   5.499  10.167 -0.1488 -1.3140 -1.4716
  173SOPE   H4Y19660   5.197   5.647  10.117 -1.2756 -0.6478 -3.8264
  173SOPE   C3519661   5.112   5.457  10.063  0.4970  0.0087  0.2176
  173SOPE   H5X19662   5.015   5.502  10.033 -1.1388 -3.2205  0.3282
  173SOPE   H5Y19663   5.105   5.359  10.117 -1.8417  0.6526  1.1495
  173SOPE   C3619664   5.195   5.421   9.938 -0.5778  0.5484 -0.0639
  173SOPE   H6X19665   5.135   5.355   9.872  0.7598  0.6408 -1.3748
  173SOPE   H6Y19666   5.281   5.360   9.973 -1.1636  0.1490  0.7008
  173SOPE   C3719667   5.239   5.537   9.852  0.1479 -0.2941 -0.0327
  173SOPE   H7X19668   5.316   5.602   9.898  0.0787  0.0308 -0.3775
  173SOPE   H7Y19669   5.149   5.600   9.835 -0.4085 -1.2974 -0.8555
  173SOPE   C3819670   5.294   5.507   9.712 -0.9394 -0.2094  0.3488
  173SOPE   H8X19671   5.212   5.452   9.660 -2.0075  0.9834  0.7534
  173SOPE   H8Y19672   5.389   5.450   9.713  0.1564  1.5757 -0.6783
  173SOPE   C3919673   5.302   5.638   9.632 -0.1195 -0.1907 -0.3793
  173SOPE   H9X19674   5.394   5.694   9.659 -0.8128  1.7698 -1.9190
  173SOPE   H9Y19675   5.215   5.704   9.650  0.3840  0.9167 -1.8767
  173SOPE  C31019676   5.312   5.597   9.483 -0.2035  0.3106 -0.9040
  173SOPE  H10X19677   5.222   5.543   9.448  0.9455 -1.6659 -0.8994
  173SOPE  H10Y19678   5.399   5.530   9.464 -0.1150 -0.1748  1.0402
  173SOPE  C31119679   5.350   5.716   9.389 -0.0850  0.6456  0.0840
  173SOPE  H11X19680   5.436   5.775   9.429  0.6359 -0.4185  0.1157
  173SOPE  H11Y19681   5.269   5.792   9.382  0.1494  0.9502  0.6622
  173SOPE  C31219682   5.370   5.657   9.241  0.1941 -0.1559 -0.9683
  173SOPE  H12X19683   5.466   5.602   9.254 -0.2121 -0.6205  0.0808
  173SOPE  H12Y19684   5.391   5.748   9.180  1.6569 -0.7237 -1.3463
  173SOPE  C31319685   5.259   5.574   9.174 -0.5437 -0.5301 -0.2831
  173SOPE  H13X19686   5.154   5.611   9.178  0.9389  3.9116  1.0285
  173SOPE  H13Y19687   5.258   5.480   9.234 -0.6845  0.4876  1.3376
  173SOPE  C31419688   5.294   5.540   9.031 -0.1990 -0.2983  0.4923
  173SOPE  H14X19689   5.227   5.464   8.986 -0.2050 -0.8211  1.3790
  173SOPE  H14Y19690   5.392   5.489   9.014  0.0502  0.0746  0.8026
  173SOPE  C31519691   5.296   5.655   8.930 -0.1344  0.8165  0.4148
  173SOPE  H15X19692   5.350   5.742   8.974 -0.5835  1.1531  0.3147
  173SOPE  H15Y19693   5.193   5.696   8.915 -0.3658 -0.7684 -2.6074
  173SOPE  C31619694   5.349   5.620   8.789 -1.0262  0.5285 -0.1553
  173SOPE  H16X19695   5.411   5.529   8.795 -2.2082 -0.1374  2.6201
  173SOPE  H16Y19696   5.401   5.703   8.738 -0.9603  1.0640  0.7633
  173SOPE  C31719697   5.229   5.578   8.704  0.5351  0.1746 -0.5884
  173SOPE  H17X19698   5.159   5.657   8.670  2.0145  1.2965 -1.0792
  173SOPE  H17Y19699   5.171   5.499   8.757  0.2927  0.2797 -0.6937
  173SOPE  C31819700   5.264   5.518   8.569 -1.0474 -0.7185 -0.7029
  173SOPE  H18X19701   5.329   5.429   8.583  0.6840  0.7136  0.4274
  173SOPE  H18Y19702   5.328   5.587   8.511  0.9034 -1.9902 -0.1042
  173SOPE  H18Z19703   5.177   5.484   8.507 -0.7659 -0.3997 -1.2757
  174SOPE     N19704   4.295   5.514  10.927  0.3486 -0.2811 -0.3475
  174SOPE   HN119705   4.287   5.421  10.882 -2.0739  1.2502 -3.3382
  174SOPE   HN219706   4.302   5.597  10.864  0.0551  2.5594  3.1683
  174SOPE   HN319707   4.376   5.504  10.990 -0.3416 -2.2113  0.2693
  174SOPE   C1219708   4.168   5.524  11.013 -0.4098 -0.1260  0.4005
  174SOPE  H12A19709   4.158   5.632  11.035 -1.6483  0.0760 -1.0403
  174SOPE  H12B19710   4.184   5.462  11.104  2.4396  0.8862  0.6318
  174SOPE   C1119711   4.049   5.479  10.921 -0.2191 -0.0038 -0.1049
  174SOPE  H11A19712   4.043   5.567  10.854 -2.6526  0.5600  0.8114
  174SOPE  H11B19713   3.955   5.472  10.979 -0.6601  1.6937 -0.5923
  174SOPE     P19714   4.021   5.227  10.852 -0.2504  0.1534 -0.0895
  174SOPE   O1319715   3.876   5.252  10.839  0.1793  0.6843  0.0642
  174SOPE   O1419716   4.077   5.164  10.974  0.1333  0.4157  0.3259
  174SOPE   O1219717   4.088   5.359  10.843 -0.3427 -0.8433  0.0409
  174SOPE   O1119718   4.069   5.144  10.720 -0.0826 -0.1382 -0.0225
  174SOPE    C119719   4.204   5.116  10.682 -0.0746  0.0768  0.3568
  174SOPE    HA19720   4.210   5.005  10.674 -1.7361  0.1539 -2.2860
  174SOPE    HB19721   4.288   5.148  10.748  0.9069  2.1873 -1.8592
  174SOPE    C219722   4.244   5.145  10.531  0.2003  0.1256 -0.4484
  174SOPE    HS19723   4.346   5.104  10.513 -0.1157 -0.4179 -1.0102
  174SOPE   O2119724   4.243   5.278  10.491 -0.5472 -0.9003 -0.7901
  174SOPE   C2119725   4.298   5.369  10.559 -0.3741 -0.6765  0.4530
  174SOPE   O2219726   4.364   5.349  10.659 -0.0431  0.2919 -0.2578
  174SOPE   C2219727   4.291   5.496  10.470  0.0681  0.3224  0.3003
  174SOPE   H2R19728   4.369   5.566  10.508 -0.5911  1.4514 -0.4013
  174SOPE   H2S19729   4.192   5.543  10.488 -2.0432 -3.0930 -1.7829
  174SOPE    C319730   4.165   5.059  10.433  0.3273 -0.2889 -0.0210
  174SOPE    HX19731   4.064   5.098  10.459  0.2064 -0.3325 -0.4168
  174SOPE    HY19732   4.168   4.949  10.443  0.4934 -0.8731 -5.1100
  174SOPE   O3119733   4.189   5.107  10.303  0.1112 -0.2539 -0.0144
  174SOPE   C3119734   4.296   5.061  10.236 -0.2607 -0.4742  0.5030
  174SOPE   O3219735   4.393   5.002  10.291 -0.4167 -0.1784  0.6146
  174SOPE   C3219736   4.282   5.094  10.085 -0.5120 -0.9917 -0.1584
  174SOPE   H2X19737   4.317   5.199  10.090  1.0658 -1.2699 -3.8441
  174SOPE   H2Y19738   4.183   5.067  10.041  1.5900 -1.5576 -4.8100
  174SOPE   C2319739   4.323   5.483  10.322 -0.4936 -0.3399  0.2940
  174SOPE   H3R19740   4.313   5.579  10.267 -0.7282 -2.1121 -2.8856
  174SOPE   H3S19741   4.238   5.422  10.285 -1.8544  2.1454 -0.8025
  174SOPE   C2419742   4.465   5.421  10.293 -0.1392  0.6229  1.1078
  174SOPE   H4R19743   4.531   5.449  10.379  2.0945 -2.3482  0.4834
  174SOPE   H4S19744   4.458   5.310  10.292  0.9269  0.5567 -0.6508
  174SOPE   C2519745   4.513   5.473  10.166 -0.0328 -0.1354 -0.3390
  174SOPE   H5R19746   4.442   5.439  10.087  0.2394 -0.3231 -0.5032
  174SOPE   H5S19747   4.499   5.582  10.156  1.6679  0.0985 -0.3247
  174SOPE   C2619748   4.655   5.431  10.124 -0.4419  0.0245  0.3895
  174SOPE   H6R19749   4.674   5.441  10.015 -1.6360 -0.4421  0.1358
  174SOPE   H6S19750   4.728   5.489  10.184 -0.9843  1.0376  0.0760
  174SOPE   C2719751   4.684   5.280  10.153  0.4069 -0.5051 -0.1673
  174SOPE   H7R19752   4.682   5.263  10.263  0.4888 -3.4184 -0.5682
  174SOPE   H7S19753   4.606   5.222  10.100 -1.0028  1.3708 -0.1935
  174SOPE   C2819754   4.822   5.219  10.111 -0.1365  0.1698  0.5355
  174SOPE   H8R19755   4.844   5.262  10.011 -0.8150 -3.1547 -1.1393
  174SOPE   H8S19756   4.904   5.263  10.172  0.9187  0.0555 -0.7556
  174SOPE   C2919757   4.809   5.070  10.123  0.4377 -0.5322  0.4874
  174SOPE   H9119758   4.792   5.030  10.224 -1.0523 -1.2163 -0.0301
  174SOPE  C21019759   4.803   4.977  10.024 -0.2496  0.0128  0.2899
  174SOPE  H10119760   4.804   4.868  10.043 -1.1568  0.3956  2.6361
  174SOPE  C21119761   4.816   5.014   9.880 -0.4693  0.6690 -0.4050
  174SOPE  H11R19762   4.765   5.110   9.857  0.0605  1.4589  1.5732
  174SOPE  H11S19763   4.766   4.940   9.814 -0.2342  1.9183 -2.0351
  174SOPE  C21219764   4.963   5.031   9.833 -0.8141 -0.3452 -0.1772
  174SOPE  H12R19765   5.024   4.938   9.838  0.3644  0.4819  1.2741
  174SOPE  H12S19766   5.005   5.122   9.880 -0.8177 -1.5446  2.2537
  174SOPE  C21319767   4.974   5.059   9.680  0.5904  0.1927 -0.2012
  174SOPE  H13R19768   5.053   5.136   9.669  0.4823  0.3103 -0.1512
  174SOPE  H13S19769   4.876   5.098   9.645  0.5282 -0.0635 -0.3119
  174SOPE  C21419770   5.015   4.943   9.592  0.5510 -0.2085  0.2850
  174SOPE  H14R19771   5.124   4.924   9.595  1.0460  2.5321  0.8335
  174SOPE  H14S19772   4.991   4.967   9.486 -1.2034  0.4036  0.8016
  174SOPE  C21519773   4.923   4.814   9.608 -0.2096 -0.3266 -0.0038
  174SOPE  H15R19774   4.820   4.832   9.571  0.0456 -4.7722 -3.2593
  174SOPE  H15S19775   4.913   4.795   9.717  2.5523  1.0671  0.5333
  174SOPE  C21619776   4.980   4.692   9.545  0.1276  0.0232 -0.2054
  174SOPE  H16R19777   5.028   4.721   9.449  0.4536 -0.6029 -0.2318
  174SOPE  H16S19778   4.897   4.619   9.537 -0.8034  0.9700  0.5584
  174SOPE  C21719779   5.101   4.627   9.621 -0.3278  0.4092  0.5490
  174SOPE  H17R19780   5.190   4.693   9.623  1.4228 -1.8164 -1.3072
  174SOPE  H17S19781   5.139   4.539   9.565 -1.7214  0.5434 -0.6464
  174SOPE  C21819782   5.068   4.582   9.766  0.4288  0.6703 -0.3381
  174SOPE  H18R19783   4.990   4.506   9.789  0.3316  0.3807 -1.5868
  174SOPE  H18S19784   5.047   4.670   9.831 -0.7055 -1.6303  2.5505
  174SOPE  H18T19785   5.165   4.554   9.813  0.9593  0.9239 -1.2753
  174SOPE   C3319786   4.388   5.019  10.000 -0.2631  0.2154 -0.6479
  174SOPE   H3X19787   4.372   4.909   9.994 -0.8671  0.1864  1.0032
  174SOPE   H3Y19788   4.485   5.035  10.051 -0.0359 -3.4764  0.1918
  174SOPE   C3419789   4.405   5.082   9.859 -0.2150  0.8658 -0.2249
  174SOPE   H4X19790   4.500   5.043   9.817  1.0932  2.1212  1.4832
  174SOPE   H4Y19791   4.421   5.191   9.875  1.8760  0.3536  1.4012
  174SOPE   C3519792   4.287   5.053   9.767 -0.3956  0.7880  0.0378
  174SOPE   H5X19793   4.193   5.107   9.794 -1.6605  0.0423 -2.7288
  174SOPE   H5Y19794   4.260   4.945   9.761 -1.7060  0.9726  2.0494
  174SOPE   C3619795   4.321   5.101   9.623 -0.7454  0.1992 -0.4917
  174SOPE   H6X19796   4.358   5.203   9.602 -0.4182  0.5572  1.7063
  174SOPE   H6Y19797   4.232   5.091   9.556 -0.3708 -0.8490 -0.8517
  174SOPE   C3719798   4.430   5.013   9.557  0.4367 -0.1342 -1.0598
  174SOPE   H7X19799   4.429   4.910   9.597 -2.4642  0.7481  1.2694
  174SOPE   H7Y19800   4.529   5.059   9.581 -1.0507  1.6530  1.9848
  174SOPE   C3819801   4.416   5.016   9.401  0.4014  0.3404  0.6647
  174SOPE   H8X19802   4.442   5.123   9.380 -1.9805  1.3331  2.5849
  174SOPE   H8Y19803   4.314   4.979   9.374  0.5097  0.6152 -0.1478
  174SOPE   C3919804   4.530   4.941   9.335  0.4437  0.5283 -0.6352
  174SOPE   H9X19805   4.504   4.837   9.362  0.7773  0.2061 -1.5278
  174SOPE   H9Y19806   4.629   4.967   9.379  0.7861 -0.5738 -0.7367
  174SOPE  C31019807   4.530   4.966   9.180 -1.0098  0.1323  0.3872
  174SOPE  H10X19808   4.630   4.929   9.148 -0.5589 -0.3871  2.3238
  174SOPE  H10Y19809   4.517   5.075   9.162 -3.2755 -0.1237  0.3926
  174SOPE  C31119810   4.431   4.883   9.103 -0.3891 -0.1316  0.3527
  174SOPE  H11X19811   4.328   4.894   9.143 -0.2723  0.6115  0.4564
  174SOPE  H11Y19812   4.447   4.773   9.102  1.0883  0.0807  0.4902
  174SOPE  C31219813   4.405   4.940   8.956 -0.3185  0.4965  0.1662
  174SOPE  H12X19814   4.345   5.034   8.955 -2.1713 -0.6554  0.4630
  174SOPE  H12Y19815   4.339   4.864   8.908  0.1121  1.0500 -1.3538
  174SOPE  C31319816   4.531   4.959   8.872 -0.1442  0.2297 -1.0339
  174SOPE  H13X19817   4.590   5.045   8.912 -0.1723 -0.7255  1.1201
  174SOPE  H13Y19818   4.510   5.008   8.774  0.1773 -1.1659 -1.8214
  174SOPE  C31419819   4.606   4.829   8.857  0.2273  0.6261  0.1272
  174SOPE  H14X19820   4.537   4.758   8.807 -0.3490  0.8114  0.6552
  174SOPE  H14Y19821   4.633   4.776   8.951 -0.0644  1.4294  0.6720
  174SOPE  C31519822   4.739   4.849   8.787 -0.5823  0.0468 -0.0657
  174SOPE  H15X19823   4.802   4.917   8.849  0.8976 -0.9387 -0.4510
  174SOPE  H15Y19824   4.709   4.899   8.692 -0.9968  0.2030  0.1494
  174SOPE  C31619825   4.805   4.714   8.762 -0.0542  0.1505 -0.5084
  174SOPE  H16X19826   4.746   4.641   8.821 -1.0460  2.8074  1.8834
  174SOPE  H16Y19827   4.905   4.717   8.812  0.3271 -0.9476 -1.1811
  174SOPE  C31719828   4.802   4.666   8.618 -1.4235  0.8895  0.1072
  174SOPE  H17X19829   4.882   4.723   8.567  1.4217 -0.9957  2.2853
  174SOPE  H17Y19830   4.702   4.676   8.570 -0.9175 -1.9366 -1.6729
  174SOPE  C31819831   4.838   4.523   8.616  0.1288 -0.1366 -1.4233
  174SOPE  H18X19832   4.848   4.470   8.519  0.8124 -0.0265 -1.4192
  174SOPE  H18Y19833   4.778   4.452   8.677  2.5488 -0.7460  0.3490
  174SOPE  H18Z19834   4.940   4.522   8.660 -0.3127  0.9587 -0.3452
  175SOPE     N19835   0.012   6.774  10.735 -0.4295 -0.5494  0.2930
  175SOPE   HN119836   0.115   6.761  10.733 -0.6129 -1.9559 -0.2013
  175SOPE   HN219837  -0.014   6.754  10.636  1.0318  3.4085 -0.9987
  175SOPE   HN319838   0.002   6.877  10.747  1.1904 -0.2617 -0.6681
  175SOPE   C1219839  -0.058   6.689  10.843  0.7178  0.0386  0.0015
  175SOPE  H12A19840  -0.038   6.745  10.937  3.1503  0.4471 -0.7297
  175SOPE  H12B19841  -0.014   6.588  10.836  1.2821  0.2870 -0.0550
  175SOPE   C1119842  -0.212   6.692  10.819  0.0722 -0.0542  0.2871
  175SOPE  H11A19843  -0.246   6.796  10.839 -4.3846 -0.1579 -5.5866
  175SOPE  H11B19844  -0.259   6.620  10.890 -1.4611 -1.0619 -1.7048
  175SOPE     P19845  -0.383   6.640  10.615  0.2346 -0.2257  0.1599
  175SOPE   O1319846  -0.439   6.774  10.580 -0.7141 -0.2053 -0.1749
  175SOPE   O1419847  -0.467   6.556  10.701  0.3562  0.2298  0.1542
  175SOPE   O1219848  -0.239   6.647  10.686  0.1677 -0.1474 -0.0192
  175SOPE   O1119849  -0.362   6.560  10.483 -0.3638  0.5618 -0.0689
  175SOPE    C119850  -0.241   6.515  10.426 -0.2176 -0.0856  0.4007
  175SOPE    HA19851  -0.228   6.407  10.451  0.8620  0.0640  0.5290
  175SOPE    HB19852  -0.152   6.559  10.475  0.6470  0.4033 -1.5462
  175SOPE    C219853  -0.241   6.527  10.270 -0.4580  0.2202  0.3834
  175SOPE    HS19854  -0.234   6.633  10.238 -0.6530  0.2911  0.5727
  175SOPE   O2119855  -0.361   6.465  10.225 -0.6300 -0.2280  0.1022
  175SOPE   C2119856  -0.461   6.549  10.212 -0.2870 -0.9438  0.1296
  175SOPE   O2219857  -0.453   6.672  10.217  0.6919  0.0722 -0.3861
  175SOPE   C2219858  -0.597   6.474  10.208  0.5011  0.5044 -0.5122
  175SOPE   H2R19859  -0.614   6.434  10.310  0.8255  0.2426 -0.5607
  175SOPE   H2S19860  -0.587   6.385  10.143 -2.5771 -0.0776 -0.2267
  175SOPE    C319861  -0.120   6.450  10.219 -0.7226 -0.8051  0.3676
  175SOPE    HX19862  -0.093   6.357  10.274  1.6924 -0.5775 -0.3531
  175SOPE    HY19863  -0.031   6.513  10.239  0.0886 -1.0644 -2.2025
  175SOPE   O3119864  -0.121   6.424  10.075  0.2093 -0.1908 -0.2360
  175SOPE   C3119865  -0.157   6.297  10.032 -0.6097  0.4673 -1.5438
  175SOPE   O3219866  -0.183   6.203  10.102  0.0697 -0.0106  0.2419
  175SOPE   C3219867  -0.125   6.303   9.885  0.5173 -0.2185 -0.8791
  175SOPE   H2X19868  -0.128   6.200   9.843  2.3630 -0.4375 -0.4924
  175SOPE   H2Y19869  -0.023   6.345   9.872  0.4095 -0.1193 -1.4268
  175SOPE   C2319870  -0.715   6.568  10.173  0.1268 -0.3990  0.1838
  175SOPE   H3R19871  -0.727   6.649  10.248 -1.2158 -1.2214  0.8703
  175SOPE   H3S19872  -0.807   6.511  10.194  0.0176  0.2501  1.5187
  175SOPE   C2419873  -0.706   6.626  10.033  0.1681 -0.3825 -0.9213
  175SOPE   H4R19874  -0.602   6.650  10.001 -0.4915  0.3825 -2.5428
  175SOPE   H4S19875  -0.742   6.555   9.957 -1.7511 -1.3796  0.8682
  175SOPE   C2519876  -0.789   6.752  10.026  0.8283 -0.0660 -0.1983
  175SOPE   H5R19877  -0.768   6.824  10.108 -0.6078  0.9477 -0.6882
  175SOPE   H5S19878  -0.761   6.807   9.933  0.2436  1.6962  0.6369
  175SOPE   C2619879  -0.934   6.706  10.018 -0.3011 -0.6544 -0.2791
  175SOPE   H6R19880  -0.936   6.635   9.932  1.3050  0.2038 -1.0501
  175SOPE   H6S19881  -0.948   6.653  10.115  1.6846 -0.8305 -0.0637
  175SOPE   C2719882  -1.048   6.809   9.999  0.3731  0.4072  0.8083
  175SOPE   H7R19883  -1.067   6.872  10.088  1.1416  2.0963 -0.1889
  175SOPE   H7S19884  -1.018   6.881   9.919  0.2671 -1.4583 -0.9350
  175SOPE   C2819885  -1.191   6.747   9.956  0.1488  0.1283 -0.4337
  175SOPE   H8R19886  -1.264   6.829   9.938  0.8991  0.8026 -0.4501
  175SOPE   H8S19887  -1.180   6.706   9.853  0.7378 -0.4500 -0.1399
  175SOPE   C2919888  -1.252   6.646  10.046 -1.0762 -0.5399  0.2468
  175SOPE   H9119889  -1.183   6.622  10.128  1.6028  0.1025 -1.7485
  175SOPE  C21019890  -1.363   6.574  10.029 -0.8348  0.8362  0.0553
  175SOPE  H10119891  -1.398   6.518  10.117 -1.6841 -1.4324 -1.6949
  175SOPE  C21119892  -1.459   6.574   9.916  0.2866  0.0610 -0.4022
  175SOPE  H11R19893  -1.434   6.633   9.826 -0.0056 -1.0910 -1.2523
  175SOPE  H11S19894  -1.554   6.624   9.943  1.2953  0.9930  1.4978
  175SOPE  C21219895  -1.492   6.428   9.876 -0.1073  0.4151 -0.4076
  175SOPE  H12R19896  -1.511   6.362   9.964  0.5920  0.0262 -0.5453
  175SOPE  H12S19897  -1.412   6.379   9.817  0.6760 -1.4289  2.0892
  175SOPE  C21319898  -1.614   6.430   9.787  0.3094 -0.2273 -0.6559
  175SOPE  H13R19899  -1.688   6.506   9.821  1.3079  0.2761  0.4109
  175SOPE  H13S19900  -1.667   6.335   9.806 -0.3429  0.1258 -0.6943
  175SOPE  C21419901  -1.589   6.454   9.636  0.3447  0.2517 -1.3042
  175SOPE  H14R19902  -1.530   6.365   9.604 -2.0575 -2.5557  1.7362
  175SOPE  H14S19903  -1.534   6.550   9.629 -0.4973  0.9535  1.2498
  175SOPE  C21519904  -1.709   6.461   9.534  0.6358  0.1712  0.7655
  175SOPE  H15R19905  -1.782   6.541   9.560 -1.3470 -1.8609  1.6316
  175SOPE  H15S19906  -1.766   6.366   9.538  4.4102 -2.3874 -2.3008
  175SOPE  C21619907  -1.652   6.476   9.391  0.3845  0.5260 -0.3583
  175SOPE  H16R19908  -1.562   6.416   9.367 -2.2219 -4.3815  1.3113
  175SOPE  H16S19909  -1.605   6.576   9.382  0.4901  0.5095 -0.0128
  175SOPE  C21719910  -1.755   6.453   9.281  0.2868  0.0196 -0.0370
  175SOPE  H17R19911  -1.846   6.498   9.326 -0.2961 -2.5595  1.4306
  175SOPE  H17S19912  -1.770   6.345   9.260 -1.8481  0.6637 -2.0347
  175SOPE  C21819913  -1.725   6.528   9.148 -0.6201  0.0669 -0.1177
  175SOPE  H18R19914  -1.807   6.500   9.079 -0.8723 -1.6669  0.8638
  175SOPE  H18S19915  -1.627   6.492   9.110 -0.4415  0.0259  0.3692
  175SOPE  H18T19916  -1.736   6.638   9.163  1.2885  0.0653  1.6512
  175SOPE   C3319917  -0.236   6.380   9.804  0.0166  0.0972 -0.5402
  175SOPE   H3X19918  -0.210   6.488   9.807  0.8918 -0.1259  0.1036
  175SOPE   H3Y19919  -0.336   6.355   9.846  0.1286  1.9956  0.9401
  175SOPE   C3419920  -0.245   6.334   9.657 -0.2159 -0.2183 -0.3263
  175SOPE   H4X19921  -0.303   6.409   9.598 -0.7250  0.6489  1.2326
  175SOPE   H4Y19922  -0.308   6.243   9.644 -2.5438  1.4309 -0.9440
  175SOPE   C3519923  -0.107   6.323   9.589 -0.2924 -0.2093 -0.3971
  175SOPE   H5X19924  -0.066   6.221   9.603 -0.5193 -0.5997 -2.3846
  175SOPE   H5Y19925  -0.041   6.405   9.627 -0.8773  0.5215 -0.9334
  175SOPE   C3619926  -0.114   6.349   9.441 -0.4729 -0.0984  0.3094
  175SOPE   H6X19927  -0.138   6.457   9.432 -1.0100 -0.2916 -0.5804
  175SOPE   H6Y19928  -0.188   6.280   9.396  0.5092 -0.8267 -0.1931
  175SOPE   C3719929   0.023   6.344   9.361  0.2952  0.1231  0.4031
  175SOPE   H7X19930   0.075   6.246   9.364  2.6120  1.0251 -4.7709
  175SOPE   H7Y19931   0.098   6.411   9.407 -0.5764  2.2662 -1.2065
  175SOPE   C3819932  -0.019   6.371   9.214  0.7041  0.0648 -0.2581
  175SOPE   H8X19933   0.072   6.415   9.168  2.2706 -1.6679  1.0992
  175SOPE   H8Y19934  -0.108   6.437   9.208  1.3805  0.9713 -0.4298
  175SOPE   C3919935  -0.039   6.242   9.135 -0.5911  0.5053 -0.3429
  175SOPE   H9X19936  -0.097   6.171   9.199 -0.9466  2.9415  2.1272
  175SOPE   H9Y19937   0.064   6.207   9.109 -1.3977 -1.0555 -1.5504
  175SOPE  C31019938  -0.111   6.260   9.000  0.1512  0.1464 -0.2602
  175SOPE  H10X19939  -0.039   6.323   8.944 -1.1614  0.9336 -1.1030
  175SOPE  H10Y19940  -0.205   6.310   9.030 -0.5280 -1.1433 -0.2200
  175SOPE  C31119941  -0.139   6.122   8.938  0.1055  0.0355  0.1494
  175SOPE  H11X19942  -0.189   6.058   9.014  0.4873 -1.9281 -1.2109
  175SOPE  H11Y19943  -0.043   6.076   8.906 -0.3639 -0.5547 -0.4094
  175SOPE  C31219944  -0.214   6.126   8.809 -0.0563  0.3255 -0.2123
  175SOPE  H12X19945  -0.164   6.078   8.721  0.1088 -2.5525  1.3905
  175SOPE  H12Y19946  -0.231   6.235   8.794  2.7224  1.0645  1.6395
  175SOPE  C31319947  -0.353   6.060   8.821 -0.5702  0.0527  0.4885
  175SOPE  H13X19948  -0.392   6.107   8.913  1.0487 -0.6381  1.5444
  175SOPE  H13Y19949  -0.332   5.952   8.840  0.6337 -0.2509 -2.3065
  175SOPE  C31419950  -0.449   6.091   8.705  0.6616 -0.5290  0.6609
  175SOPE  H14X19951  -0.403   6.066   8.607  0.4341 -0.4752  0.5410
  175SOPE  H14Y19952  -0.471   6.199   8.693  0.5388 -0.7737 -1.3993
  175SOPE  C31519953  -0.585   6.014   8.725  0.2740  0.1683 -0.0309
  175SOPE  H15X19954  -0.608   6.023   8.833  1.7176 -1.4775  0.4257
  175SOPE  H15Y19955  -0.573   5.907   8.701 -3.2803 -0.2706 -0.1670
  175SOPE  C31619956  -0.700   6.088   8.656  0.0756 -0.0419 -0.2259
  175SOPE  H16X19957  -0.703   6.196   8.682 -0.4771 -0.1299  0.0689
  175SOPE  H16Y19958  -0.798   6.046   8.688 -1.0284  1.7466 -1.1308
  175SOPE  C31719959  -0.696   6.059   8.505 -0.2404  0.1589 -0.0986
  175SOPE  H17X19960  -0.706   5.949   8.496 -0.9009  0.1390  0.7433
  175SOPE  H17Y19961  -0.603   6.071   8.446  0.7125  0.1141  1.3553
  175SOPE  C31819962  -0.814   6.125   8.434 -0.7098 -0.4836  0.7824
  175SOPE  H18X19963  -0.800   6.233   8.414 -0.1968 -0.9449 -1.4107
  175SOPE  H18Y19964  -0.905   6.092   8.488  0.2747 -0.4001  2.5461
  175SOPE  H18Z19965  -0.826   6.074   8.336  2.8673 -0.7152  0.3856
  176SOPE     N19966   6.337   5.639  10.883 -0.8497  0.0273  0.2003
  176SOPE   HN119967   6.407   5.581  10.935 -1.8564 -0.8613  0.5735
  176SOPE   HN219968   6.265   5.568  10.862  0.2878 -2.3338  3.6750
  176SOPE   HN319969   6.387   5.676  10.800 -0.8250 -1.2906 -0.3889
  176SOPE   C1219970   6.272   5.753  10.954 -1.2197 -0.2140 -0.5332
  176SOPE  H12A19971   6.342   5.839  10.960 -1.1694 -0.1966 -1.3384
  176SOPE  H12B19972   6.273   5.709  11.056  0.1263 -0.9245 -0.8456
  176SOPE   C1119973   6.133   5.795  10.896 -0.9293 -0.5768  0.6160
  176SOPE  H11A19974   6.078   5.873  10.953  0.9532  1.0948  0.1786
  176SOPE  H11B19975   6.065   5.707  10.887 -0.2149 -1.0220 -0.5177
  176SOPE     P19976   6.041   5.916  10.691  0.3607 -0.1943 -0.1566
  176SOPE   O1319977   6.083   5.928  10.551  0.4719 -0.5576 -0.3518
  176SOPE   O1419978   6.009   6.041  10.758  0.1342 -0.0400  0.3880
  176SOPE   O1219979   6.161   5.849  10.766  0.1180 -0.0641  0.1701
  176SOPE   O1119980   5.912   5.819  10.699  0.4122 -0.7403  0.0582
  176SOPE    C119981   5.927   5.685  10.654 -0.5755 -0.4537 -0.6846
  176SOPE    HA19982   5.897   5.618  10.737 -0.5556  1.1726  0.6637
  176SOPE    HB19983   6.029   5.661  10.616  0.3267 -0.5069  1.6909
  176SOPE    C219984   5.828   5.645  10.544  0.1940  0.1650  0.4754
  176SOPE    HS19985   5.821   5.534  10.543  0.4242  0.1445  0.8486
  176SOPE   O2119986   5.865   5.709  10.423 -0.7414  0.2256 -0.2558
  176SOPE   C2119987   5.950   5.637  10.353  0.5535 -0.7916 -0.0325
  176SOPE   O2219988   5.999   5.529  10.380  0.1599  1.1439  0.2932
  176SOPE   C2219989   6.007   5.728  10.239  0.8460  0.4804 -0.8117
  176SOPE   H2R19990   6.109   5.701  10.207  1.3529 -0.7936  1.7371
  176SOPE   H2S19991   5.985   5.834  10.264 -1.4020 -0.4302  1.2582
  176SOPE    C319992   5.682   5.683  10.580  0.2295 -0.2615 -0.1901
  176SOPE    HX19993   5.690   5.784  10.626  1.3543 -0.6406  0.4797
  176SOPE    HY19994   5.645   5.612  10.656  1.1478  0.0596  0.5750
  176SOPE   O3119995   5.597   5.679  10.462 -0.0560  0.0604 -0.1886
  176SOPE   C3119996   5.525   5.794  10.434 -0.0088  0.3268 -0.2622
  176SOPE   O3219997   5.519   5.892  10.505 -0.2502  0.4492 -0.4949
  176SOPE   C3219998   5.480   5.783  10.283  0.9977 -0.3936 -0.0185
  176SOPE   H2X19999   5.393   5.715  10.272  0.7986 -0.3784  1.2808
  176SOPE   H2Y20000   5.563   5.726  10.237 -0.5743 -1.9237 -1.0273
  176SOPE   C2320001   5.923   5.709  10.107  0.4629 -0.6837 -1.0102
  176SOPE   H3R20002   5.814   5.718  10.125  0.7205  1.2133 -0.3965
  176SOPE   H3S20003   5.940   5.608  10.064 -2.8370 -1.4276 -0.7191
  176SOPE   C2420004   5.968   5.808  10.002  0.0656 -0.6485  0.1344
  176SOPE   H4R20005   5.884   5.862   9.953 -1.7880 -2.6887  0.9753
  176SOPE   H4S20006   6.021   5.884  10.063  0.6520 -3.1839  2.8957
  176SOPE   C2520007   6.074   5.749   9.899 -0.3425  0.0166 -0.7752
  176SOPE   H5R20008   6.152   5.714   9.971 -2.0865 -0.6371  0.8355
  176SOPE   H5S20009   6.033   5.659   9.849 -0.1920 -0.4384 -0.0848
  176SOPE   C2620010   6.139   5.848   9.801  0.7082 -0.5928 -0.2907
  176SOPE   H6R20011   6.198   5.791   9.726  1.0876 -1.2384  0.4851
  176SOPE   H6S20012   6.053   5.884   9.742  0.5672 -1.7654 -0.8283
  176SOPE   C2720013   6.215   5.971   9.866 -0.2621  0.6470 -0.4365
  176SOPE   H7R20014   6.153   6.031   9.936 -0.7053  0.5098 -0.7140
  176SOPE   H7S20015   6.283   5.917   9.936  0.9462  0.9515 -1.3644
  176SOPE   C2820016   6.297   6.055   9.769  0.0384  0.1090 -0.6966
  176SOPE   H8R20017   6.374   6.110   9.827 -0.6753  0.7690 -0.3705
  176SOPE   H8S20018   6.359   5.983   9.712 -1.7334  0.5977 -3.3203
  176SOPE   C2920019   6.217   6.147   9.691 -0.4197  0.2038  0.4287
  176SOPE   H9120020   6.182   6.239   9.741 -0.3979  0.6976 -0.4520
  176SOPE  C21020021   6.194   6.137   9.562 -0.3399 -0.7897  0.3368
  176SOPE  H10120022   6.128   6.203   9.503  1.0601 -1.0849 -1.6056
  176SOPE  C21120023   6.241   6.023   9.464  0.6387  0.3603 -0.2396
  176SOPE  H11R20024   6.160   5.948   9.452  0.5915  0.1835  1.1302
  176SOPE  H11S20025   6.326   5.959   9.497 -0.2049 -0.1445  1.0388
  176SOPE  C21220026   6.276   6.088   9.326 -0.1029  0.8467  0.7797
  176SOPE  H12R20027   6.356   6.164   9.335 -1.4885  2.3984  0.3102
  176SOPE  H12S20028   6.187   6.149   9.298  0.0098  0.3834 -0.6066
  176SOPE  C21320029   6.303   5.985   9.211  0.3652  0.4990  0.0704
  176SOPE  H13R20030   6.408   5.949   9.222  0.7922  0.9218 -2.1643
  176SOPE  H13S20031   6.300   6.041   9.115  0.2267 -0.0452 -0.2425
  176SOPE  C21420032   6.209   5.861   9.205 -0.1221 -0.1261 -0.0797
  176SOPE  H14R20033   6.106   5.901   9.220 -0.1516 -0.4380  0.5514
  176SOPE  H14S20034   6.238   5.809   9.299 -1.9340 -1.5835 -0.2935
  176SOPE  C21520035   6.219   5.756   9.093 -0.5193 -0.4014 -0.6948
  176SOPE  H15R20036   6.187   5.792   8.993  0.7624  1.4661 -0.4670
  176SOPE  H15S20037   6.146   5.681   9.132 -2.5360  2.5334  1.4258
  176SOPE  C21620038   6.355   5.689   9.086  0.0343 -0.6462  0.4105
  176SOPE  H16R20039   6.399   5.670   9.186  2.7511  1.3227 -0.3658
  176SOPE  H16S20040   6.415   5.772   9.043  1.8946 -1.1336  1.9669
  176SOPE  C21720041   6.344   5.558   9.007  0.3359  0.1590 -0.2595
  176SOPE  H17R20042   6.274   5.488   9.056 -0.2894  0.1359 -1.1822
  176SOPE  H17S20043   6.446   5.515   9.003 -0.4491 -1.6683 -1.0997
  176SOPE  C21820044   6.286   5.565   8.867  0.4664  0.8253 -0.1964
  176SOPE  H18R20045   6.314   5.476   8.806  0.2302 -0.6837  1.8559
  176SOPE  H18S20046   6.308   5.659   8.812 -0.9484 -0.0414 -2.2923
  176SOPE  H18T20047   6.176   5.556   8.880  0.2937 -0.9934 -2.6318
  176SOPE   C3320048   5.480   5.921  10.221 -1.2545 -0.2457  0.7125
  176SOPE   H3X20049   5.580   5.962  10.244 -0.5655 -1.3383 -0.3013
  176SOPE   H3Y20050   5.403   5.980  10.276  0.7568 -1.4882  5.1077
  176SOPE   C3420051   5.465   5.930  10.070 -1.0778  0.2193 -0.0205
  176SOPE   H4X20052   5.443   6.037  10.050  1.1283  0.6859 -0.1338
  176SOPE   H4Y20053   5.380   5.866  10.038 -1.1877  1.0457 -1.4232
  176SOPE   C3520054   5.583   5.874  10.001 -0.6493  0.3675  0.3214
  176SOPE   H5X20055   5.609   5.771  10.035 -1.9380 -0.0361  0.1209
  176SOPE   H5Y20056   5.668   5.942  10.022 -0.2571  0.0697 -0.2621
  176SOPE   C3620057   5.572   5.875   9.848  0.4959 -0.5960 -0.1908
  176SOPE   H6X20058   5.493   5.808   9.807 -0.1831  1.1991 -1.9206
  176SOPE   H6Y20059   5.666   5.838   9.803  1.9302 -0.8015  2.8763
  176SOPE   C3720060   5.537   6.003   9.775  0.1260 -0.0336  0.5532
  176SOPE   H7X20061   5.608   6.085   9.797  1.2790 -0.6519 -0.8039
  176SOPE   H7Y20062   5.441   6.039   9.818 -1.1730 -1.1548 -1.3017
  176SOPE   C3820063   5.505   6.002   9.621  0.5227 -0.0587  0.9887
  176SOPE   H8X20064   5.429   5.926   9.591  1.3197 -0.3189 -0.3995
  176SOPE   H8Y20065   5.598   5.972   9.568 -0.7720  1.8768 -2.4628
  176SOPE   C3920066   5.444   6.141   9.586  0.0233  0.1561  0.3548
  176SOPE   H9X20067   5.512   6.203   9.647  2.2122 -0.6104 -1.2675
  176SOPE   H9Y20068   5.338   6.146   9.621 -0.1326  0.5132 -0.1607
  176SOPE  C31020069   5.458   6.185   9.441  0.0074  0.4748  0.4509
  176SOPE  H10X20070   5.565   6.177   9.411 -0.5922 -0.7891 -1.4552
  176SOPE  H10Y20071   5.428   6.292   9.432  0.5336  0.6146  0.3650
  176SOPE  C31120072   5.379   6.100   9.346  0.2536  0.5246  0.1961
  176SOPE  H11X20073   5.270   6.104   9.369 -0.0359  3.0831 -1.4622
  176SOPE  H11Y20074   5.412   5.994   9.349 -0.3265  0.3567  0.8678
  176SOPE  C31220075   5.396   6.147   9.198 -0.0060 -0.7497 -0.0779
  176SOPE  H12X20076   5.502   6.130   9.169 -0.1752 -4.2000  1.1263
  176SOPE  H12Y20077   5.385   6.257   9.202 -1.2375 -0.8393 -0.7670
  176SOPE  C31320078   5.294   6.082   9.097 -0.3371  0.6538  0.2478
  176SOPE  H13X20079   5.189   6.110   9.117 -0.9792 -1.3919 -0.2300
  176SOPE  H13Y20080   5.303   5.972   9.102 -0.2792  0.7081  1.3191
  176SOPE  C31420081   5.311   6.140   8.957  0.0975  0.3683  0.8642
  176SOPE  H14X20082   5.420   6.140   8.934 -0.2265  1.4619 -0.7518
  176SOPE  H14Y20083   5.288   6.248   8.949  2.4808  0.8215 -0.3653
  176SOPE  C31520084   5.239   6.066   8.850  0.0506  0.1652 -0.9207
  176SOPE  H15X20085   5.130   6.086   8.855  0.2597  0.9205  0.7245
  176SOPE  H15Y20086   5.257   5.958   8.872 -0.0984  0.6063  1.4748
  176SOPE  C31620087   5.271   6.099   8.701 -0.3067  0.3825 -0.1452
  176SOPE  H16X20088   5.380   6.083   8.681 -0.0556  1.6866  0.1594
  176SOPE  H16Y20089   5.246   6.205   8.681 -0.3537 -0.0820 -2.6952
  176SOPE  C31720090   5.195   6.013   8.600 -0.7745 -0.1020 -0.4105
  176SOPE  H17X20091   5.124   5.954   8.662 -0.6597 -0.7267 -0.8672
  176SOPE  H17Y20092   5.261   5.939   8.549  0.8907  1.1366 -0.0870
  176SOPE  C31820093   5.116   6.095   8.500  0.0106 -0.7998 -0.0386
  176SOPE  H18X20094   5.188   6.152   8.437 -0.4249  0.3115  0.4601
  176SOPE  H18Y20095   5.054   6.175   8.544  0.7016 -0.8217  1.0093
  176SOPE  H18Z20096   5.048   6.030   8.442 -1.0789 -0.6966  1.1069
  177SOPE     N20097   4.536   4.404  11.024  0.6993 -0.6259  0.1362
  177SOPE   HN120098   4.497   4.316  11.064  1.4228 -0.9141  0.2299
  177SOPE   HN220099   4.507   4.489  11.077 -1.4816 -1.8998  1.0497
  177SOPE   HN320100   4.505   4.400  10.925 -0.6725  1.4196  0.4634
  177SOPE   C1220101   4.685   4.396  11.031  1.0453 -0.0992 -0.5778
  177SOPE  H12A20102   4.707   4.351  11.130 -1.3324 -1.4448 -0.6334
  177SOPE  H12B20103   4.727   4.498  11.018  1.2196 -0.0426  0.3731
  177SOPE   C1120104   4.744   4.304  10.921  0.0069  0.1519  0.3344
  177SOPE  H11A20105   4.850   4.289  10.949 -0.1652  0.1686  1.0144
  177SOPE  H11B20106   4.747   4.360  10.826  1.1954  1.2688  1.0184
  177SOPE     P20107   4.741   4.026  10.924  0.0852  0.0373 -0.6219
  177SOPE   O1320108   4.633   3.926  10.920 -0.0683 -0.3672  0.3853
  177SOPE   O1420109   4.840   4.013  11.034  0.1878 -0.2410  0.2736
  177SOPE   O1220110   4.675   4.174  10.922 -0.2771  0.1800  0.2382
  177SOPE   O1120111   4.815   4.026  10.787 -0.1100  0.0960 -0.1844
  177SOPE    C120112   4.757   4.085  10.666 -0.6270  0.4565 -0.1550
  177SOPE    HA20113   4.831   4.151  10.615 -0.5732 -0.6392 -1.5160
  177SOPE    HB20114   4.668   4.152  10.679  0.3057  1.1258  3.1331
  177SOPE    C220115   4.698   3.991  10.557  1.0438  0.3889  0.3648
  177SOPE    HS20116   4.635   3.916  10.609 -0.3540 -2.1996 -4.7520
  177SOPE   O2120117   4.803   3.918  10.503  0.0370 -0.5029 -0.1705
  177SOPE   C2120118   4.790   3.782  10.503  0.0082 -0.0833 -0.1419
  177SOPE   O2220119   4.693   3.716  10.531 -0.4970  0.1187  0.5462
  177SOPE   C2220120   4.912   3.722  10.438 -0.0531  0.0099  0.0400
  177SOPE   H2R20121   4.869   3.625  10.407 -0.6007  0.4324 -0.5358
  177SOPE   H2S20122   5.007   3.709  10.493  0.5088  0.8857 -0.6934
  177SOPE    C320123   4.625   4.071  10.445 -0.1261 -0.0183  0.4701
  177SOPE    HX20124   4.707   4.127  10.395 -1.0788  1.9418  1.0899
  177SOPE    HY20125   4.541   4.131  10.484 -1.1661 -0.9323 -0.3260
  177SOPE   O3120126   4.551   3.988  10.364 -0.0348 -0.1937 -0.2399
  177SOPE   C3120127   4.591   3.973  10.239 -0.4896 -0.4530 -0.6200
  177SOPE   O3220128   4.672   4.041  10.184 -0.0612 -0.6267 -0.1202
  177SOPE   C3220129   4.511   3.855  10.184  0.2103 -0.5160  0.4054
  177SOPE   H2X20130   4.407   3.881  10.210 -0.0804 -0.3620 -0.8709
  177SOPE   H2Y20131   4.550   3.762  10.232  0.9688 -0.0158  0.7632
  177SOPE   C2320132   4.955   3.791  10.308 -0.3702 -0.3855 -0.7843
  177SOPE   H3R20133   4.981   3.896  10.329  0.4498 -1.0608  1.7287
  177SOPE   H3S20134   4.860   3.802  10.251  0.9085  0.3247 -2.8539
  177SOPE   C2420135   5.065   3.714  10.233  0.2165 -0.1324 -0.2303
  177SOPE   H4R20136   5.134   3.683  10.314  0.0583  1.6314  0.6042
  177SOPE   H4S20137   5.017   3.620  10.199 -0.6758  0.4141 -0.5064
  177SOPE   C2520138   5.132   3.775  10.113  0.2309  0.3206  0.2674
  177SOPE   H5R20139   5.195   3.861  10.144  1.3043 -0.3295 -0.0701
  177SOPE   H5S20140   5.195   3.697  10.064  0.2138  0.7048 -0.3824
  177SOPE   C2620141   5.034   3.822  10.001  0.5469 -0.2549  0.1233
  177SOPE   H6R20142   4.962   3.739   9.987  2.5294 -1.6160 -2.3814
  177SOPE   H6S20143   4.978   3.907  10.045  0.9463  1.1528 -2.0601
  177SOPE   C2720144   5.103   3.862   9.865 -0.1163 -0.1522 -0.1933
  177SOPE   H7R20145   5.026   3.912   9.804 -0.9172 -2.2393 -0.9472
  177SOPE   H7S20146   5.180   3.938   9.890  1.3812 -2.3199  2.0196
  177SOPE   C2820147   5.173   3.737   9.798  0.1372  0.1310  0.2075
  177SOPE   H8R20148   5.233   3.777   9.713 -0.2823  0.1359 -0.0886
  177SOPE   H8S20149   5.258   3.689   9.851 -0.8774  2.2982  3.9538
  177SOPE   C2920150   5.058   3.647   9.758  0.4343 -0.4969 -0.0596
  177SOPE   H9120151   5.036   3.581   9.844 -1.7796  0.9542  0.5345
  177SOPE  C21020152   4.977   3.637   9.647  0.7072 -0.1253 -0.6405
  177SOPE  H10120153   4.907   3.553   9.650 -0.1264  0.5672 -0.4179
  177SOPE  C21120154   4.990   3.723   9.523 -0.2829  0.3060 -0.0625
  177SOPE  H11R20155   5.085   3.781   9.522  0.3300 -0.6430  0.9704
  177SOPE  H11S20156   4.912   3.802   9.523  0.3389  0.9322 -0.2709
  177SOPE  C21220157   4.981   3.629   9.397 -0.2699  0.2933  0.0534
  177SOPE  H12R20158   4.882   3.578   9.399 -1.1426  1.9646  1.2955
  177SOPE  H12S20159   5.057   3.550   9.385 -1.2444 -0.5371 -0.7317
  177SOPE  C21320160   4.985   3.722   9.271 -0.1715 -0.7203 -0.5413
  177SOPE  H13R20161   5.075   3.786   9.267 -1.0206  0.4927 -0.5257
  177SOPE  H13S20162   4.898   3.791   9.266  1.5156  1.5047  0.0464
  177SOPE  C21420163   4.989   3.643   9.133 -0.2142 -0.9024  0.0784
  177SOPE  H14R20164   4.905   3.573   9.152 -1.5716  1.3000  2.4734
  177SOPE  H14S20165   5.088   3.591   9.133  0.7719  0.9154  0.6345
  177SOPE  C21520166   4.956   3.744   9.020  0.1006 -0.5283 -0.0377
  177SOPE  H15R20167   4.964   3.845   9.064 -1.1337  0.2057 -1.4593
  177SOPE  H15S20168   4.851   3.726   8.990 -0.3101 -0.9591  1.6310
  177SOPE  C21620169   5.057   3.733   8.903 -1.0713 -0.4050  0.3514
  177SOPE  H16R20170   5.018   3.792   8.818 -0.2110  1.5852  1.3158
  177SOPE  H16S20171   5.066   3.632   8.857 -1.9488  0.7429 -2.3831
  177SOPE  C21720172   5.195   3.803   8.936 -0.4010  0.4685 -0.7934
  177SOPE  H17R20173   5.239   3.739   9.015  0.6731  2.7582  0.4727
  177SOPE  H17S20174   5.176   3.905   8.975  1.9258  1.4206 -2.0608
  177SOPE  C21820175   5.272   3.817   8.804 -0.5168 -0.4678 -0.3256
  177SOPE  H18R20176   5.216   3.881   8.733  2.1317  1.9587 -0.3258
  177SOPE  H18S20177   5.296   3.721   8.754  1.7063 -0.0889 -0.0440
  177SOPE  H18T20178   5.370   3.865   8.826 -0.0785 -1.9629  1.1031
  177SOPE   C3320179   4.513   3.828  10.024  0.4531 -0.2807 -0.4983
  177SOPE   H3X20180   4.454   3.904   9.968 -0.3026  0.3014  1.0353
  177SOPE   H3Y20181   4.455   3.735  10.008 -0.3412  0.4838 -2.2294
  177SOPE   C3420182   4.660   3.818   9.974  0.0714  0.1757  1.0660
  177SOPE   H4X20183   4.719   3.760  10.049 -0.8151 -2.4557 -0.2224
  177SOPE   H4Y20184   4.704   3.920   9.974  0.6491 -0.0684  1.2576
  177SOPE   C3520185   4.668   3.744   9.836  0.4309 -0.7122 -0.3081
  177SOPE   H5X20186   4.621   3.643   9.846  0.8758 -0.7603  1.4343
  177SOPE   H5Y20187   4.773   3.723   9.806  0.7341  0.2610  0.0580
  177SOPE   C3620188   4.609   3.834   9.726  0.9524 -0.0167  0.0701
  177SOPE   H6X20189   4.685   3.912   9.706 -1.1243  1.8198 -0.9651
  177SOPE   H6Y20190   4.516   3.881   9.766 -0.1713 -1.1917 -1.0976
  177SOPE   C3720191   4.595   3.742   9.607  0.1790 -0.7937 -1.1767
  177SOPE   H7X20192   4.533   3.654   9.633 -2.1361  0.9182 -0.6993
  177SOPE   H7Y20193   4.696   3.701   9.588  0.1017 -0.3619 -2.5480
  177SOPE   C3820194   4.530   3.807   9.484 -0.2458 -0.3419  0.0027
  177SOPE   H8X20195   4.557   3.914   9.473  1.0756 -0.7731 -1.0709
  177SOPE   H8Y20196   4.420   3.813   9.498 -0.1351 -1.1643  1.2632
  177SOPE   C3920197   4.559   3.723   9.354  1.1358 -0.0092 -0.2135
  177SOPE   H9X20198   4.518   3.621   9.372 -1.3633  0.7206 -1.5704
  177SOPE   H9Y20199   4.667   3.715   9.330  0.9793 -0.2208 -0.8850
  177SOPE  C31020200   4.495   3.778   9.228 -0.5842  0.1949  0.5878
  177SOPE  H10X20201   4.530   3.883   9.227  0.3422 -0.0440  2.9996
  177SOPE  H10Y20202   4.385   3.782   9.237 -0.5761 -2.6284  2.8359
  177SOPE  C31120203   4.547   3.717   9.099  0.4554  0.0978 -0.0026
  177SOPE  H11X20204   4.653   3.747   9.084  0.2711  0.5260 -0.4828
  177SOPE  H11Y20205   4.503   3.774   9.014  0.2243 -0.8205 -0.5088
  177SOPE  C31220206   4.530   3.567   9.081  0.3009  0.0356 -0.4830
  177SOPE  H12X20207   4.422   3.543   9.091  0.3112 -0.4846 -1.5059
  177SOPE  H12Y20208   4.580   3.507   9.160  0.1609  1.7746  0.9633
  177SOPE  C31320209   4.559   3.532   8.941 -0.3229 -0.1448  0.4632
  177SOPE  H13X20210   4.659   3.571   8.913  0.7307 -2.9918  0.1170
  177SOPE  H13Y20211   4.477   3.578   8.882  0.3521  0.9261  0.3553
  177SOPE  C31420212   4.580   3.381   8.914  0.4175 -0.8401  0.7626
  177SOPE  H14X20213   4.495   3.322   8.955  0.5578  0.0441  2.3757
  177SOPE  H14Y20214   4.667   3.346   8.975 -0.2446 -1.4371  1.3717
  177SOPE  C31520215   4.622   3.351   8.771 -0.3545  0.1736 -0.2799
  177SOPE  H15X20216   4.551   3.408   8.707  0.3021  0.4346 -0.7797
  177SOPE  H15Y20217   4.613   3.243   8.745  1.9168 -0.2813  0.6640
  177SOPE  C31620218   4.767   3.384   8.732 -0.5009  0.2890 -1.2400
  177SOPE  H16X20219   4.833   3.325   8.799 -3.0607  0.7705  1.8246
  177SOPE  H16Y20220   4.791   3.488   8.765  0.3918  0.1265 -1.3590
  177SOPE  C31720221   4.804   3.376   8.589 -0.0832 -0.6892 -0.2573
  177SOPE  H17X20222   4.734   3.436   8.526  4.4729  0.6542 -4.4036
  177SOPE  H17Y20223   4.796   3.267   8.569 -0.4835 -1.1208  2.0921
  177SOPE  C31820224   4.933   3.437   8.555  0.8472 -0.4039  0.0602
  177SOPE  H18X20225   4.922   3.548   8.555  0.0138 -0.4763  1.7305
  177SOPE  H18Y20226   4.965   3.425   8.449 -0.1716  0.0171 -0.3068
  177SOPE  H18Z20227   5.011   3.410   8.630 -1.7389 -2.0336  2.2321
  178SOPE     N20228   2.242   1.498  10.716 -0.1913  0.5846 -0.0254
  178SOPE   HN120229   2.234   1.428  10.793  1.9566 -3.0807 -2.9310
  178SOPE   HN220230   2.158   1.549  10.682  0.5880  1.8705 -0.0519
  178SOPE   HN320231   2.289   1.450  10.636  0.2066  0.8378  0.0553
  178SOPE   C1220232   2.345   1.598  10.756 -0.4423  0.4351  0.0690
  178SOPE  H12A20233   2.407   1.617  10.666  0.0545 -2.6738 -0.3242
  178SOPE  H12B20234   2.411   1.557  10.835  0.4522 -0.3038 -1.0470
  178SOPE   C1120235   2.289   1.741  10.812 -0.4765  0.1982  0.2459
  178SOPE  H11A20236   2.378   1.802  10.840 -0.3547 -0.1893  0.7098
  178SOPE  H11B20237   2.247   1.721  10.912 -1.4160 -0.1641 -0.2134
  178SOPE     P20238   2.202   1.968  10.735  0.2335  0.0459  0.5184
  178SOPE   O1320239   2.264   2.011  10.855 -0.5599  0.3108  0.5508
  178SOPE   O1420240   2.057   2.012  10.724  0.2192  0.5694 -0.0570
  178SOPE   O1220241   2.194   1.806  10.730 -0.2594  0.0313 -0.2725
  178SOPE   O1120242   2.279   2.005  10.609  0.0362  1.0320 -0.1326
  178SOPE    C120243   2.244   2.014  10.473  0.2538  0.1342  0.6816
  178SOPE    HA20244   2.332   2.051  10.416 -0.4057  0.9900  0.1987
  178SOPE    HB20245   2.151   2.072  10.453 -0.3811 -1.0930  0.0806
  178SOPE    C220246   2.218   1.870  10.408 -0.2620 -0.7699  0.1893
  178SOPE    HS20247   2.242   1.784  10.475 -1.8800 -1.5706 -0.2046
  178SOPE   O2120248   2.298   1.860  10.289  0.8734 -0.2055 -0.5396
  178SOPE   C2120249   2.292   1.748  10.226 -0.5112  0.0157 -0.2229
  178SOPE   O2220250   2.229   1.647  10.261  0.2369  0.2781 -0.2278
  178SOPE   C2220251   2.382   1.760  10.096  0.1085 -0.0438 -0.6024
  178SOPE   H2R20252   2.422   1.657  10.088  1.1529  0.3337 -0.3128
  178SOPE   H2S20253   2.462   1.835  10.113  3.1987 -2.6403 -3.1216
  178SOPE    C320254   2.064   1.863  10.383 -0.1254 -0.9396 -0.7781
  178SOPE    HX20255   2.030   1.889  10.486  3.3061  2.8827 -0.4567
  178SOPE    HY20256   2.045   1.759  10.350 -0.5101 -1.0668 -0.1701
  178SOPE   O3120257   2.015   1.963  10.283 -0.2288 -0.0049 -0.6368
  178SOPE   C3120258   1.885   1.968  10.274 -0.0512 -0.4436 -0.4331
  178SOPE   O3220259   1.805   1.897  10.336 -0.7898 -0.6478  0.4344
  178SOPE   C3220260   1.843   2.087  10.185  0.0790  0.4503 -0.7485
  178SOPE   H2X20261   1.888   2.176  10.233  0.0098  0.7307 -1.2020
  178SOPE   H2Y20262   1.735   2.113  10.184  0.2131  1.0442 -0.1492
  178SOPE   C2320263   2.291   1.793   9.980  0.6908 -0.1431  0.0025
  178SOPE   H3R20264   2.210   1.859  10.018  2.2575  2.1199 -0.4784
  178SOPE   H3S20265   2.250   1.703   9.930 -0.4196  1.2046 -1.5611
  178SOPE   C2420266   2.360   1.896   9.886  0.4842  0.1888 -0.2497
  178SOPE   H4R20267   2.376   1.991   9.941 -0.1087 -0.6566  1.4250
  178SOPE   H4S20268   2.458   1.851   9.862  0.4266 -0.1457  0.1322
  178SOPE   C2520269   2.273   1.932   9.762 -0.6431  0.1370  0.2181
  178SOPE   H5R20270   2.254   1.841   9.701 -1.3591  0.4622 -0.0467
  178SOPE   H5S20271   2.175   1.964   9.803 -0.2337  0.3024  1.0849
  178SOPE   C2620272   2.334   2.036   9.668 -0.7904 -0.3323  0.3065
  178SOPE   H6R20273   2.259   2.079   9.599  0.2429 -0.2419 -0.7719
  178SOPE   H6S20274   2.369   2.123   9.727 -0.0070 -0.1608 -0.4006
  178SOPE   C2720275   2.459   1.977   9.605  0.2849  0.1456  0.5600
  178SOPE   H7R20276   2.534   1.947   9.682 -1.2392 -3.3229  0.8069
  178SOPE   H7S20277   2.433   1.883   9.553 -1.3868  1.9509 -1.9590
  178SOPE   C2820278   2.542   2.057   9.499  0.1756 -0.4024  0.2523
  178SOPE   H8R20279   2.623   1.988   9.464  1.3037  1.6761 -1.3547
  178SOPE   H8S20280   2.478   2.075   9.410 -0.8602 -1.9545  0.6612
  178SOPE   C2920281   2.599   2.188   9.544 -0.8668 -0.3245  0.1281
  178SOPE   H9120282   2.701   2.180   9.584 -0.1472  0.2985 -1.5200
  178SOPE  C21020283   2.550   2.312   9.512 -0.3972 -0.8594  0.2070
  178SOPE  H10120284   2.608   2.399   9.544 -0.5520 -0.6716 -0.0207
  178SOPE  C21120285   2.427   2.333   9.431 -0.7805  0.1751 -0.3428
  178SOPE  H11R20286   2.387   2.435   9.447  1.8737  1.3083 -0.6451
  178SOPE  H11S20287   2.357   2.255   9.467  1.8951 -1.5273  1.3311
  178SOPE  C21220288   2.424   2.349   9.275  0.5718 -1.0355  0.2472
  178SOPE  H12R20289   2.321   2.362   9.236  1.1235  2.4153 -0.2771
  178SOPE  H12S20290   2.452   2.253   9.227 -1.9388 -1.7435  0.1706
  178SOPE  C21320291   2.518   2.452   9.220 -0.0763 -0.7656 -0.4073
  178SOPE  H13R20292   2.619   2.414   9.196  0.5079 -0.7524  1.8606
  178SOPE  H13S20293   2.535   2.528   9.300  0.1879 -0.0361 -1.1529
  178SOPE  C21420294   2.453   2.505   9.096 -0.2105 -0.5191 -0.4796
  178SOPE  H14R20295   2.505   2.600   9.071  1.2954 -0.9008  1.1175
  178SOPE  H14S20296   2.347   2.528   9.118 -0.0354 -1.7305  1.8055
  178SOPE  C21520297   2.455   2.397   8.986  0.0225  0.0652  0.0449
  178SOPE  H15R20298   2.413   2.301   9.024  0.1356  0.2450  0.6320
  178SOPE  H15S20299   2.561   2.377   8.959  0.9358  0.8129  2.8475
  178SOPE  C21620300   2.362   2.419   8.860  0.4880  0.6636 -0.2596
  178SOPE  H16R20301   2.267   2.398   8.914  0.9337  1.2672  0.7697
  178SOPE  H16S20302   2.376   2.344   8.779  1.1753  2.2132 -1.6159
  178SOPE  C21720303   2.375   2.553   8.787 -0.0698  0.1223  0.2878
  178SOPE  H17R20304   2.361   2.630   8.866 -1.4363  1.0713 -0.8348
  178SOPE  H17S20305   2.288   2.568   8.719  0.0359 -1.2202 -0.1508
  178SOPE  C21820306   2.507   2.568   8.708 -0.2756  0.0533  0.5507
  178SOPE  H18R20307   2.596   2.565   8.775 -0.4505  0.5812  0.8085
  178SOPE  H18S20308   2.508   2.659   8.645  1.7918  1.0532  1.9667
  178SOPE  H18T20309   2.512   2.489   8.630  1.6684  0.2081  0.4981
  178SOPE   C3320310   1.899   2.066  10.041  0.0928 -0.5174  0.1058
  178SOPE   H3X20311   1.848   1.976  10.002 -0.8344 -0.6393  1.5287
  178SOPE   H3Y20312   2.009   2.064  10.054  0.1254  2.0487  0.4829
  178SOPE   C3420313   1.861   2.188   9.960  0.4908  0.2218  0.5920
  178SOPE   H4X20314   1.865   2.284  10.016  2.8790 -0.1180  1.0343
  178SOPE   H4Y20315   1.755   2.176   9.928  1.4696 -1.3685 -2.1501
  178SOPE   C3520316   1.953   2.214   9.835  0.4566 -0.3549 -0.3435
  178SOPE   H5X20317   1.930   2.129   9.767 -0.9293  0.1590 -0.5207
  178SOPE   H5Y20318   2.061   2.213   9.864  0.6903  2.1409 -1.0294
  178SOPE   C3620319   1.928   2.344   9.757  0.2840  1.4678  0.5511
  178SOPE   H6X20320   1.942   2.436   9.817 -0.8884  0.2298  2.7814
  178SOPE   H6Y20321   1.820   2.336   9.729  1.2231  0.7767 -3.2557
  178SOPE   C3720322   2.000   2.352   9.623 -0.1656 -0.4015  0.4766
  178SOPE   H7X20323   1.953   2.267   9.569 -2.4125  0.8615  0.3768
  178SOPE   H7Y20324   2.107   2.332   9.645 -0.0195  2.1734  2.3036
  178SOPE   C3820325   1.982   2.475   9.532 -0.3742 -0.1517 -0.3208
  178SOPE   H8X20326   2.033   2.566   9.572 -0.1269 -0.1525 -0.6248
  178SOPE   H8Y20327   1.872   2.484   9.533 -0.4733 -1.4043  0.5325
  178SOPE   C3920328   2.037   2.464   9.386 -0.0012  0.0223 -0.8271
  178SOPE   H9X20329   1.997   2.369   9.343 -0.1957 -0.1956 -0.1662
  178SOPE   H9Y20330   2.148   2.455   9.387  0.0004 -0.2183 -2.3354
  178SOPE  C31020331   1.999   2.582   9.299  0.3040  1.5058 -0.2465
  178SOPE  H10X20332   2.036   2.685   9.319  0.0123  2.1216 -2.7066
  178SOPE  H10Y20333   1.889   2.597   9.289  0.1491  1.0948  0.8282
  178SOPE  C31120334   2.034   2.553   9.153  0.1643 -0.2683  0.4767
  178SOPE  H11X20335   1.970   2.464   9.135 -1.6822  0.6070  2.4890
  178SOPE  H11Y20336   2.138   2.516   9.153  0.0096 -0.8414 -2.2343
  178SOPE  C31220337   2.006   2.668   9.053 -0.5580  0.0365 -0.3019
  178SOPE  H12X20338   2.071   2.752   9.086 -1.2182  0.3236  0.2871
  178SOPE  H12Y20339   1.901   2.702   9.064 -0.5798  0.8514 -2.7265
  178SOPE  C31320340   2.031   2.630   8.903 -0.0880 -0.1315  0.2594
  178SOPE  H13X20341   1.948   2.558   8.890 -0.9401  1.3508 -3.2433
  178SOPE  H13Y20342   2.134   2.590   8.896  0.3981  0.5601  2.9448
  178SOPE  C31420343   2.009   2.755   8.815 -0.0686 -0.3539 -0.3638
  178SOPE  H14X20344   2.103   2.814   8.813 -0.1294 -0.1643  1.7638
  178SOPE  H14Y20345   1.929   2.818   8.859 -1.5076 -1.7739 -0.9043
  178SOPE  C31520346   1.967   2.733   8.670  0.9593  0.7673  0.5029
  178SOPE  H15X20347   2.026   2.650   8.625 -0.2439  0.2257 -0.1120
  178SOPE  H15Y20348   1.983   2.827   8.612 -1.3125  0.0749 -1.3542
  178SOPE  C31620349   1.815   2.704   8.666  0.4381 -1.0114 -0.4293
  178SOPE  H16X20350   1.771   2.788   8.724  1.5305 -1.2690  0.8004
  178SOPE  H16Y20351   1.792   2.615   8.728 -0.5806 -0.4327  0.0409
  178SOPE  C31720352   1.753   2.712   8.532 -0.2570  0.6539  0.0253
  178SOPE  H17X20353   1.748   2.818   8.497 -0.4888  0.8435  0.6235
  178SOPE  H17Y20354   1.644   2.694   8.538 -0.2674  0.7355  0.0831
  178SOPE  C31820355   1.827   2.634   8.417  0.1347 -0.4217  0.1660
  178SOPE  H18X20356   1.938   2.644   8.418  0.1547 -0.4083 -1.7708
  178SOPE  H18Y20357   1.788   2.667   8.319  0.7601 -0.9308 -0.2560
  178SOPE  H18Z20358   1.809   2.526   8.431 -1.0610 -0.2531 -0.0361
  179SOPE     N20359   1.229   3.418   6.307 -0.4327  0.0996 -0.0132
  179SOPE   HN120360   1.235   3.428   6.204  1.6699 -1.2557 -0.0532
  179SOPE   HN220361   1.277   3.327   6.321  0.4315  0.9467  2.7471
  179SOPE   HN320362   1.126   3.409   6.319  0.0222 -1.3727  3.5688
  179SOPE   C1220363   1.286   3.534   6.386  0.1543  0.0783  0.1297
  179SOPE  H12A20364   1.250   3.619   6.324  0.1194 -0.1277 -0.1358
  179SOPE  H12B20365   1.397   3.535   6.378  0.1486 -0.9837 -0.2482
  179SOPE   C1120366   1.238   3.543   6.533  0.7086 -0.3544 -1.0492
  179SOPE  H11A20367   1.301   3.623   6.577 -0.2299 -0.2154  0.0748
  179SOPE  H11B20368   1.273   3.450   6.582  2.0921 -0.2471 -1.8164
  179SOPE     P20369   1.033   3.710   6.526  0.0695 -0.0414 -0.3853
  179SOPE   O1320370   0.890   3.695   6.547 -0.4537  0.4050  0.4907
  179SOPE   O1420371   1.077   3.769   6.396  0.5079  0.0065  0.6150
  179SOPE   O1220372   1.097   3.568   6.542  0.0908  0.3914  0.5375
  179SOPE   O1120373   1.088   3.790   6.645  0.4117  0.0234  0.0502
  179SOPE    C120374   1.162   3.750   6.755 -0.3779 -0.1268  0.7177
  179SOPE    HA20375   1.252   3.815   6.762 -1.6968  1.6955  0.9857
  179SOPE    HB20376   1.188   3.642   6.755 -1.7113 -0.4744 -0.8934
  179SOPE    C220377   1.094   3.774   6.894  0.0276  0.1450  0.7462
  179SOPE    HS20378   1.170   3.750   6.971 -0.4867 -2.5956  0.4486
  179SOPE   O2120379   0.984   3.684   6.913  0.0778 -0.1549 -0.0130
  179SOPE   C2120380   1.009   3.555   6.938  0.0463 -0.1171 -0.2748
  179SOPE   O2220381   1.118   3.512   6.968 -0.0074  0.0717 -0.2050
  179SOPE   C2220382   0.879   3.482   6.942 -0.8894  0.1366 -0.2478
  179SOPE   H2R20383   0.911   3.376   6.937  0.0455  0.4190 -0.2704
  179SOPE   H2S20384   0.814   3.514   6.858 -1.0560  1.4613  0.3723
  179SOPE    C320385   1.045   3.916   6.914  0.1533  0.4209  0.0375
  179SOPE    HX20386   0.950   3.929   6.858  0.7928  0.4613 -1.0699
  179SOPE    HY20387   1.127   3.980   6.874  1.2437 -1.6013 -1.0001
  179SOPE   O3120388   1.031   3.940   7.057  0.2553  0.1483  0.2794
  179SOPE   C3120389   0.926   3.995   7.098  0.8499  0.2900 -0.1218
  179SOPE   O3220390   0.837   4.057   7.039 -0.4974  0.2107  0.0573
  179SOPE   C3220391   0.905   3.962   7.250 -0.5154  0.8868 -0.6961
  179SOPE   H2X20392   0.836   4.038   7.291 -0.1772  0.5499  0.5098
  179SOPE   H2Y20393   1.001   3.985   7.299  0.0160 -1.2007 -0.6973
  179SOPE   C2320394   0.796   3.495   7.073 -0.0150 -0.8772  0.0145
  179SOPE   H3R20395   0.702   3.441   7.050 -1.4785  1.1676  1.0541
  179SOPE   H3S20396   0.767   3.602   7.083  0.2277 -0.7321 -0.7591
  179SOPE   C2420397   0.860   3.436   7.195  0.4661 -0.1047  0.1103
  179SOPE   H4R20398   0.872   3.328   7.169 -0.2071  0.0697 -0.9580
  179SOPE   H4S20399   0.956   3.486   7.221  1.0893 -1.6423  0.8278
  179SOPE   C2520400   0.766   3.437   7.309  0.0965  0.1561 -0.4980
  179SOPE   H5R20401   0.732   3.542   7.325 -0.3771 -0.1950  0.9172
  179SOPE   H5S20402   0.673   3.383   7.281 -1.1811  1.3858  1.2405
  179SOPE   C2620403   0.819   3.386   7.442  0.2737 -0.0598  0.7193
  179SOPE   H6R20404   0.735   3.403   7.513 -1.9468  0.3539 -1.9257
  179SOPE   H6S20405   0.838   3.276   7.441 -1.8527 -0.4652  0.6230
  179SOPE   C2720406   0.944   3.462   7.492  0.2450  0.4060  0.3858
  179SOPE   H7R20407   1.029   3.434   7.426 -1.0654  2.2756 -2.1968
  179SOPE   H7S20408   0.928   3.572   7.481  0.9048  0.4539 -0.1597
  179SOPE   C2820409   1.000   3.425   7.634  0.7485 -0.9234 -0.5820
  179SOPE   H8R20410   1.002   3.314   7.634 -1.7902 -1.0435  3.1816
  179SOPE   H8S20411   1.107   3.456   7.634  0.3366  0.6552  3.0160
  179SOPE   C2920412   0.924   3.468   7.754  0.4865  0.6484 -0.2410
  179SOPE   H9120413   0.826   3.510   7.729  0.1864  0.4650  0.5889
  179SOPE  C21020414   0.955   3.455   7.886 -0.0685  0.0010  0.6594
  179SOPE  H10120415   0.885   3.501   7.957  0.1331  0.1643  0.7531
  179SOPE  C21120416   1.088   3.393   7.932 -0.2471  0.0904 -0.2083
  179SOPE  H11R20417   1.155   3.470   7.977  0.9006 -1.9522  1.7227
  179SOPE  H11S20418   1.148   3.341   7.854  0.1968  1.0836 -0.5365
  179SOPE  C21220419   1.071   3.292   8.049 -0.0238  0.1118  0.3863
  179SOPE  H12R20420   1.020   3.201   8.013  1.6239 -0.2376 -1.1512
  179SOPE  H12S20421   1.000   3.342   8.118 -0.5357  1.2631 -0.9631
  179SOPE  C21320422   1.203   3.258   8.127 -0.0669 -0.6102  0.2131
  179SOPE  H13R20423   1.289   3.253   8.056  0.9314  1.1943  1.2628
  179SOPE  H13S20424   1.192   3.152   8.158  2.0294 -0.9407 -0.0645
  179SOPE  C21420425   1.243   3.337   8.248 -0.1714 -0.8224  0.2228
  179SOPE  H14R20426   1.238   3.447   8.234  0.9775 -0.7869  0.0055
  179SOPE  H14S20427   1.350   3.319   8.273  1.0097  1.5788 -2.7248
  179SOPE  C21520428   1.156   3.308   8.373  0.1649 -0.4611  0.0806
  179SOPE  H15R20429   1.053   3.343   8.349  0.7391 -0.1858 -2.1456
  179SOPE  H15S20430   1.206   3.366   8.454  1.7879  0.9760 -1.8854
  179SOPE  C21620431   1.154   3.164   8.416 -0.4062  0.1309 -0.2846
  179SOPE  H16R20432   1.258   3.130   8.429  0.3900  1.5122 -2.5831
  179SOPE  H16S20433   1.109   3.102   8.336 -0.2531 -0.8363  0.3807
  179SOPE  C21720434   1.060   3.149   8.534  0.5692  0.4241  0.1316
  179SOPE  H17R20435   0.964   3.196   8.506 -1.0385 -1.1705  2.7690
  179SOPE  H17S20436   1.107   3.202   8.620  2.6980 -0.2907 -0.5544
  179SOPE  C21820437   1.036   3.004   8.575 -0.2152  0.3611 -0.0653
  179SOPE  H18R20438   1.116   2.946   8.627  0.8583 -0.7274 -2.8272
  179SOPE  H18S20439   1.009   2.946   8.484  0.6858 -0.0963 -0.0528
  179SOPE  H18T20440   0.943   2.995   8.634 -0.8174  0.1523 -1.0297
  179SOPE   C3320441   0.830   3.832   7.282  0.7546  0.5420  0.1293
  179SOPE   H3X20442   0.900   3.746   7.280 -1.9645 -1.7875  1.3359
  179SOPE   H3Y20443   0.751   3.812   7.206 -2.6154 -0.2727  3.6828
  179SOPE   C3420444   0.759   3.832   7.419 -0.8618 -0.2713  0.7157
  179SOPE   H4X20445   0.716   3.731   7.437  0.9383 -1.7154 -2.5826
  179SOPE   H4Y20446   0.675   3.903   7.412 -1.1015 -0.5340  0.9135
  179SOPE   C3520447   0.850   3.881   7.537 -0.2769  0.0198 -0.4621
  179SOPE   H5X20448   0.863   3.990   7.523 -0.7709 -0.1325 -2.2177
  179SOPE   H5Y20449   0.950   3.833   7.521 -1.9717 -3.6634 -0.4996
  179SOPE   C3620450   0.782   3.843   7.666 -0.5099  0.0545  0.1388
  179SOPE   H6X20451   0.756   3.736   7.657 -0.8030 -0.0777  2.4019
  179SOPE   H6Y20452   0.688   3.899   7.687 -0.6743 -0.3203  0.4022
  179SOPE   C3720453   0.887   3.855   7.779 -0.3911  0.1029  0.0050
  179SOPE   H7X20454   0.944   3.951   7.776 -2.0832  1.1306  0.2965
  179SOPE   H7Y20455   0.967   3.782   7.754 -0.6831  0.0953 -0.9188
  179SOPE   C3820456   0.817   3.832   7.904 -0.0008  0.2589  0.4783
  179SOPE   H8X20457   0.734   3.759   7.909  1.0585 -1.0441 -0.4828
  179SOPE   H8Y20458   0.773   3.930   7.934 -1.5682 -0.7341  1.4971
  179SOPE   C3920459   0.903   3.790   8.027  0.5760 -0.5980 -0.5117
  179SOPE   H9X20460   0.969   3.873   8.060 -1.4107 -0.0760  2.2620
  179SOPE   H9Y20461   0.964   3.704   7.991  0.9745 -0.3797 -0.3555
  179SOPE  C31020462   0.828   3.760   8.150  0.4886  0.0273  0.6355
  179SOPE  H10X20463   0.740   3.693   8.135  1.0105 -0.7668  1.0557
  179SOPE  H10Y20464   0.786   3.856   8.187  1.7009  1.1289 -0.7666
  179SOPE  C31120465   0.911   3.688   8.264  0.3608 -0.7431  0.4639
  179SOPE  H11X20466   1.019   3.697   8.241 -0.0359 -1.3402 -1.6871
  179SOPE  H11Y20467   0.879   3.581   8.261 -1.4433 -0.1814 -4.1184
  179SOPE  C31220468   0.882   3.757   8.398 -0.2909 -0.0205  0.7151
  179SOPE  H12X20469   0.779   3.726   8.426 -1.1666  0.6576 -1.6817
  179SOPE  H12Y20470   0.892   3.867   8.390 -0.9781 -0.0546 -0.6882
  179SOPE  C31320471   0.987   3.732   8.511 -0.3654 -0.4182 -0.4236
  179SOPE  H13X20472   1.018   3.626   8.518 -1.4961 -0.6739  0.8941
  179SOPE  H13Y20473   0.956   3.753   8.616 -2.4762  1.4416 -1.3725
  179SOPE  C31420474   1.115   3.816   8.488  0.1844 -0.2170  0.5034
  179SOPE  H14X20475   1.090   3.919   8.457  0.1673 -0.7819 -1.4340
  179SOPE  H14Y20476   1.173   3.769   8.406  1.6671  2.0787  0.1955
  179SOPE  C31520477   1.210   3.823   8.608  0.6700 -0.2640  0.4032
  179SOPE  H15X20478   1.311   3.857   8.576  0.1108  1.2004  0.1729
  179SOPE  H15Y20479   1.217   3.723   8.656 -1.5901 -0.2234  0.8621
  179SOPE  C31620480   1.169   3.910   8.734 -0.5761  0.0024  0.1531
  179SOPE  H16X20481   1.220   3.875   8.826 -1.1911  2.1055  1.3160
  179SOPE  H16Y20482   1.059   3.904   8.751 -0.7523 -1.2795 -1.2794
  179SOPE  C31720483   1.212   4.061   8.722 -0.0563  0.7891 -0.2095
  179SOPE  H17X20484   1.170   4.110   8.813  0.1872  0.0758  0.2893
  179SOPE  H17Y20485   1.166   4.113   8.635  0.1402  1.1920 -0.0726
  179SOPE  C31820486   1.368   4.088   8.736  0.3248 -0.3653  0.0486
  179SOPE  H18X20487   1.396   4.051   8.838 -0.7680 -1.3550  0.0004
  179SOPE  H18Y20488   1.380   4.198   8.740 -1.3734 -0.2032  1.2270
  179SOPE  H18Z20489   1.427   4.028   8.664 -0.1265 -1.4199  0.5426
  180SOPE     N20490   0.318   3.925   6.405  0.6386  0.0382  0.8189
  180SOPE   HN120491   0.303   3.864   6.488 -0.6138 -3.0236 -1.5593
  180SOPE   HN220492   0.413   3.968   6.405  0.7961 -0.2445 -2.2461
  180SOPE   HN320493   0.253   4.006   6.399  0.9461  0.4122  2.2445
  180SOPE   C1220494   0.289   3.831   6.291  0.6552  0.3000 -0.6031
  180SOPE  H12A20495   0.372   3.757   6.287  0.3401 -0.2877  2.2533
  180SOPE  H12B20496   0.290   3.893   6.199 -0.4685  2.7851  1.0180
  180SOPE   C1120497   0.162   3.765   6.294  0.7117 -0.1066 -0.2179
  180SOPE  H11A20498   0.136   3.709   6.201 -0.2094  1.1213 -0.7165
  180SOPE  H11B20499   0.075   3.830   6.317 -0.0853 -1.6262  1.1456
  180SOPE     P20500   0.207   3.522   6.399  0.0174 -0.4407 -0.1576
  180SOPE   O1320501   0.351   3.516   6.399 -0.4537 -0.5355 -0.1419
  180SOPE   O1420502   0.131   3.445   6.294  0.5098  0.1440  0.1160
  180SOPE   O1220503   0.165   3.671   6.400 -0.5404  0.3993 -0.0042
  180SOPE   O1120504   0.155   3.486   6.546 -0.0715 -0.1865  0.0124
  180SOPE    C120505   0.227   3.524   6.661  0.1873 -0.5185  0.1959
  180SOPE    HA20506   0.279   3.622   6.651  0.7339 -1.1108 -3.5770
  180SOPE    HB20507   0.302   3.445   6.680  1.9470  0.1193 -3.7222
  180SOPE    C220508   0.143   3.540   6.786  0.4330 -0.2409 -0.1160
  180SOPE    HS20509   0.200   3.595   6.863  1.0325 -1.3095  0.2090
  180SOPE   O2120510   0.085   3.418   6.838  0.0391  0.0221 -0.2532
  180SOPE   C2120511   0.168   3.348   6.911  0.4236  0.3931  0.2998
  180SOPE   O2220512   0.282   3.367   6.934  0.3693 -0.1803 -0.5031
  180SOPE   C2220513   0.102   3.225   6.960 -0.3627 -0.3042  0.1046
  180SOPE   H2R20514   0.165   3.171   7.033  1.4445  1.0193 -0.4335
  180SOPE   H2S20515   0.101   3.155   6.875 -0.7266  0.6903 -0.7258
  180SOPE    C320516   0.027   3.639   6.752  0.3389 -0.5539 -0.0150
  180SOPE    HX20517  -0.011   3.594   6.658  0.1286  1.5950 -0.9794
  180SOPE    HY20518   0.061   3.742   6.728  0.4214  0.0347  2.4314
  180SOPE   O3120519  -0.081   3.645   6.855 -0.4885 -0.0501  0.1552
  180SOPE   C3120520  -0.080   3.745   6.940  0.0906 -0.4259  0.3400
  180SOPE   O3220521   0.000   3.840   6.932  0.7743  0.4697 -0.0575
  180SOPE   C3220522  -0.188   3.727   7.048  0.4090  0.3113  0.1459
  180SOPE   H2X20523  -0.147   3.653   7.120  0.3842  2.7718  2.7689
  180SOPE   H2Y20524  -0.288   3.700   7.007  0.3628  0.1785  0.3472
  180SOPE   C2320525  -0.038   3.244   7.021 -0.3955 -1.2147  0.4752
  180SOPE   H3R20526  -0.081   3.149   7.059  0.0641 -0.9563  1.6528
  180SOPE   H3S20527  -0.110   3.263   6.938  1.4505  0.7690 -0.7343
  180SOPE   C2420528  -0.043   3.334   7.136  0.3198  0.0241 -0.2773
  180SOPE   H4R20529  -0.001   3.434   7.111 -2.0652  0.3481 -3.2846
  180SOPE   H4S20530  -0.147   3.358   7.165 -0.3915 -0.8454 -2.0300
  180SOPE   C2520531   0.029   3.272   7.262  0.0690  0.2349  0.4868
  180SOPE   H5R20532  -0.002   3.166   7.251  0.6312  0.1711 -0.5646
  180SOPE   H5S20533   0.139   3.281   7.250  0.1078 -0.4025  0.3492
  180SOPE   C2620534  -0.009   3.337   7.394  0.1024  0.6366  0.0036
  180SOPE   H6R20535   0.009   3.446   7.404 -2.3648  0.9279  1.6009
  180SOPE   H6S20536  -0.118   3.321   7.404  0.2541 -1.2641 -1.1457
  180SOPE   C2720537   0.048   3.244   7.515 -0.8321 -0.4497  0.0293
  180SOPE   H7R20538   0.044   3.137   7.486  0.8901 -0.5473  0.0978
  180SOPE   H7S20539   0.156   3.261   7.530 -0.6773 -0.4618 -1.0107
  180SOPE   C2820540  -0.028   3.274   7.646 -0.6043 -0.1060  0.2933
  180SOPE   H8R20541  -0.031   3.385   7.652 -0.8591 -0.0691 -0.4548
  180SOPE   H8S20542  -0.129   3.233   7.622 -0.0937 -0.5162 -1.2297
  180SOPE   C2920543   0.032   3.199   7.768  0.6771 -0.4951  0.3537
  180SOPE   H9120544   0.049   3.091   7.752  1.3194 -0.2258 -0.8614
  180SOPE  C21020545   0.079   3.250   7.887 -0.1758  0.4107  0.4420
  180SOPE  H10120546   0.108   3.189   7.973 -1.1841  1.6593  1.7046
  180SOPE  C21120547   0.073   3.396   7.924 -0.1809 -0.7938 -0.2394
  180SOPE  H11R20548   0.036   3.452   7.835  0.5145 -1.0017 -0.6650
  180SOPE  H11S20549   0.174   3.434   7.950 -1.0321  2.0406 -0.8445
  180SOPE  C21220550  -0.014   3.436   8.047  0.4528  0.0307  0.7570
  180SOPE  H12R20551  -0.115   3.389   8.047  0.7979 -0.7092  1.4238
  180SOPE  H12S20552  -0.033   3.545   8.051  1.0065  0.3388 -3.2142
  180SOPE  C21320553   0.045   3.407   8.190  0.1750 -0.4886 -0.1008
  180SOPE  H13R20554  -0.011   3.473   8.259  0.2475 -0.2956 -0.2241
  180SOPE  H13S20555   0.151   3.440   8.180 -0.3659  0.6176 -2.5577
  180SOPE  C21420556   0.026   3.264   8.241 -0.1951  0.3493  0.0420
  180SOPE  H14R20557   0.032   3.192   8.156  0.6212  1.3992 -0.8112
  180SOPE  H14S20558  -0.073   3.254   8.291  0.7012  1.6487  2.1529
  180SOPE  C21520559   0.126   3.229   8.357 -0.2260  0.1558 -0.1334
  180SOPE  H15R20560   0.231   3.213   8.327  0.6313  1.1070  2.2704
  180SOPE  H15S20561   0.102   3.123   8.382 -1.4917 -0.0398 -2.0875
  180SOPE  C21620562   0.108   3.316   8.478 -0.3867  0.5580 -0.1646
  180SOPE  H16R20563   0.016   3.288   8.534 -0.8985  1.2649 -0.6416
  180SOPE  H16S20564   0.081   3.412   8.429  1.5504  1.3672  0.3425
  180SOPE  C21720565   0.235   3.347   8.557  0.3584 -0.5325 -0.2429
  180SOPE  H17R20566   0.209   3.422   8.635  0.1116 -1.6192  0.7382
  180SOPE  H17S20567   0.321   3.387   8.500 -0.1353 -1.5882 -1.7557
  180SOPE  C21820568   0.313   3.231   8.619 -0.8033  0.2393  0.9964
  180SOPE  H18R20569   0.256   3.163   8.685 -0.7188 -1.2558 -0.4224
  180SOPE  H18S20570   0.401   3.272   8.673  1.8644 -2.8304 -0.7500
  180SOPE  H18T20571   0.360   3.172   8.537  1.8762  2.0044  1.1826
  180SOPE   C3320572  -0.207   3.858   7.126 -0.6599  0.1271  0.3300
  180SOPE   H3X20573  -0.261   3.932   7.064 -0.2898 -0.5007 -0.7625
  180SOPE   H3Y20574  -0.107   3.904   7.145 -0.5803 -1.1095  3.1868
  180SOPE   C3420575  -0.301   3.843   7.245  0.3064 -0.0405  0.8797
  180SOPE   H4X20576  -0.379   3.765   7.229  0.2889  0.3446 -1.0239
  180SOPE   H4Y20577  -0.354   3.940   7.255  0.4599  0.1433 -0.0475
  180SOPE   C3520578  -0.225   3.811   7.374  0.2731  0.5883  0.3353
  180SOPE   H5X20579  -0.136   3.878   7.373 -0.3122  1.3503 -1.4182
  180SOPE   H5Y20580  -0.195   3.705   7.380 -2.2322 -0.2957 -2.0700
  180SOPE   C3620581  -0.306   3.846   7.500 -0.1141 -0.2177 -0.6749
  180SOPE   H6X20582  -0.403   3.792   7.498  1.0263 -2.3009 -3.3374
  180SOPE   H6Y20583  -0.327   3.955   7.503  1.8994  0.1903 -0.2588
  180SOPE   C3720584  -0.224   3.801   7.624 -0.3776 -0.7540  0.2694
  180SOPE   H7X20585  -0.130   3.858   7.642  0.2149 -1.7496  0.4185
  180SOPE   H7Y20586  -0.185   3.700   7.596  0.4527 -0.1247 -0.8568
  180SOPE   C3820587  -0.305   3.810   7.752  0.3563  0.0361  0.0518
  180SOPE   H8X20588  -0.384   3.732   7.749  1.7720 -1.4146  0.1745
  180SOPE   H8Y20589  -0.352   3.910   7.741 -1.6322 -0.9718 -0.8168
  180SOPE   C3920590  -0.218   3.798   7.883  0.2257  0.1395 -0.1866
  180SOPE   H9X20591  -0.154   3.889   7.884 -0.5650  0.7016  1.2989
  180SOPE   H9Y20592  -0.148   3.712   7.882  0.1872  0.1048  0.0798
  180SOPE  C31020593  -0.297   3.786   8.019 -0.0123  0.0739  0.6236
  180SOPE  H10X20594  -0.361   3.696   8.022 -2.8148  1.9821 -0.0497
  180SOPE  H10Y20595  -0.365   3.874   8.019  1.1702  1.0174  0.5416
  180SOPE  C31120596  -0.208   3.793   8.139  0.1371 -0.4044  0.3977
  180SOPE  H11X20597  -0.128   3.717   8.125 -0.4292 -0.6688 -1.5211
  180SOPE  H11Y20598  -0.267   3.770   8.231  0.0699 -0.6691  0.2883
  180SOPE  C31220599  -0.133   3.927   8.164 -0.0513 -0.6457 -0.2975
  180SOPE  H12X20600  -0.202   4.015   8.166  1.6519  0.7082 -0.0224
  180SOPE  H12Y20601  -0.070   3.933   8.072  0.8199 -0.1843  0.3249
  180SOPE  C31320602  -0.046   3.935   8.286 -0.4566 -0.1411  0.4425
  180SOPE  H13X20603   0.001   4.035   8.289 -0.3606 -0.2226  2.0069
  180SOPE  H13Y20604   0.036   3.862   8.270 -1.0646 -1.1146  1.6668
  180SOPE  C31420605  -0.098   3.902   8.426 -0.3729 -0.7148  0.1502
  180SOPE  H14X20606  -0.019   3.928   8.500 -0.8482  1.3127 -0.0377
  180SOPE  H14Y20607  -0.133   3.798   8.444 -2.9465  0.3813  1.6688
  180SOPE  C31520608  -0.222   3.985   8.455 -0.1944  0.3925 -1.2920
  180SOPE  H15X20609  -0.316   3.961   8.402 -0.5705  1.2989 -1.0340
  180SOPE  H15Y20610  -0.209   4.092   8.428  1.5114  0.3513 -0.7389
  180SOPE  C31620611  -0.231   3.992   8.613  0.3280 -0.5549  0.5291
  180SOPE  H16X20612  -0.139   4.030   8.663  0.0807 -0.7506  1.1311
  180SOPE  H16Y20613  -0.247   3.891   8.655 -0.9629 -0.6849 -0.2649
  180SOPE  C31720614  -0.339   4.086   8.655 -0.0200 -0.2272  0.0046
  180SOPE  H17X20615  -0.429   4.028   8.624 -0.0422 -1.4493  2.2444
  180SOPE  H17Y20616  -0.321   4.175   8.592 -2.3763  1.0317  1.0459
  180SOPE  C31820617  -0.348   4.115   8.802 -0.4411  0.2728  0.8064
  180SOPE  H18X20618  -0.257   4.156   8.850  1.3008  0.1327 -2.2233
  180SOPE  H18Y20619  -0.359   4.019   8.856 -3.7267  0.0702 -0.0911
  180SOPE  H18Z20620  -0.426   4.191   8.828  0.2956  1.4075 -0.2378
  181SOPE     N20621   6.029   1.624   6.024 -0.2330  0.1149  0.0048
  181SOPE   HN120622   6.129   1.632   6.052 -0.5808  0.4294  1.1751
  181SOPE   HN220623   6.008   1.560   5.944 -0.7346 -0.4744  0.6005
  181SOPE   HN320624   6.013   1.718   5.984 -0.9140 -0.6979 -1.6914
  181SOPE   C1220625   5.942   1.576   6.130 -0.6267 -0.0896  0.0679
  181SOPE  H12A20626   5.971   1.623   6.227  2.1710 -1.7805  0.0972
  181SOPE  H12B20627   5.952   1.467   6.147 -1.5731 -0.1844  0.0614
  181SOPE   C1120628   5.802   1.613   6.116 -0.2156  0.7018 -0.0439
  181SOPE  H11A20629   5.783   1.722   6.107  1.1571  0.7262 -3.1390
  181SOPE  H11B20630   5.745   1.581   6.206 -0.4212 -0.9778 -0.7498
  181SOPE     P20631   5.679   1.413   6.009  0.7189 -0.1404  0.0097
  181SOPE   O1320632   5.619   1.369   5.878 -0.4353  0.5531 -0.4172
  181SOPE   O1420633   5.577   1.424   6.117  0.0115 -0.4848 -0.4921
  181SOPE   O1220634   5.757   1.556   5.997  0.1458  0.1315 -0.1277
  181SOPE   O1120635   5.793   1.318   6.058  0.2703 -0.4385 -0.1963
  181SOPE    C120636   5.793   1.184   6.007 -0.0713  0.0279  0.4531
  181SOPE    HA20637   5.824   1.180   5.901 -0.4919  0.9058  0.2937
  181SOPE    HB20638   5.693   1.136   6.003  0.0906 -0.3702  1.0895
  181SOPE    C220639   5.895   1.094   6.081  0.9707 -0.2320  0.0429
  181SOPE    HS20640   5.881   0.991   6.043 -4.6703  0.9334 -1.4419
  181SOPE   O2120641   5.864   1.100   6.224  0.1821 -1.0710 -0.3240
  181SOPE   C2120642   5.895   0.992   6.288  0.5922 -0.2331  0.3500
  181SOPE   O2220643   5.916   0.879   6.247  0.0106 -0.1037  0.3539
  181SOPE   C2220644   5.912   1.036   6.441  0.6923  0.0115 -0.2599
  181SOPE   H2R20645   5.827   1.103   6.465  0.3339 -0.6741  0.3971
  181SOPE   H2S20646   6.010   1.087   6.454 -0.8824  3.6836 -2.0953
  181SOPE    C320647   6.037   1.133   6.059  0.4155  0.3842 -0.5479
  181SOPE    HX20648   6.048   1.227   6.118  1.4137 -0.7864  1.1952
  181SOPE    HY20649   6.042   1.161   5.951 -1.7684 -0.1583 -0.8122
  181SOPE   O3120650   6.130   1.036   6.090  0.5993  0.2332  0.4770
  181SOPE   C3120651   6.209   1.049   6.195 -0.0019 -0.6864  0.1528
  181SOPE   O3220652   6.193   1.137   6.279  0.4611 -0.8323  0.2475
  181SOPE   C3220653   6.308   0.936   6.200  0.3521 -0.0187 -0.2630
  181SOPE   H2X20654   6.412   0.976   6.200 -0.1578  1.3277 -0.2288
  181SOPE   H2Y20655   6.306   0.874   6.107 -0.0310 -0.0099 -0.2585
  181SOPE   C2320656   5.915   0.927   6.544  0.6228 -0.9721  0.6193
  181SOPE   H3R20657   5.976   0.839   6.512 -0.2811 -1.3390 -0.1277
  181SOPE   H3S20658   5.811   0.888   6.545 -0.6580  2.1261 -2.1461
  181SOPE   C2420659   5.948   0.966   6.684 -0.2163  0.3845  1.4180
  181SOPE   H4R20660   6.044   1.021   6.685  0.4170 -0.6814 -0.2811
  181SOPE   H4S20661   5.873   1.041   6.719  0.1655  1.2399  0.4059
  181SOPE   C2520662   5.954   0.845   6.782 -0.6281  0.1851 -0.0850
  181SOPE   H5R20663   5.864   0.780   6.765  0.0272 -0.9357  0.6576
  181SOPE   H5S20664   6.043   0.779   6.775  0.1386  1.2389 -0.4091
  181SOPE   C2620665   5.941   0.896   6.928 -0.2434 -0.1364 -0.0017
  181SOPE   H6R20666   5.846   0.949   6.952 -0.0913  1.3102 -2.3540
  181SOPE   H6S20667   5.940   0.806   6.994  1.8410  0.3672  0.7545
  181SOPE   C2720668   6.057   0.979   6.976  0.1492 -0.4576  0.7069
  181SOPE   H7R20669   6.158   0.933   6.961 -0.7348 -2.3968  0.5370
  181SOPE   H7S20670   6.055   1.078   6.926 -1.4987 -0.8725 -0.0771
  181SOPE   C2820671   6.041   1.008   7.129  0.5760 -0.6493  0.1649
  181SOPE   H8R20672   5.940   1.050   7.145  0.4199  1.3483 -4.9831
  181SOPE   H8S20673   6.041   0.909   7.179 -2.1586 -0.3256  0.9006
  181SOPE   C2920674   6.151   1.100   7.182 -0.6987  0.1340 -0.7137
  181SOPE   H9120675   6.183   1.188   7.124 -0.5762  1.0790  0.7784
  181SOPE  C21020676   6.232   1.093   7.287 -0.0515  0.2010  0.3187
  181SOPE  H10120677   6.301   1.176   7.310  0.0576  0.5216 -1.1025
  181SOPE  C21120678   6.238   0.969   7.376  0.4549  0.2280 -0.0702
  181SOPE  H11R20679   6.340   0.964   7.420 -0.5732  1.5739  2.5699
  181SOPE  H11S20680   6.219   0.876   7.317 -0.4859  0.7205 -0.5395
  181SOPE  C21220681   6.140   0.959   7.486 -0.3917 -0.2453 -0.2320
  181SOPE  H12R20682   6.034   0.972   7.453 -0.2286  1.8452  0.0006
  181SOPE  H12S20683   6.160   1.037   7.563 -0.1565  0.4123 -0.9628
  181SOPE  C21320684   6.150   0.825   7.566 -0.2708 -0.0234 -0.0939
  181SOPE  H13R20685   6.251   0.818   7.611  0.3518 -1.4139 -1.6171
  181SOPE  H13S20686   6.159   0.736   7.500 -1.1164 -0.6195  0.5766
  181SOPE  C21420687   6.030   0.802   7.663  0.0935 -0.9258  0.1367
  181SOPE  H14R20688   6.051   0.703   7.707  1.7271 -1.1163 -1.0374
  181SOPE  H14S20689   5.936   0.803   7.603 -0.4598 -2.1015  0.9775
  181SOPE  C21520690   6.016   0.908   7.772 -0.2801 -0.0639 -0.3161
  181SOPE  H15R20691   5.978   0.993   7.712  3.5418  0.5579 -1.9768
  181SOPE  H15S20692   6.115   0.935   7.816  0.5117 -1.6885 -1.0562
  181SOPE  C21620693   5.922   0.867   7.878  0.1071  0.1032  0.3061
  181SOPE  H16R20694   5.977   0.788   7.934  0.6344  0.8108  0.8084
  181SOPE  H16S20695   5.832   0.817   7.838  1.3351 -0.3539 -1.9492
  181SOPE  C21720696   5.883   0.977   7.971 -0.2833  0.5706  0.2283
  181SOPE  H17R20697   5.844   1.064   7.913 -2.0816  2.0892  3.5938
  181SOPE  H17S20698   5.972   1.009   8.030  0.1680 -0.6414  0.2040
  181SOPE  C21820699   5.764   0.933   8.064  0.2943 -0.0732  0.7621
  181SOPE  H18R20700   5.730   1.022   8.122  3.3671  1.3357  0.5121
  181SOPE  H18S20701   5.795   0.854   8.135 -0.7162 -3.1618 -2.1467
  181SOPE  H18T20702   5.682   0.889   8.003  1.4205 -0.2408 -0.6422
  181SOPE   C3320703   6.286   0.845   6.324 -0.2543 -0.3064  0.2504
  181SOPE   H3X20704   6.336   0.747   6.310  1.2221  0.4113  0.3727
  181SOPE   H3Y20705   6.176   0.837   6.330 -0.2045 -0.6445  0.7138
  181SOPE   C3420706   6.358   0.906   6.442  0.9092 -0.4109 -0.3792
  181SOPE   H4X20707   6.320   1.010   6.459 -1.3138 -1.2203 -0.1662
  181SOPE   H4Y20708   6.468   0.914   6.430  0.8134  1.9967 -0.0283
  181SOPE   C3520709   6.310   0.831   6.561 -0.0600  0.4155 -0.0969
  181SOPE   H5X20710   6.352   0.729   6.555  2.0237  1.3087 -1.3534
  181SOPE   H5Y20711   6.199   0.832   6.568  0.0744 -2.4882  3.5347
  181SOPE   C3620712   6.375   0.881   6.693 -0.5593  0.0914 -0.1477
  181SOPE   H6X20713   6.328   0.982   6.702  1.2516  0.8967  0.4951
  181SOPE   H6Y20714   6.481   0.905   6.670  0.0287 -0.7554  1.6760
  181SOPE   C3720715   6.366   0.796   6.818 -1.0951 -0.1947  1.0481
  181SOPE   H7X20716   6.423   0.705   6.790  0.0499  0.7020  0.4439
  181SOPE   H7Y20717   6.258   0.771   6.826 -1.0642 -0.5094  0.5074
  181SOPE   C3820718   6.413   0.858   6.945 -0.7113  0.2441  0.0938
  181SOPE   H8X20719   6.359   0.952   6.971 -1.3964 -0.5709  1.6698
  181SOPE   H8Y20720   6.522   0.881   6.945 -0.5695 -0.4400  1.6721
  181SOPE   C3920721   6.389   0.767   7.065 -0.9258  0.3077  0.2665
  181SOPE   H9X20722   6.432   0.666   7.045 -0.6500  0.3053  0.8550
  181SOPE   H9Y20723   6.279   0.755   7.071 -0.4940 -4.5079  0.4272
  181SOPE  C31020724   6.458   0.807   7.194  1.1757 -0.1898  0.5072
  181SOPE  H10X20725   6.418   0.758   7.285  0.2278  0.7154  0.5953
  181SOPE  H10Y20726   6.437   0.915   7.211  0.8425  0.2509 -2.3467
  181SOPE  C31120727   6.604   0.780   7.195  0.3412 -0.9233 -0.5400
  181SOPE  H11X20728   6.659   0.852   7.132 -2.3305  0.7604 -1.0119
  181SOPE  H11Y20729   6.637   0.682   7.155  1.1792 -0.7577 -0.2706
  181SOPE  C31220730   6.661   0.791   7.338 -0.4156  0.7906 -0.9675
  181SOPE  H12X20731   6.758   0.738   7.334 -0.6964  0.0735  0.9386
  181SOPE  H12Y20732   6.599   0.741   7.416  0.2713  1.9701  0.3720
  181SOPE  C31320733   6.683   0.940   7.384  0.3776  0.1894  0.7293
  181SOPE  H13X20734   6.599   1.003   7.347 -0.4234 -1.7041 -0.7864
  181SOPE  H13Y20735   6.775   0.969   7.330 -0.3140  0.9917 -0.0413
  181SOPE  C31420736   6.700   0.950   7.527 -0.5346  0.1535  0.5663
  181SOPE  H14X20737   6.778   1.026   7.548 -0.1727  0.0427 -0.3594
  181SOPE  H14Y20738   6.739   0.852   7.562 -1.1630  0.1813  1.3626
  181SOPE  C31520739   6.578   0.978   7.607 -0.1515  0.4942  0.2003
  181SOPE  H15X20740   6.499   0.903   7.583 -1.0295  2.0102 -1.8081
  181SOPE  H15Y20741   6.533   1.076   7.580  1.8840  1.1334 -0.9729
  181SOPE  C31620742   6.602   0.985   7.753  0.6847  0.6297 -0.7010
  181SOPE  H16X20743   6.686   1.052   7.784  0.7154 -0.3266  1.3943
  181SOPE  H16Y20744   6.648   0.888   7.783  0.8625  0.1757 -2.4348
  181SOPE  C31720745   6.481   1.009   7.849 -0.1104  0.7395 -0.3250
  181SOPE  H17X20746   6.402   0.934   7.826 -0.0526 -0.0558  1.9741
  181SOPE  H17Y20747   6.436   1.108   7.824 -1.0806  0.6407  0.9571
  181SOPE  C31820748   6.519   0.996   7.995  0.4952  0.4153 -0.0677
  181SOPE  H18X20749   6.441   1.031   8.067 -0.8645 -0.2489 -1.2084
  181SOPE  H18Y20750   6.606   1.065   8.007 -0.6631  1.5875  1.9590
  181SOPE  H18Z20751   6.531   0.892   8.031 -2.7604  0.5549  1.6356
  182SOPE     N20752   0.591   3.495   6.545  0.4401 -0.7519  0.2170
  182SOPE   HN120753   0.623   3.587   6.580  2.3488 -1.6259  0.8408
  182SOPE   HN220754   0.502   3.518   6.497  0.7449  1.9958  0.8846
  182SOPE   HN320755   0.560   3.445   6.631  4.2274 -3.0935  0.3428
  182SOPE   C1220756   0.691   3.417   6.456  0.7783 -0.2043 -0.1598
  182SOPE  H12A20757   0.787   3.422   6.512  0.8635 -1.8362 -0.1551
  182SOPE  H12B20758   0.698   3.477   6.363 -1.8465  1.3956  0.6118
  182SOPE   C1120759   0.649   3.274   6.446 -0.6278 -0.2872 -0.6140
  182SOPE  H11A20760   0.558   3.282   6.384 -1.4298 -2.0146  0.2937
  182SOPE  H11B20761   0.627   3.224   6.543 -1.4233  0.9840 -0.1436
  182SOPE     P20762   0.727   3.047   6.346  0.0351 -0.3128  0.0391
  182SOPE   O1320763   0.791   3.030   6.214  0.4152  0.0593  0.2512
  182SOPE   O1420764   0.591   3.010   6.366 -0.6494  0.2463  1.0671
  182SOPE   O1220765   0.751   3.194   6.386 -0.3503 -0.1038  1.1086
  182SOPE   O1120766   0.812   2.972   6.456  0.2431  0.3560  0.3294
  182SOPE    C120767   0.754   2.864   6.528  0.2445  0.5789  0.7547
  182SOPE    HA20768   0.826   2.789   6.567  0.4361  0.7766  0.7766
  182SOPE    HB20769   0.682   2.799   6.473  2.2541  0.0127 -1.2485
  182SOPE    C220770   0.692   2.918   6.663 -0.9459 -0.3469 -0.5855
  182SOPE    HS20771   0.626   3.003   6.634  1.5647  1.4032 -1.3607
  182SOPE   O2120772   0.796   2.967   6.748  0.4969  0.3080 -0.1950
  182SOPE   C2120773   0.773   3.075   6.815 -0.2930  0.6146 -0.1091
  182SOPE   O2220774   0.689   3.161   6.794 -0.0902  0.3024 -0.4757
  182SOPE   C2220775   0.873   3.092   6.935  0.5623 -0.3315  0.1105
  182SOPE   H2R20776   0.847   3.188   6.985  0.3139 -1.3756  2.0484
  182SOPE   H2S20777   0.978   3.099   6.900  0.3965 -1.2502 -0.5722
  182SOPE    C320778   0.620   2.811   6.742  0.5812  0.5502 -0.5893
  182SOPE    HX20779   0.675   2.716   6.756 -0.8875  0.0468  2.3244
  182SOPE    HY20780   0.531   2.769   6.690 -0.8639 -0.4154  2.4874
  182SOPE   O3120781   0.577   2.839   6.872 -0.1086 -0.2350  0.7519
  182SOPE   C3120782   0.482   2.939   6.875  0.1312 -0.0960 -0.6906
  182SOPE   O3220783   0.431   2.985   6.778  0.5876 -0.2196  0.2172
  182SOPE   C3220784   0.447   2.970   7.018 -0.2986 -0.0475 -0.3406
  182SOPE   H2X20785   0.470   2.890   7.093 -0.9375 -0.7855 -0.9301
  182SOPE   H2Y20786   0.338   2.987   7.020 -0.0670  1.3481  1.6458
  182SOPE   C2320787   0.867   2.970   7.033 -1.0051 -0.2866 -0.1994
  182SOPE   H3R20788   0.907   2.880   6.983  0.4349 -0.7217  1.6785
  182SOPE   H3S20789   0.760   2.956   7.057 -0.0846 -3.1421  2.5460
  182SOPE   C2420790   0.941   2.996   7.168  0.2909  0.0725 -0.0583
  182SOPE   H4R20791   0.909   3.096   7.204 -2.4232 -1.3710  1.7061
  182SOPE   H4S20792   0.908   2.920   7.242 -2.7097  0.7068 -0.7040
  182SOPE   C2520793   1.086   3.004   7.151 -0.4432  0.6108  0.0151
  182SOPE   H5R20794   1.122   2.899   7.149  0.0245  0.7568  0.6876
  182SOPE   H5S20795   1.119   3.052   7.056 -0.3066 -0.1883 -0.3375
  182SOPE   C2620796   1.161   3.073   7.270 -0.6777 -0.0370  0.0604
  182SOPE   H6R20797   1.111   3.055   7.368 -0.2357 -0.5774  0.1927
  182SOPE   H6S20798   1.261   3.025   7.264 -0.4096  0.7111 -1.7135
  182SOPE   C2720799   1.183   3.226   7.243  0.7179  0.3329 -0.1907
  182SOPE   H7R20800   1.219   3.246   7.139  2.0622  0.5213  0.3005
  182SOPE   H7S20801   1.092   3.287   7.264 -1.1253 -2.2568 -0.4041
  182SOPE   C2820802   1.289   3.301   7.322  0.4383  0.6766  0.4586
  182SOPE   H8R20803   1.275   3.410   7.304  0.3243  0.5767 -0.0489
  182SOPE   H8S20804   1.271   3.266   7.426 -0.4232 -1.5848 -0.4181
  182SOPE   C2920805   1.421   3.272   7.271  0.6653 -0.2501 -0.4930
  182SOPE   H9120806   1.453   3.318   7.176 -0.3542  0.1493 -0.6510
  182SOPE  C21020807   1.508   3.193   7.338  0.1752 -0.4096  0.4360
  182SOPE  H10120808   1.608   3.178   7.294  0.1995  0.1611  0.2932
  182SOPE  C21120809   1.483   3.135   7.478  0.1374  0.2830  0.4552
  182SOPE  H11R20810   1.538   3.039   7.478  0.6356  0.5610 -0.4297
  182SOPE  H11S20811   1.374   3.121   7.493 -0.1255  1.5844 -0.0914
  182SOPE  C21220812   1.536   3.232   7.590 -0.2611 -0.2613  0.4925
  182SOPE  H12R20813   1.622   3.293   7.556 -0.9690  1.0374  1.0127
  182SOPE  H12S20814   1.568   3.180   7.683 -0.5872 -0.1607  0.6605
  182SOPE  C21320815   1.430   3.332   7.644  0.5364 -0.2502  0.3383
  182SOPE  H13R20816   1.330   3.284   7.647  0.9913 -1.2266 -0.2321
  182SOPE  H13S20817   1.412   3.413   7.570  3.5920 -0.2017 -0.4277
  182SOPE  C21420818   1.462   3.386   7.784 -0.2833  0.0729  0.5380
  182SOPE  H14R20819   1.473   3.291   7.841  0.1198 -0.2830 -0.1350
  182SOPE  H14S20820   1.390   3.455   7.833  1.0764  3.6317 -2.3220
  182SOPE  C21520821   1.597   3.451   7.803  0.5920  0.5105 -0.9071
  182SOPE  H15R20822   1.595   3.550   7.753  2.6984 -0.2131 -2.5445
  182SOPE  H15S20823   1.676   3.390   7.754  1.9603 -1.9762  4.0575
  182SOPE  C21620824   1.631   3.466   7.946  0.3042 -0.7684  0.0834
  182SOPE  H16R20825   1.630   3.363   7.989 -0.2969 -0.5006  0.7130
  182SOPE  H16S20826   1.561   3.531   8.003  0.2518 -0.7887  0.0428
  182SOPE  C21720827   1.771   3.524   7.977  0.2005 -0.0964 -0.6151
  182SOPE  H17R20828   1.787   3.633   7.967  0.6577  0.0241  1.2943
  182SOPE  H17S20829   1.845   3.468   7.916 -0.0048 -1.4463  0.3432
  182SOPE  C21820830   1.809   3.487   8.121  0.0864  0.5128 -0.2799
  182SOPE  H18R20831   1.773   3.386   8.151  2.5266 -0.7164 -1.3410
  182SOPE  H18S20832   1.776   3.562   8.195 -1.6468 -0.8326  0.3548
  182SOPE  H18T20833   1.919   3.478   8.123 -0.1134 -1.9435  1.9769
  182SOPE   C3320834   0.496   3.109   7.064 -0.5626 -0.9560  0.5874
  182SOPE   H3X20835   0.480   3.184   6.984  0.1731  0.2429  1.5505
  182SOPE   H3Y20836   0.607   3.107   7.073 -0.3899  0.5491 -1.0424
  182SOPE   C3420837   0.431   3.156   7.199 -0.1814  0.8157  0.5047
  182SOPE   H4X20838   0.323   3.132   7.189 -0.1387  1.3421 -1.3441
  182SOPE   H4Y20839   0.454   3.265   7.203  1.4878  0.5345 -0.9532
  182SOPE   C3520840   0.490   3.084   7.320 -0.0077  0.3100 -0.4219
  182SOPE   H5X20841   0.596   3.110   7.342  0.5965 -0.5728 -2.1902
  182SOPE   H5Y20842   0.509   2.979   7.292  3.2395  0.0120  2.5365
  182SOPE   C3620843   0.407   3.091   7.451  0.3138 -0.6077  0.3951
  182SOPE   H6X20844   0.299   3.079   7.429  0.5346 -0.2658 -0.9403
  182SOPE   H6Y20845   0.411   3.193   7.494 -1.5546 -0.6215  0.6318
  182SOPE   C3720846   0.453   2.990   7.564  0.7418  0.5098 -0.4192
  182SOPE   H7X20847   0.562   2.978   7.580  0.5866 -1.4665 -0.7484
  182SOPE   H7Y20848   0.418   2.887   7.544 -1.0595  0.7533  1.3730
  182SOPE   C3820849   0.383   3.025   7.697 -0.6772  0.4297 -0.6639
  182SOPE   H8X20850   0.415   2.939   7.758 -3.4377  1.5749  2.5712
  182SOPE   H8Y20851   0.272   3.030   7.687 -0.6422  2.5137 -0.2358
  182SOPE   C3920852   0.444   3.154   7.774 -0.0676 -0.0983  0.0348
  182SOPE   H9X20853   0.396   3.154   7.874 -0.9401  1.2040 -0.3652
  182SOPE   H9Y20854   0.397   3.244   7.729  1.0643  0.7529  0.5439
  182SOPE  C31020855   0.593   3.183   7.753  0.2717 -0.0986  0.3046
  182SOPE  H10X20856   0.619   3.283   7.794  1.8471 -0.8638  1.2390
  182SOPE  H10Y20857   0.593   3.196   7.642 -0.3271 -1.9192  0.0766
  182SOPE  C31120858   0.695   3.083   7.813 -0.6511  0.3010  0.5037
  182SOPE  H11X20859   0.668   2.976   7.795 -1.5622  0.7964 -1.2127
  182SOPE  H11Y20860   0.707   3.098   7.922  0.0495 -0.4437  0.5336
  182SOPE  C31220861   0.833   3.104   7.754  0.4032  0.0110 -0.2674
  182SOPE  H12X20862   0.863   3.209   7.778  2.3596 -0.7584  0.8098
  182SOPE  H12Y20863   0.817   3.087   7.645  1.8667  0.3305 -0.5431
  182SOPE  C31320864   0.931   2.990   7.794 -0.5527 -0.4528 -0.1778
  182SOPE  H13X20865   0.886   2.894   7.762 -0.0679 -0.3722 -1.1303
  182SOPE  H13Y20866   0.925   3.001   7.904 -3.2596 -1.9778 -0.1290
  182SOPE  C31420867   1.066   3.016   7.742 -0.1703  0.1349  0.6238
  182SOPE  H14X20868   1.115   3.095   7.803 -0.0676  0.2362  0.4098
  182SOPE  H14Y20869   1.067   3.034   7.632 -2.2808 -0.0281  0.5599
  182SOPE  C31520870   1.161   2.891   7.749  1.0519  0.3811  0.3207
  182SOPE  H15X20871   1.109   2.801   7.708  0.8296 -0.8361  3.1577
  182SOPE  H15Y20872   1.182   2.856   7.852 -0.7943  0.3214  0.6920
  182SOPE  C31620873   1.293   2.923   7.677 -0.7586 -0.1554 -0.8934
  182SOPE  H16X20874   1.339   3.015   7.719  0.7186 -1.1246 -0.3477
  182SOPE  H16Y20875   1.267   2.941   7.571 -2.2640 -0.9953 -0.6800
  182SOPE  C31720876   1.382   2.802   7.672 -0.3272 -0.0030  0.7253
  182SOPE  H17X20877   1.477   2.843   7.632 -0.2051 -0.2741  0.7318
  182SOPE  H17Y20878   1.340   2.735   7.594  2.1161  1.1670 -1.6685
  182SOPE  C31820879   1.417   2.719   7.799 -0.2309  0.5591 -0.0663
  182SOPE  H18X20880   1.487   2.780   7.860 -0.5424 -0.5465  1.4305
  182SOPE  H18Y20881   1.459   2.620   7.771 -0.9133  0.1559  0.3166
  182SOPE  H18Z20882   1.323   2.695   7.853 -0.1740  0.1622 -0.1441
  183SOPE     N20883   2.062   0.529   6.129 -0.0513 -0.1656 -0.6039
  183SOPE   HN120884   2.070   0.631   6.149  0.2261  0.0881 -1.9416
  183SOPE   HN220885   2.087   0.499   6.033 -1.5050  2.4747 -1.8568
  183SOPE   HN320886   1.958   0.518   6.130 -0.1966  1.1042 -0.2695
  183SOPE   C1220887   2.118   0.453   6.243  0.3401  0.2757 -0.1945
  183SOPE  H12A20888   2.184   0.378   6.194 -0.6985 -1.2227  0.6822
  183SOPE  H12B20889   2.035   0.403   6.296  1.0154 -1.0990 -0.4118
  183SOPE   C1120890   2.193   0.545   6.334 -0.3565 -0.2198  1.0231
  183SOPE  H11A20891   2.214   0.502   6.434  1.3633 -0.7337  0.4488
  183SOPE  H11B20892   2.128   0.629   6.367 -1.2780  0.7238 -2.9908
  183SOPE     P20893   2.458   0.513   6.289  0.4080  0.3565  0.4044
  183SOPE   O1320894   2.560   0.581   6.204  0.2314 -0.2863  0.0467
  183SOPE   O1420895   2.422   0.369   6.259 -0.2743 -0.4067  0.1214
  183SOPE   O1220896   2.317   0.597   6.285 -0.3769 -0.2839  0.2429
  183SOPE   O1120897   2.507   0.533   6.438  0.5827  0.5141  0.0560
  183SOPE    C120898   2.476   0.653   6.513 -0.3128  0.3228  0.3734
  183SOPE    HA20899   2.365   0.666   6.507 -0.3486 -0.3273 -0.4864
  183SOPE    HB20900   2.512   0.750   6.474 -1.0867 -0.0944 -1.4694
  183SOPE    C220901   2.504   0.640   6.665  0.6456 -0.7816 -0.3004
  183SOPE    HS20902   2.460   0.724   6.721  0.0406 -2.0160  1.1032
  183SOPE   O2120903   2.644   0.618   6.704 -0.0728  0.2214 -0.2515
  183SOPE   C2120904   2.710   0.730   6.689  0.1922 -0.1092 -0.3287
  183SOPE   O2220905   2.666   0.831   6.641  0.0215  0.4656  0.4657
  183SOPE   C2220906   2.855   0.686   6.704  0.1769 -0.2747  0.6554
  183SOPE   H2R20907   2.896   0.721   6.607 -1.4539  1.4757  0.5548
  183SOPE   H2S20908   2.846   0.576   6.718 -2.0646 -0.6229 -2.9077
  183SOPE    C320909   2.422   0.522   6.735  0.0029 -0.1686  0.8550
  183SOPE    HX20910   2.459   0.423   6.700 -2.3710  0.0577 -2.5670
  183SOPE    HY20911   2.314   0.525   6.710 -0.3513 -0.1437  2.3829
  183SOPE   O3120912   2.433   0.537   6.871  0.0094 -0.3717  0.1618
  183SOPE   C3120913   2.526   0.490   6.942  0.1074  0.1568 -0.2091
  183SOPE   O3220914   2.609   0.412   6.902 -0.0370 -0.6015 -0.0015
  183SOPE   C3220915   2.503   0.543   7.089 -0.7054 -0.5149 -0.7189
  183SOPE   H2X20916   2.397   0.526   7.117 -1.0613 -0.0305 -1.7433
  183SOPE   H2Y20917   2.509   0.652   7.069  2.0726 -0.0752  2.1987
  183SOPE   C2320918   2.931   0.777   6.805 -0.6127 -0.6831 -0.1147
  183SOPE   H3R20919   2.938   0.886   6.781  0.0615 -0.9113 -0.9806
  183SOPE   H3S20920   3.035   0.740   6.810 -1.4942 -3.0464  1.2172
  183SOPE   C2420921   2.878   0.758   6.948 -0.2056 -0.3225 -0.1246
  183SOPE   H4R20922   2.771   0.791   6.946 -0.4787 -1.0450  1.5157
  183SOPE   H4S20923   2.890   0.650   6.970  2.5391  0.1373  0.8270
  183SOPE   C2520924   2.956   0.831   7.057 -0.4165 -0.1156 -0.1815
  183SOPE   H5R20925   3.064   0.804   7.064 -0.0089  1.6919  0.7742
  183SOPE   H5S20926   2.961   0.938   7.027 -0.8703 -0.2786 -0.8503
  183SOPE   C2620927   2.902   0.791   7.198 -0.4774  0.4240 -0.2324
  183SOPE   H6R20928   2.808   0.847   7.215 -0.2172  1.9682 -3.4900
  183SOPE   H6S20929   2.881   0.682   7.205 -1.6868  0.6195 -0.6595
  183SOPE   C2720930   3.006   0.825   7.310 -0.2208  0.4432 -0.1319
  183SOPE   H7R20931   3.095   0.765   7.280 -0.0796 -0.4744  2.0179
  183SOPE   H7S20932   3.038   0.931   7.299  0.9243  0.0115 -1.0405
  183SOPE   C2820933   2.968   0.792   7.455 -0.2408 -0.2697  0.5342
  183SOPE   H8R20934   2.897   0.707   7.451 -0.4493 -0.1141  0.8814
  183SOPE   H8S20935   3.060   0.767   7.512 -0.2782 -0.8842  0.3308
  183SOPE   C2920936   2.890   0.899   7.523  0.1650 -0.0347 -0.3767
  183SOPE   H9120937   2.873   0.995   7.473 -3.2092 -0.5150 -0.2972
  183SOPE  C21020938   2.866   0.897   7.656 -0.3907 -0.0483  0.6798
  183SOPE  H10120939   2.808   0.978   7.702  0.5915  0.7327  0.5610
  183SOPE  C21120940   2.900   0.781   7.746  0.4546 -0.2012  0.3348
  183SOPE  H11R20941   2.985   0.791   7.818  1.7291 -0.9233 -1.0451
  183SOPE  H11S20942   2.925   0.695   7.680 -2.7891 -0.6197 -0.4012
  183SOPE  C21220943   2.776   0.747   7.834 -0.0461  0.1385 -0.0217
  183SOPE  H12R20944   2.784   0.642   7.867 -0.3172  0.3062  0.5793
  183SOPE  H12S20945   2.678   0.766   7.785 -0.4475  0.2198  0.8093
  183SOPE  C21320946   2.766   0.836   7.959  0.5078  1.1495 -0.3799
  183SOPE  H13R20947   2.738   0.941   7.937  1.4853  1.9957  2.2962
  183SOPE  H13S20948   2.866   0.845   8.006  1.0696  1.6265 -1.6280
  183SOPE  C21420949   2.667   0.786   8.058  0.2370  0.5778 -0.3338
  183SOPE  H14R20950   2.699   0.683   8.086  0.4169  0.8138  0.3341
  183SOPE  H14S20951   2.566   0.775   8.013  0.4751 -1.3078 -0.4717
  183SOPE  C21520952   2.653   0.880   8.179 -0.0814 -0.0310  0.2063
  183SOPE  H15R20953   2.591   0.963   8.138  1.0566  0.9957  0.5507
  183SOPE  H15S20954   2.743   0.921   8.231  1.2294  0.2712 -2.2548
  183SOPE  C21620955   2.573   0.807   8.289  0.1481  0.5244 -0.6859
  183SOPE  H16R20956   2.619   0.709   8.313  0.9928  1.1604  0.3139
  183SOPE  H16S20957   2.469   0.794   8.253 -0.0228  0.8166 -0.2954
  183SOPE  C21720958   2.547   0.910   8.406  0.3850  0.5945 -0.4073
  183SOPE  H17R20959   2.496   1.000   8.366  0.6360  0.9881  0.1374
  183SOPE  H17S20960   2.651   0.944   8.428  1.4090 -1.0213 -2.5905
  183SOPE  C21820961   2.465   0.860   8.528 -0.2152  0.4973  0.3081
  183SOPE  H18R20962   2.359   0.838   8.503  0.0646  0.4220 -0.8703
  183SOPE  H18S20963   2.464   0.937   8.608  1.2363 -0.2164  1.0440
  183SOPE  H18T20964   2.502   0.761   8.562  0.8921  0.6556 -0.3910
  183SOPE   C3320965   2.593   0.495   7.211  0.4155  0.3827  0.4532
  183SOPE   H3X20966   2.699   0.522   7.190  0.4014  1.1792  1.3958
  183SOPE   H3Y20967   2.575   0.385   7.217  0.5816  0.3739  0.8038
  183SOPE   C3420968   2.545   0.544   7.350  0.1119 -0.4758  0.0121
  183SOPE   H4X20969   2.440   0.511   7.366 -0.0794  0.1732  0.0902
  183SOPE   H4Y20970   2.559   0.654   7.348  0.7863 -0.5461  0.8281
  183SOPE   C3520971   2.635   0.496   7.458  0.1721  0.0195  0.5109
  183SOPE   H5X20972   2.740   0.525   7.433  0.0549 -0.3080 -0.3745
  183SOPE   H5Y20973   2.635   0.385   7.468  2.9749 -0.0108  0.6690
  183SOPE   C3620974   2.604   0.552   7.597 -0.1952  1.1918  0.0125
  183SOPE   H6X20975   2.595   0.662   7.589 -1.8968  0.9669 -1.4975
  183SOPE   H6Y20976   2.686   0.530   7.669 -0.2315  1.4213  0.1246
  183SOPE   C3720977   2.481   0.493   7.656  0.4580  0.2364  0.3090
  183SOPE   H7X20978   2.472   0.383   7.650 -1.3274  0.4213 -0.7632
  183SOPE   H7Y20979   2.392   0.533   7.604  0.0855  1.9823  2.2202
  183SOPE   C3820980   2.465   0.540   7.802 -0.2760 -0.7013 -0.1199
  183SOPE   H8X20981   2.419   0.641   7.800  1.8726  0.3924  2.2847
  183SOPE   H8Y20982   2.565   0.530   7.851 -0.2481 -1.7436 -0.3681
  183SOPE   C3920983   2.367   0.441   7.875 -0.1107 -0.5370 -0.4183
  183SOPE   H9X20984   2.394   0.333   7.873 -0.2104 -0.5556 -0.7663
  183SOPE   H9Y20985   2.267   0.454   7.827 -0.4764 -0.7464  0.2763
  183SOPE  C31020986   2.351   0.467   8.028 -0.4513  0.3036 -0.5538
  183SOPE  H10X20987   2.263   0.413   8.070  0.0342  0.3122  0.4912
  183SOPE  H10Y20988   2.332   0.577   8.026  0.2356  0.4164 -3.9373
  183SOPE  C31120989   2.471   0.433   8.121  0.2323  0.2437 -0.5155
  183SOPE  H11X20990   2.547   0.511   8.099  0.3343  0.0673 -0.7850
  183SOPE  H11Y20991   2.509   0.331   8.098 -0.1601  0.1894 -0.9362
  183SOPE  C31220992   2.451   0.458   8.269 -0.6213 -0.2641 -0.8900
  183SOPE  H12X20993   2.356   0.417   8.309  0.5741 -0.1220  2.2256
  183SOPE  H12Y20994   2.444   0.568   8.279 -4.7089 -0.4278 -0.9644
  183SOPE  C31320995   2.570   0.398   8.353 -0.1105  0.1469  0.2538
  183SOPE  H13X20996   2.668   0.445   8.330 -0.8550  0.9965 -1.2774
  183SOPE  H13Y20997   2.580   0.291   8.325  0.3923  0.3192 -0.2370
  183SOPE  C31420998   2.555   0.402   8.506  0.5824 -0.7606  0.0294
  183SOPE  H14X20999   2.451   0.365   8.520 -0.0955  0.4405 -1.7150
  183SOPE  H14Y21000   2.565   0.508   8.537  1.8722 -0.3721 -1.6476
  183SOPE  C31521001   2.659   0.331   8.582 -0.0368  0.1869 -0.4162
  183SOPE  H15X21002   2.758   0.370   8.551 -0.3799  0.6810 -0.8937
  183SOPE  H15Y21003   2.660   0.227   8.544  0.1704  0.4513 -1.1361
  183SOPE  C31621004   2.637   0.335   8.740  0.1072 -0.7207  0.3433
  183SOPE  H16X21005   2.544   0.283   8.772 -0.3793  0.8951  1.6404
  183SOPE  H16Y21006   2.630   0.436   8.786 -1.3663 -0.3611 -0.6232
  183SOPE  C31721007   2.741   0.246   8.811  0.5588  0.1639 -0.2095
  183SOPE  H17X21008   2.720   0.143   8.776  1.0547 -0.8310  2.3568
  183SOPE  H17Y21009   2.728   0.245   8.921 -0.3451 -0.7507 -0.3106
  183SOPE  C31821010   2.888   0.280   8.775  1.1897  0.8760 -1.1397
  183SOPE  H18X21011   2.961   0.223   8.836  0.4848  1.4844  0.2952
  183SOPE  H18Y21012   2.907   0.388   8.793 -2.0976  0.7873  3.8634
  183SOPE  H18Z21013   2.895   0.248   8.669  2.4500 -3.0476  0.0435
  184SOPE     N21014   1.730   1.145   5.943 -0.3925 -0.6983  0.4378
  184SOPE   HN121015   1.666   1.147   5.861  1.8951 -1.1731 -1.4060
  184SOPE   HN221016   1.668   1.129   6.026 -1.0312 -2.5527 -0.3860
  184SOPE   HN321017   1.787   1.231   5.951  2.3991 -2.3440 -1.0717
  184SOPE   C1221018   1.832   1.033   5.932  0.0690 -0.0450 -0.3609
  184SOPE  H12A21019   1.926   1.063   5.983 -0.6447 -0.7326  1.4073
  184SOPE  H12B21020   1.860   1.009   5.827  2.3957 -1.8096  0.5968
  184SOPE   C1121021   1.783   0.895   5.987 -0.3640 -0.2279  0.2701
  184SOPE  H11A21022   1.856   0.812   5.975 -3.0003 -2.7347  0.9725
  184SOPE  H11B21023   1.698   0.860   5.924  1.5476 -0.4583 -2.2837
  184SOPE     P21024   1.873   0.880   6.239 -0.5604  0.3797  0.1627
  184SOPE   O1321025   1.913   1.013   6.289 -0.3478 -0.5454 -0.0139
  184SOPE   O1421026   1.972   0.784   6.192 -0.1695 -0.2070 -0.3903
  184SOPE   O1221027   1.759   0.904   6.128  0.0884  0.1097  0.0154
  184SOPE   O1121028   1.802   0.816   6.354 -0.4335 -0.1624 -0.1186
  184SOPE    C121029   1.692   0.882   6.423 -0.1079  0.4193 -0.2683
  184SOPE    HA21030   1.614   0.808   6.449 -0.7972 -0.1994 -3.7947
  184SOPE    HB21031   1.644   0.962   6.362  0.1401  1.1678  0.5090
  184SOPE    C221032   1.729   0.944   6.557  0.2531  0.4022 -0.1683
  184SOPE    HS21033   1.808   1.018   6.533  1.8598 -0.8110  1.1953
  184SOPE   O2121034   1.798   0.844   6.632  0.1423 -0.6948  0.2723
  184SOPE   C2121035   1.932   0.837   6.635 -0.1303 -0.5066  0.0609
  184SOPE   O2221036   2.012   0.902   6.569 -0.1247  0.1984 -0.1939
  184SOPE   C2221037   1.970   0.721   6.726 -0.0484  0.2857 -0.8152
  184SOPE   H2R21038   2.044   0.654   6.677  1.5460  1.2942  0.1266
  184SOPE   H2S21039   1.881   0.655   6.733 -0.5292  0.9159 -0.9752
  184SOPE    C321040   1.605   0.995   6.629  0.0652 -0.7982  0.0944
  184SOPE    HX21041   1.542   0.906   6.654  0.2178 -0.7844  0.5380
  184SOPE    HY21042   1.540   1.057   6.564 -1.3791 -1.4953  0.8361
  184SOPE   O3121043   1.641   1.062   6.753  0.0987  0.3758  0.3183
  184SOPE   C3121044   1.664   1.191   6.737  0.8861 -0.2425  0.1336
  184SOPE   O3221045   1.685   1.241   6.627  0.5391 -0.0927 -0.5389
  184SOPE   C3221046   1.666   1.267   6.874  0.0582 -0.3170  0.4316
  184SOPE   H2X21047   1.722   1.197   6.940  0.8149 -1.2698 -1.1687
  184SOPE   H2Y21048   1.562   1.278   6.910 -0.0369  1.7311 -0.4260
  184SOPE   C2321049   2.024   0.764   6.863 -0.2740  0.6084 -0.0102
  184SOPE   H3R21050   1.993   0.686   6.935 -0.5164 -0.0104 -0.7872
  184SOPE   H3S21051   1.991   0.864   6.899  1.4573  1.0863  0.2815
  184SOPE   C2421052   2.175   0.777   6.856 -0.1543 -0.1886  0.2331
  184SOPE   H4R21053   2.228   0.679   6.852 -1.0315 -0.7019  0.8551
  184SOPE   H4S21054   2.201   0.823   6.758  0.1571 -1.0022 -0.0730
  184SOPE   C2521055   2.245   0.841   6.982  0.1363 -0.2202 -0.2341
  184SOPE   H5R21056   2.354   0.824   6.972  0.2614 -0.5132  1.4004
  184SOPE   H5S21057   2.224   0.950   6.992 -0.5219 -0.3645 -0.0049
  184SOPE   C2621058   2.200   0.782   7.113 -0.0837 -0.5003 -0.5718
  184SOPE   H6R21059   2.091   0.798   7.130 -0.0091  2.3741 -2.4129
  184SOPE   H6S21060   2.234   0.677   7.108  1.8899  0.1187 -0.4136
  184SOPE   C2721061   2.276   0.842   7.239  0.2214  0.6462 -0.0099
  184SOPE   H7R21062   2.381   0.822   7.208  0.4286  0.9977  0.4491
  184SOPE   H7S21063   2.263   0.953   7.244  2.3663  0.9444 -0.5279
  184SOPE   C2821064   2.239   0.768   7.373 -0.5326  0.6722 -0.3519
  184SOPE   H8R21065   2.128   0.764   7.385 -0.5100 -3.0996 -0.9839
  184SOPE   H8S21066   2.272   0.664   7.351 -0.0713  1.4859 -3.7956
  184SOPE   C2921067   2.323   0.814   7.488  0.4116  0.5033  0.1582
  184SOPE   H9121068   2.428   0.838   7.465  0.8742 -2.2813 -0.8771
  184SOPE  C21021069   2.289   0.841   7.613 -0.2186 -0.2470 -0.3715
  184SOPE  H10121070   2.371   0.876   7.677 -1.3285  1.8307 -0.0631
  184SOPE  C21121071   2.157   0.824   7.680  0.3237  0.8420  0.7067
  184SOPE  H11R21072   2.151   0.725   7.729  2.8006 -0.8666 -2.2330
  184SOPE  H11S21073   2.081   0.820   7.599  0.2711 -1.3922  0.8293
  184SOPE  C21221074   2.135   0.938   7.784 -0.7837  0.4740  0.1239
  184SOPE  H12R21075   2.029   0.960   7.808 -0.7097  2.1614 -1.0257
  184SOPE  H12S21076   2.170   1.036   7.747  2.6157 -2.0368 -3.6654
  184SOPE  C21321077   2.217   0.908   7.909  0.3680 -0.4041 -0.0056
  184SOPE  H13R21078   2.324   0.918   7.878  1.1149 -2.1979  1.8770
  184SOPE  H13S21079   2.194   0.805   7.943  2.6519 -0.2402  2.2101
  184SOPE  C21421080   2.180   1.002   8.023 -0.4430 -0.0137  0.1006
  184SOPE  H14R21081   2.069   1.002   8.025 -0.4301 -0.3064  1.3330
  184SOPE  H14S21082   2.219   1.104   7.999 -1.1977  0.1151 -0.5988
  184SOPE  C21521083   2.240   0.962   8.157 -0.3094 -0.3301 -0.4375
  184SOPE  H15R21084   2.350   0.957   8.148 -0.1690  0.9401  0.4505
  184SOPE  H15S21085   2.205   0.860   8.181 -1.5387  0.3581  0.7603
  184SOPE  C21621086   2.204   1.064   8.270 -1.0321 -0.3889  0.7779
  184SOPE  H16R21087   2.241   1.167   8.250  2.6283 -1.1697  3.0114
  184SOPE  H16S21088   2.260   1.024   8.358  1.9640 -1.5947 -1.5690
  184SOPE  C21721089   2.056   1.072   8.298  0.0617  0.1582 -0.0084
  184SOPE  H17R21090   2.007   0.975   8.277  0.8204  0.4783 -3.4872
  184SOPE  H17S21091   2.023   1.141   8.217 -0.2940 -2.6423 -2.3140
  184SOPE  C21821092   2.024   1.118   8.440 -0.3201 -0.3528  0.1108
  184SOPE  H18R21093   2.044   1.037   8.513  1.8197 -1.9104 -2.1505
  184SOPE  H18S21094   1.917   1.150   8.436  0.8155  3.5274 -1.2592
  184SOPE  H18T21095   2.083   1.209   8.466  0.4577 -0.2175 -2.0643
  184SOPE   C3321096   1.719   1.410   6.856  0.4885  0.5285 -0.0792
  184SOPE   H3X21097   1.665   1.461   6.773 -0.4623  0.0289  0.2281
  184SOPE   H3Y21098   1.828   1.419   6.837 -0.1498  3.5818 -2.6825
  184SOPE   C3421099   1.700   1.501   6.974  0.0968 -0.2490 -0.0536
  184SOPE   H4X21100   1.590   1.509   6.988  0.2278  1.4153  0.0435
  184SOPE   H4Y21101   1.736   1.600   6.940  0.9135 -0.5489 -0.0715
  184SOPE   C3521102   1.757   1.474   7.109 -0.4037 -0.3076  0.0657
  184SOPE   H5X21103   1.868   1.483   7.110 -0.4655  0.9901 -1.7475
  184SOPE   H5Y21104   1.732   1.370   7.140 -1.1082 -0.0635  0.3117
  184SOPE   C3621105   1.710   1.581   7.217 -0.2225  0.5759 -0.0591
  184SOPE   H6X21106   1.601   1.597   7.199 -0.6151 -2.3419 -0.5094
  184SOPE   H6Y21107   1.761   1.674   7.183 -1.0159  0.9020 -0.3889
  184SOPE   C3721108   1.732   1.548   7.369 -0.3734 -0.3421 -0.3208
  184SOPE   H7X21109   1.824   1.491   7.393 -0.2141  1.1032  2.6519
  184SOPE   H7Y21110   1.650   1.479   7.398  1.4207 -1.9403  1.0611
  184SOPE   C3821111   1.730   1.668   7.455 -0.0903  0.2790 -0.4603
  184SOPE   H8X21112   1.645   1.736   7.434  0.3394  0.5019 -1.4928
  184SOPE   H8Y21113   1.828   1.717   7.437  0.4071 -0.9903 -1.3266
  184SOPE   C3921114   1.713   1.625   7.599 -0.1892  0.0914 -0.1943
  184SOPE   H9X21115   1.800   1.561   7.628  0.4691  1.7094  1.4587
  184SOPE   H9Y21116   1.615   1.574   7.609 -0.3347  0.8873  2.6511
  184SOPE  C31021117   1.739   1.746   7.694 -0.5070 -0.8050  0.1181
  184SOPE  H10X21118   1.674   1.828   7.657 -0.7313 -1.8913 -1.9831
  184SOPE  H10Y21119   1.839   1.793   7.679 -1.7984  1.8965 -0.3931
  184SOPE  C31121120   1.705   1.714   7.837  0.1261  0.3040  0.6098
  184SOPE  H11X21121   1.740   1.796   7.903  2.9402 -1.4766  1.4060
  184SOPE  H11Y21122   1.754   1.618   7.864 -0.5720 -0.4737 -0.8177
  184SOPE  C31221123   1.555   1.716   7.866  0.1204 -0.0112  0.0049
  184SOPE  H12X21124   1.526   1.609   7.873 -0.1421  0.0824  0.3663
  184SOPE  H12Y21125   1.501   1.768   7.784 -0.0106 -2.1985 -1.3312
  184SOPE  C31321126   1.519   1.770   8.001 -0.4608 -0.4676 -0.2206
  184SOPE  H13X21127   1.565   1.871   8.006  0.9782 -1.2015  2.3213
  184SOPE  H13Y21128   1.569   1.717   8.085 -1.1435  0.3817  0.7467
  184SOPE  C31421129   1.370   1.770   8.031 -0.4555  0.3693  0.1449
  184SOPE  H14X21130   1.341   1.665   8.048  0.3789 -0.0652 -1.0321
  184SOPE  H14Y21131   1.313   1.811   7.945 -1.4825 -1.1289  0.0999
  184SOPE  C31521132   1.344   1.838   8.168 -0.9219 -0.6133  0.2867
  184SOPE  H15X21133   1.403   1.932   8.172  0.4474 -1.0806 -5.3012
  184SOPE  H15Y21134   1.367   1.774   8.257 -0.1313 -2.4180 -1.1812
  184SOPE  C31621135   1.201   1.883   8.198  0.5049  0.5940  0.6425
  184SOPE  H16X21136   1.182   1.961   8.121  0.0002 -0.9200 -0.8218
  184SOPE  H16Y21137   1.201   1.925   8.300  1.6283  2.5371 -0.1319
  184SOPE  C31721138   1.097   1.774   8.193  0.3731  0.1301  0.5703
  184SOPE  H17X21139   1.123   1.706   8.277 -2.9219 -0.1965  1.3974
  184SOPE  H17Y21140   1.102   1.714   8.100 -1.5506  0.3117  0.3429
  184SOPE  C31821141   0.956   1.818   8.230 -0.0542  0.5204 -0.2182
  184SOPE  H18X21142   0.957   1.869   8.329 -1.3641  0.3668 -0.1240
  184SOPE  H18Y21143   0.888   1.731   8.239  0.6728 -0.0173  0.1656
  184SOPE  H18Z21144   0.915   1.887   8.152 -1.3096 -0.0961 -0.1110
  185SAPI   C1221145   5.183   4.410  10.969  0.2054 -0.8501 -0.0020
  185SAPI    H221146   5.198   4.439  10.863  4.5048  0.9122  0.9705
  185SAPI    O221147   5.308   4.450  11.030  0.2394  0.7854 -0.2003
  185SAPI   HO221148   5.364   4.455  10.953  1.1345 -2.1566  0.1933
  185SAPI   C1321149   5.069   4.488  11.029  0.3343  0.5568 -0.0279
  185SAPI    H321150   4.976   4.460  10.975 -0.6956  2.4371  0.7098
  185SAPI    O321151   5.064   4.621  10.996  0.5068 -0.1509  0.4040
  185SAPI   HO321152   5.124   4.666  11.056 -0.3155 -0.3884  1.4215
  185SAPI   C1421153   5.052   4.455  11.176 -0.2412  0.1491  0.0331
  185SAPI    H421154   5.136   4.502  11.231  1.4811 -1.9274 -0.7930
  185SAPI    O421155   4.929   4.516  11.220  0.3831 -0.6236  0.2024
  185SAPI   HO421156   4.912   4.485  11.309 -0.8942 -1.4164 -0.3058
  185SAPI   C1521157   5.046   4.310  11.195 -0.4055  0.3119  0.5326
  185SAPI    H521158   4.953   4.272  11.147  0.3561  1.1224 -1.6054
  185SAPI    O521159   5.035   4.280  11.336  0.0686 -0.0561  0.2109
  185SAPI   HO521160   4.997   4.193  11.345  0.1673  0.0643  2.0892
  185SAPI   C1621161   5.166   4.229  11.132 -0.7948  0.1429 -0.4125
  185SAPI    H621162   5.256   4.245  11.195 -1.6803 -1.3802  1.3192
  185SAPI    O621163   5.141   4.089  11.147  0.4553 -0.3908  0.5694
  185SAPI   HO621164   5.130   4.048  11.061 -1.3678 -0.5673  0.8706
  185SAPI   C1121165   5.166   4.259  10.988  0.0985  0.0424 -0.2276
  185SAPI    H121166   5.074   4.221  10.939 -0.2928  0.1373  0.4267
  185SAPI     P21167   5.276   4.083  10.814  0.0337 -0.0476  0.0011
  185SAPI   O1321168   5.206   3.974  10.877 -0.7006  0.4343  0.5024
  185SAPI   O1421169   5.409   4.063  10.773 -0.2136  0.1226 -0.1663
  185SAPI   O1221170   5.280   4.204  10.928 -0.6643 -0.0392 -0.3605
  185SAPI   O1121171   5.193   4.142  10.700 -0.5590 -0.1703 -0.0939
  185SAPI    C121172   5.214   4.275  10.649  0.6009  0.6226  0.1598
  185SAPI    HA21173   5.128   4.338  10.680 -2.3425 -3.1227  0.0039
  185SAPI    HB21174   5.308   4.319  10.689  0.6102 -0.0728  0.9085
  185SAPI    C221175   5.211   4.269  10.495  0.6018  0.5676 -0.4840
  185SAPI    HS21176   5.301   4.224  10.448 -0.7121  0.1922 -2.7373
  185SAPI   O2121177   5.200   4.400  10.446  0.5211 -0.0545 -0.1639
  185SAPI   C2121178   5.307   4.476  10.455 -0.1028 -0.3047  0.1057
  185SAPI   O2221179   5.415   4.438  10.496 -0.0470 -0.0046 -0.3019
  185SAPI   C2221180   5.278   4.613  10.389 -1.1948  0.0180  0.1386
  185SAPI   H2R21181   5.199   4.609  10.311 -1.1006 -0.5178  0.0694
  185SAPI   H2S21182   5.230   4.673  10.469 -0.7598  0.3421  0.1544
  185SAPI    C321183   5.088   4.188  10.440 -0.1535  0.6851  0.0287
  185SAPI    HX21184   4.993   4.240  10.463  0.6947  2.6735 -0.8547
  185SAPI    HY21185   5.087   4.084  10.480  0.6953 -0.5247 -2.9478
  185SAPI   O3121186   5.097   4.157  10.299  0.5059  0.2946  0.0743
  185SAPI   C3121187   5.042   4.240  10.217 -0.1486  0.5392 -0.0682
  185SAPI   O3221188   4.990   4.350  10.248 -0.1976 -0.0421  0.2904
  185SAPI   C3221189   5.062   4.190  10.076  0.2123  0.2019 -0.1298
  185SAPI   H2X21190   5.104   4.087  10.074  1.6973  0.7505  1.9049
  185SAPI   H2Y21191   5.151   4.243  10.036  0.7883 -1.6173 -1.3393
  185SAPI   C2321192   5.398   4.698  10.348  0.1566  0.0583 -0.4856
  185SAPI   H3R21193   5.481   4.695  10.421 -1.0207 -0.8090  0.8453
  185SAPI   H3S21194   5.362   4.803  10.343  3.3593  1.1690 -1.5118
  185SAPI   C2421195   5.453   4.658  10.213  0.4541  0.0888 -0.4343
  185SAPI   H4R21196   5.514   4.746  10.182 -0.7263  0.3863 -1.9586
  185SAPI   H4S21197   5.365   4.659  10.146 -1.0234 -0.8407  1.4605
  185SAPI   C2521198   5.525   4.533  10.199  0.1649  0.1116 -0.3020
  185SAPI   H5R21199   5.528   4.478  10.294  2.0555  0.0421 -0.3998
  185SAPI   C2621200   5.583   4.482  10.095 -0.0636 -0.3572 -0.2607
  185SAPI   H6R21201   5.612   4.376  10.099 -0.7530 -0.5736 -0.9477
  185SAPI   C2721202   5.595   4.540   9.956 -0.0915  0.2567 -0.6892
  185SAPI   H7R21203   5.674   4.477   9.909 -0.3299 -0.1517 -0.5409
  185SAPI   H7S21204   5.625   4.647   9.962  4.1983 -1.0234  3.8021
  185SAPI   C2821205   5.467   4.538   9.878 -0.0788 -0.1664 -0.5080
  185SAPI   H8R21206   5.378   4.530   9.941 -0.1997  0.2402 -0.6277
  185SAPI   C2921207   5.456   4.533   9.744  0.6693  0.0730  0.1274
  185SAPI   H9R21208   5.355   4.537   9.699  0.1889 -0.5716  1.1387
  185SAPI  C21021209   5.576   4.546   9.648  0.3792 -0.2322  0.1326
  185SAPI  H10R21210   5.580   4.472   9.565  0.3631  1.8364 -1.7264
  185SAPI  H10S21211   5.673   4.538   9.702  0.5901  1.1527 -0.0350
  185SAPI  C21121212   5.589   4.688   9.592 -0.1064  0.6554  0.0306
  185SAPI  H11R21213   5.616   4.761   9.669 -0.2257  0.7400 -0.0080
  185SAPI  C21221214   5.527   4.740   9.477 -0.1004 -0.7027 -0.0843
  185SAPI  H12R21215   5.555   4.841   9.443 -1.4101 -0.6962 -1.1594
  185SAPI  C21321216   5.441   4.663   9.376 -0.5171  0.0817 -0.3883
  185SAPI  H13R21217   5.357   4.612   9.428 -0.2422 -0.7153 -0.7203
  185SAPI  H13S21218   5.507   4.583   9.336 -0.9802  0.4497 -1.9309
  185SAPI  C21421219   5.372   4.747   9.274 -0.2361  0.4009  0.0740
  185SAPI  H14R21220   5.299   4.817   9.317 -0.0802  0.6931 -0.1333
  185SAPI  C21521221   5.363   4.747   9.139 -0.5707  0.5117  0.2123
  185SAPI  H15R21222   5.312   4.830   9.088  0.1637  1.9943  1.8157
  185SAPI  C21621223   5.442   4.653   9.055  0.5034 -0.2739 -0.2677
  185SAPI  H16R21224   5.443   4.549   9.095 -1.3543  0.4670  1.8141
  185SAPI  H16S21225   5.548   4.686   9.060  0.1724  0.7437  0.1009
  185SAPI  C21721226   5.383   4.661   8.909 -0.2810  0.0237  0.0084
  185SAPI  H17R21227   5.363   4.766   8.879 -0.3783 -0.4097 -1.4707
  185SAPI  H17S21228   5.285   4.610   8.898 -1.7340  2.5936  0.5186
  185SAPI  C21821229   5.478   4.602   8.803  0.1080  0.6153 -0.1418
  185SAPI  H18R21230   5.517   4.501   8.829  1.0297  0.8875 -0.4341
  185SAPI  H18S21231   5.568   4.667   8.797 -0.1620  0.8618 -1.7693
  185SAPI  C21921232   5.414   4.607   8.663 -0.1394 -0.1343  0.3415
  185SAPI  H19R21233   5.309   4.574   8.677 -0.4733  0.5454 -0.5153
  185SAPI  H19S21234   5.457   4.525   8.601  0.5780 -1.0448  1.9941
  185SAPI  C22021235   5.413   4.744   8.592 -0.4541  0.1965 -1.4070
  185SAPI  H20R21236   5.362   4.745   8.493 -3.7049  0.9711  0.2252
  185SAPI  H20S21237   5.514   4.786   8.573  0.3324 -0.6122  0.8340
  185SAPI  H20T21238   5.352   4.810   8.656  1.0400 -0.0201  0.2781
  185SAPI   C3321239   4.928   4.217   9.989 -0.0523 -0.0470 -0.5998
  185SAPI   H3X21240   4.867   4.304  10.018 -1.9468 -0.5078 -3.0423
  185SAPI   H3Y21241   4.869   4.123   9.998  0.6274 -0.6602 -2.2635
  185SAPI   C3421242   4.955   4.205   9.833 -0.4743  0.0578  0.2196
  185SAPI   H4X21243   4.997   4.105   9.808  0.1394 -0.4565  3.1435
  185SAPI   H4Y21244   5.032   4.280   9.807  0.2703 -0.8647 -0.2749
  185SAPI   C3521245   4.834   4.225   9.739 -0.5833 -0.2880 -0.8099
  185SAPI   H5X21246   4.816   4.335   9.735 -0.0605 -0.1123  1.1941
  185SAPI   H5Y21247   4.745   4.173   9.781 -0.2883 -1.4313 -1.5680
  185SAPI   C3621248   4.873   4.171   9.598  0.0416  0.2896 -0.2767
  185SAPI   H6X21249   4.776   4.174   9.544  0.8891  0.4675 -1.8241
  185SAPI   H6Y21250   4.903   4.065   9.602  0.5762  0.4240 -0.6351
  185SAPI   C3721251   4.991   4.227   9.518 -0.0914 -0.0452 -0.4995
  185SAPI   H7X21252   5.080   4.220   9.584 -0.8716 -0.4988  0.5190
  185SAPI   H7Y21253   4.968   4.335   9.504 -0.8898 -0.1186  0.1960
  185SAPI   C3821254   5.026   4.154   9.383  0.5284 -0.0975 -1.0012
  185SAPI   H8X21255   4.928   4.122   9.343 -1.0302  3.2465 -0.0678
  185SAPI   H8Y21256   5.083   4.062   9.407  2.6204  1.4158  0.0678
  185SAPI   C3921257   5.102   4.229   9.277  0.4182  0.4418  0.0718
  185SAPI   H9X21258   5.194   4.263   9.330 -0.5982  3.4348  0.0453
  185SAPI   H9Y21259   5.046   4.311   9.227  0.8398  0.6841 -0.0135
  185SAPI  C31021260   5.150   4.139   9.162  0.0330 -0.6728 -0.1695
  185SAPI  H10X21261   5.065   4.096   9.106 -0.3914 -1.5159  1.1063
  185SAPI  H10Y21262   5.193   4.051   9.214 -1.1440 -0.3851  1.3259
  185SAPI  C31121263   5.240   4.202   9.051 -0.0901  0.3749 -0.2307
  185SAPI  H11X21264   5.274   4.120   8.985  0.7267 -2.1535  3.2048
  185SAPI  H11Y21265   5.332   4.229   9.108 -2.4163  2.5415  2.6539
  185SAPI  C31221266   5.188   4.319   8.971 -0.8433  0.1275 -0.3431
  185SAPI  H12X21267   5.271   4.382   8.933 -0.5101 -1.1133 -1.7108
  185SAPI  H12Y21268   5.135   4.389   9.040  1.3072  0.8149  0.6611
  185SAPI  C31321269   5.087   4.281   8.859 -0.0140 -0.2332  0.0101
  185SAPI  H13X21270   5.034   4.373   8.827  1.9566  0.7940 -0.3270
  185SAPI  H13Y21271   5.006   4.210   8.887  1.0705 -2.1574 -1.6183
  185SAPI  C31421272   5.163   4.230   8.736 -0.3672 -0.3837  0.0852
  185SAPI  H14X21273   5.225   4.141   8.761  0.1823 -0.0167  0.0442
  185SAPI  H14Y21274   5.226   4.316   8.702 -0.1884 -0.3348  0.5488
  185SAPI  C31521275   5.060   4.205   8.626  1.1365  0.8739  0.7477
  185SAPI  H15X21276   4.979   4.280   8.622  0.6395  0.2624 -0.8194
  185SAPI  H15Y21277   5.028   4.099   8.640 -0.9346  1.2238 -1.1406
  185SAPI  C31621278   5.114   4.204   8.482  0.6796  0.1687  0.4947
  185SAPI  H16X21279   5.184   4.290   8.472 -1.8697  2.2323  0.0035
  185SAPI  H16Y21280   5.024   4.215   8.419  1.4347 -1.5453 -0.9218
  185SAPI  C31721281   5.196   4.076   8.460  0.1633 -0.2701 -0.1361
  185SAPI  H17X21282   5.133   3.984   8.468  0.8426 -0.7536 -0.3172
  185SAPI  H17Y21283   5.269   4.064   8.543 -0.3792 -1.3461  0.1903
  185SAPI  C31821284   5.272   4.071   8.332  0.3885 -0.5562 -0.3457
  185SAPI  H18X21285   5.359   4.140   8.337 -0.1462  0.0940 -0.0190
  185SAPI  H18Y21286   5.210   4.092   8.242  1.0882 -2.7362 -1.3829
  185SAPI  H18Z21287   5.307   3.967   8.316  2.6701  0.6916 -4.1009
  186SAPI   C1221288   5.706   2.277  10.830  0.4687 -0.1822  0.1319
  186SAPI    H221289   5.773   2.310  10.749  2.6275  0.3872  2.1044
  186SAPI    O221290   5.583   2.229  10.774  0.2861  0.1030  0.9506
  186SAPI   HO221291   5.517   2.298  10.766  0.7523  0.6033  1.3970
  186SAPI   C1321292   5.782   2.163  10.906 -0.5642  0.2516 -0.2914
  186SAPI    H321293   5.873   2.202  10.958 -0.3471 -0.1004 -0.4135
  186SAPI    O321294   5.843   2.063  10.829  0.0978  0.2199  0.0080
  186SAPI   HO321295   5.768   2.015  10.793 -0.1526 -0.2227  1.1155
  186SAPI   C1421296   5.688   2.102  11.008 -0.6825  0.2177  0.1018
  186SAPI    H421297   5.594   2.069  10.959 -0.2619  0.8742 -1.1787
  186SAPI    O421298   5.738   1.984  11.075 -0.1659  0.1931  0.7579
  186SAPI   HO421299   5.833   1.990  11.077  0.0320 -1.8811 -0.6960
  186SAPI   C1521300   5.649   2.199  11.116 -0.1513 -0.2662 -0.1033
  186SAPI    H521301   5.737   2.233  11.176 -1.3050  0.6556  1.1115
  186SAPI    O521302   5.554   2.139  11.208  0.1815 -0.0136 -0.7663
  186SAPI   HO521303   5.542   2.203  11.278 -2.5300  0.9222 -2.0134
  186SAPI   C1621304   5.583   2.316  11.051  0.7779 -0.2115  0.2208
  186SAPI    H621305   5.483   2.284  11.016  0.5310  0.1129  0.6247
  186SAPI    O621306   5.549   2.415  11.148 -0.0616 -0.2362  0.0008
  186SAPI   HO621307   5.594   2.491  11.111 -1.2468  0.7937  0.6258
  186SAPI   C1121308   5.676   2.380  10.937 -0.5922 -0.3966 -0.4981
  186SAPI    H121309   5.770   2.418  10.981  1.3001 -2.2245 -2.8559
  186SAPI     P21310   5.688   2.593  10.779 -0.2246  0.0609 -0.3708
  186SAPI   O1321311   5.817   2.605  10.848 -0.3521 -0.6432  0.4230
  186SAPI   O1421312   5.608   2.711  10.772  0.2475 -0.4900 -0.2275
  186SAPI   O1221313   5.605   2.484  10.869 -0.2150 -0.3737 -0.4367
  186SAPI   O1121314   5.704   2.533  10.634 -0.1657  0.5169 -0.0988
  186SAPI    C121315   5.594   2.497  10.550  0.4503  0.2578 -0.7709
  186SAPI    HA21316   5.571   2.390  10.564 -1.3617  0.6788 -0.4156
  186SAPI    HB21317   5.510   2.564  10.577 -0.4835 -1.0711 -0.3331
  186SAPI    C221318   5.634   2.514  10.402 -0.4392  0.2325 -0.7398
  186SAPI    HS21319   5.724   2.454  10.375 -0.8582  0.2019 -2.0917
  186SAPI   O2121320   5.652   2.651  10.388 -0.8178 -0.6867  0.0417
  186SAPI   C2121321   5.777   2.683  10.380 -0.1137  0.1039  0.0676
  186SAPI   O2221322   5.874   2.609  10.380  0.0886  0.1660  1.0131
  186SAPI   C2221323   5.779   2.833  10.365 -0.1794 -0.0884  0.4050
  186SAPI   H2R21324   5.687   2.875  10.318  0.2074 -0.4923 -0.7292
  186SAPI   H2S21325   5.784   2.877  10.467  2.8760 -2.7949  1.5214
  186SAPI    C321326   5.510   2.472  10.308 -0.4665 -0.3177  0.1783
  186SAPI    HX21327   5.428   2.535  10.351  0.1637  1.5292 -1.2599
  186SAPI    HY21328   5.491   2.365  10.332 -1.5000 -0.0457  0.6113
  186SAPI   O3121329   5.530   2.494  10.165  0.2013 -0.4719 -0.3925
  186SAPI   C3121330   5.622   2.429  10.104  0.4167 -0.0535  0.6221
  186SAPI   O3221331   5.696   2.347  10.151  0.2987 -0.2497  0.0599
  186SAPI   C3221332   5.621   2.483   9.961 -0.2090 -0.1495  0.0361
  186SAPI   H2X21333   5.630   2.594   9.960  0.6917 -0.1795  2.4875
  186SAPI   H2Y21334   5.526   2.439   9.924 -1.2834  2.2986 -0.2147
  186SAPI   C2321335   5.911   2.876  10.297  0.0464  0.0692  0.2693
  186SAPI   H3R21336   5.995   2.831  10.354 -0.2053 -1.2776 -0.4126
  186SAPI   H3S21337   5.911   2.987  10.304 -1.1759  0.1378 -0.6009
  186SAPI   C2421338   5.922   2.839  10.153  0.0226 -0.5547  0.3372
  186SAPI   H4R21339   5.940   2.731  10.130 -2.9603 -0.4764 -2.7777
  186SAPI   H4S21340   6.011   2.888  10.110  1.9658 -2.7523  1.7192
  186SAPI   C2521341   5.805   2.898  10.072  0.9060  0.4772  0.9557
  186SAPI   H5R21342   5.739   2.961  10.133  0.4434  0.4360  0.4941
  186SAPI   C2621343   5.782   2.884   9.942  0.0460  0.4804 -0.0404
  186SAPI   H6R21344   5.697   2.936   9.895 -1.1358 -1.2177  0.1788
  186SAPI   C2721345   5.869   2.810   9.842  0.3316 -0.2801  0.5981
  186SAPI   H7R21346   5.814   2.746   9.771  1.4132 -0.5844  0.0138
  186SAPI   H7S21347   5.930   2.736   9.898  0.8082 -2.5625 -2.8313
  186SAPI   C2821348   5.947   2.910   9.765  0.7404 -0.3178  0.3522
  186SAPI   H8R21349   6.020   2.966   9.824 -1.6596  2.1558  1.1012
  186SAPI   C2921350   5.945   2.938   9.635  0.9197 -0.5419 -0.5277
  186SAPI   H9R21351   6.018   3.008   9.592 -0.5613 -0.0931 -2.4080
  186SAPI  C21021352   5.865   2.876   9.523  0.2395 -0.0524 -0.6130
  186SAPI  H10R21353   5.796   2.956   9.488 -0.1953 -0.2809 -0.2859
  186SAPI  H10S21354   5.796   2.800   9.567  1.9250 -1.5821 -0.5450
  186SAPI  C21121355   5.955   2.826   9.410 -0.2840  0.8003  0.4554
  186SAPI  H11R21356   5.992   2.723   9.420  0.4210  0.8288 -1.5972
  186SAPI  C21221357   6.003   2.902   9.302 -0.2877 -0.8832 -0.4460
  186SAPI  H12R21358   6.066   2.850   9.227  1.0671  1.2520 -0.8434
  186SAPI  C21321359   5.977   3.044   9.266 -0.0255  0.3562  1.5047
  186SAPI  H13R21360   5.936   3.099   9.354  2.2486  0.8536  2.2853
  186SAPI  H13S21361   5.890   3.045   9.198  0.4288  0.0977  0.9177
  186SAPI  C21421362   6.090   3.123   9.211 -0.2856 -0.0595  0.1317
  186SAPI  H14R21363   6.185   3.118   9.267 -0.6027  0.2738  0.7027
  186SAPI  C21521364   6.088   3.200   9.099  0.2816  0.3593  0.3144
  186SAPI  H15R21365   6.178   3.259   9.074  0.5268  0.5480  1.6310
  186SAPI  C21621366   5.984   3.211   8.994 -0.4328 -0.6905 -0.7516
  186SAPI  H16R21367   5.941   3.313   9.005 -2.2381 -1.6223  1.2803
  186SAPI  H16S21368   5.887   3.161   9.017 -1.1214  1.7800  2.0193
  186SAPI  C21721369   6.027   3.173   8.848 -0.2891 -0.0115 -0.4377
  186SAPI  H17R21370   6.058   3.067   8.855  0.6239  0.4228  2.9464
  186SAPI  H17S21371   6.112   3.232   8.807  1.3660 -0.9867  1.5004
  186SAPI  C21821372   5.913   3.181   8.749  0.7243  0.5881  0.2101
  186SAPI  H18R21373   5.870   3.283   8.741  2.0985  1.3611  2.2083
  186SAPI  H18S21374   5.823   3.126   8.782 -0.0514  0.8475 -1.4469
  186SAPI  C21921375   5.955   3.142   8.603 -0.0831  0.0194 -0.6667
  186SAPI  H19R21376   5.983   3.034   8.596 -2.5027 -0.7408  0.5061
  186SAPI  H19S21377   6.036   3.206   8.564  0.9957  0.5680  2.3286
  186SAPI  C22021378   5.835   3.159   8.508 -0.0495  0.5305 -0.0001
  186SAPI  H20R21379   5.812   3.263   8.478  3.0585  1.1489 -0.4107
  186SAPI  H20S21380   5.749   3.119   8.565 -0.3765 -1.3540 -1.7596
  186SAPI  H20T21381   5.843   3.092   8.420  0.6653  2.1349 -1.1927
  186SAPI   C3321382   5.735   2.436   9.868  0.7310  0.2677  0.9378
  186SAPI   H3X21383   5.753   2.329   9.890 -2.1104 -1.1024 -2.8754
  186SAPI   H3Y21384   5.822   2.498   9.901  0.9611 -0.6247  2.0280
  186SAPI   C3421385   5.715   2.460   9.716  1.0980 -0.1963 -1.0302
  186SAPI   H4X21386   5.683   2.566   9.705 -0.0747 -0.1395  2.3222
  186SAPI   H4Y21387   5.623   2.407   9.682 -0.8396  2.1865  0.3027
  186SAPI   C3521388   5.821   2.408   9.622 -0.1037  0.0005 -0.5016
  186SAPI   H5X21389   5.840   2.299   9.628 -0.9603 -0.3526 -3.3381
  186SAPI   H5Y21390   5.915   2.463   9.645 -0.4889  0.1256  0.7929
  186SAPI   C3621391   5.778   2.434   9.480  0.7582 -0.5467 -0.8254
  186SAPI   H6X21392   5.739   2.537   9.469  1.6791 -0.1648 -0.5411
  186SAPI   H6Y21393   5.698   2.360   9.457  0.9174 -1.2707  0.8540
  186SAPI   C3721394   5.895   2.420   9.377  0.1265  0.4456 -0.1227
  186SAPI   H7X21395   5.950   2.327   9.404  0.7349  1.3417  1.8625
  186SAPI   H7Y21396   5.978   2.489   9.403  1.1954 -0.4770 -1.0811
  186SAPI   C3821397   5.856   2.449   9.236  0.4350  0.3566 -0.0113
  186SAPI   H8X21398   5.794   2.541   9.231 -1.5821 -0.7959  2.3534
  186SAPI   H8Y21399   5.788   2.368   9.203 -0.8900  1.3805  0.1209
  186SAPI   C3921400   5.963   2.468   9.135 -0.2386 -0.2302 -0.1856
  186SAPI   H9X21401   6.024   2.376   9.122 -1.1499 -0.6484 -1.6395
  186SAPI   H9Y21402   6.034   2.546   9.170 -0.5271  0.4125 -0.9922
  186SAPI  C31021403   5.900   2.510   8.999 -0.0378 -0.1825  0.3511
  186SAPI  H10X21404   5.790   2.506   9.012  0.1904 -1.0642  2.0663
  186SAPI  H10Y21405   5.933   2.442   8.918  1.0126  1.0743 -0.3030
  186SAPI  C31121406   5.940   2.657   8.952  0.2513  0.6415  0.9849
  186SAPI  H11X21407   6.047   2.650   8.922 -0.0054 -4.8312  0.8524
  186SAPI  H11Y21408   5.925   2.731   9.034 -0.4931 -0.5860  1.9764
  186SAPI  C31221409   5.861   2.705   8.826  0.4945 -0.7388  0.1124
  186SAPI  H12X21410   5.872   2.621   8.754 -1.8424  0.1422 -1.3071
  186SAPI  H12Y21411   5.915   2.797   8.792  0.7017 -0.5416  0.9777
  186SAPI  C31321412   5.715   2.741   8.845  0.6656 -0.0056  0.4852
  186SAPI  H13X21413   5.692   2.784   8.945  2.3392  1.3431  0.3066
  186SAPI  H13Y21414   5.658   2.645   8.841  1.3208 -0.3305 -1.6269
  186SAPI  C31421415   5.659   2.833   8.741 -0.0897  0.1504  0.4444
  186SAPI  H14X21416   5.692   2.799   8.640  1.7941  1.2330  0.6792
  186SAPI  H14Y21417   5.721   2.925   8.744  2.9144 -1.7704 -0.2898
  186SAPI  C31521418   5.508   2.847   8.755 -0.7696  0.0961  0.2209
  186SAPI  H15X21419   5.474   2.889   8.852 -0.5711  0.2132  0.2391
  186SAPI  H15Y21420   5.458   2.748   8.756 -2.0492  0.7389 -0.4140
  186SAPI  C31621421   5.443   2.943   8.662 -0.0069 -0.5229  0.7285
  186SAPI  H16X21422   5.498   3.039   8.668 -0.3826 -0.2228 -0.3852
  186SAPI  H16Y21423   5.340   2.966   8.699 -0.7626 -1.9383 -0.4379
  186SAPI  C31721424   5.449   2.912   8.513  0.3200 -0.7409  0.0214
  186SAPI  H17X21425   5.553   2.915   8.476 -0.0512 -1.3379 -1.1016
  186SAPI  H17Y21426   5.399   2.995   8.459  1.1906 -1.6758 -2.2955
  186SAPI  C31821427   5.385   2.784   8.468  0.4145  0.2440 -0.1427
  186SAPI  H18X21428   5.393   2.776   8.358 -2.5870  0.2009 -0.4145
  186SAPI  H18Y21429   5.282   2.775   8.509  0.0297  0.2443 -1.1103
  186SAPI  H18Z21430   5.435   2.695   8.512  1.2905  1.4960  1.4735
  187SAPI   C1221431   2.779   3.908   6.404  0.1645 -0.0254 -0.5022
  187SAPI    H221432   2.768   3.815   6.345  1.2662  0.0121 -0.7711
  187SAPI    O221433   2.790   3.853   6.534  0.5430  0.0141 -0.3489
  187SAPI   HO221434   2.714   3.795   6.528  0.9737 -0.6153  0.2453
  187SAPI   C1321435   2.906   3.972   6.350  0.1578  0.5914  0.6803
  187SAPI    H321436   2.880   3.987   6.243 -1.6439  0.0665  1.0367
  187SAPI    O321437   3.019   3.884   6.363 -0.6120 -0.5498  0.3477
  187SAPI   HO321438   3.051   3.868   6.452  0.5250  0.5993  0.1419
  187SAPI   C1421439   2.924   4.111   6.412  0.9953  0.5600 -0.1736
  187SAPI    H421440   2.948   4.098   6.520  0.6057  0.1604 -0.1328
  187SAPI    O421441   3.037   4.182   6.359  0.4974  0.0523 -0.0171
  187SAPI   HO421442   3.023   4.277   6.370  0.9184  0.5547 -3.2579
  187SAPI   C1521443   2.795   4.190   6.392  0.0124  0.0452 -0.2421
  187SAPI    H521444   2.777   4.185   6.283  0.4807 -0.5218 -0.2994
  187SAPI    O521445   2.808   4.332   6.433 -0.0926  0.0718  0.5779
  187SAPI   HO521446   2.721   4.359   6.461  0.9323  1.6927  2.3440
  187SAPI   C1621447   2.684   4.129   6.470 -0.0639 -0.1096  0.4167
  187SAPI    H621448   2.718   4.113   6.574  1.2047  0.0361  0.0324
  187SAPI    O621449   2.567   4.214   6.471 -0.4674 -0.3014  0.2130
  187SAPI   HO621450   2.496   4.153   6.490 -1.2040  0.8345  1.1382
  187SAPI   C1121451   2.653   3.997   6.403  0.3922 -0.0553  0.5628
  187SAPI    H121452   2.642   4.025   6.296 -0.9722 -0.0766  0.6892
  187SAPI     P21453   2.482   3.803   6.381 -0.3221 -0.2747 -0.0684
  187SAPI   O1321454   2.545   3.789   6.245 -0.0715 -0.3444  0.0959
  187SAPI   O1421455   2.333   3.788   6.388 -1.0793 -0.4327 -0.6366
  187SAPI   O1221456   2.524   3.948   6.443  0.1944  0.6726 -0.3105
  187SAPI   O1121457   2.551   3.705   6.487  0.4695 -0.4286 -0.4085
  187SAPI    C121458   2.466   3.610   6.556  0.7467 -0.4675 -0.2016
  187SAPI    HA21459   2.392   3.565   6.486 -0.0899 -0.7835  0.8841
  187SAPI    HB21460   2.530   3.527   6.593  2.4259  1.4659  1.3295
  187SAPI    C221461   2.395   3.676   6.684  0.9486  0.1566  0.6401
  187SAPI    HS21462   2.311   3.740   6.647 -0.8347 -1.0562  2.4805
  187SAPI   O2121463   2.488   3.754   6.756  0.0304  0.6010  0.5308
  187SAPI   C2121464   2.467   3.887   6.762 -0.2797 -0.3075 -0.0601
  187SAPI   O2221465   2.376   3.952   6.713 -0.8088 -0.0985 -0.2235
  187SAPI   C2221466   2.566   3.954   6.855  0.4682 -0.6365  0.2976
  187SAPI   H2R21467   2.609   4.039   6.797 -3.4652  0.8597 -0.5799
  187SAPI   H2S21468   2.505   4.008   6.930  0.6575  0.3078 -0.2203
  187SAPI    C321469   2.331   3.566   6.779 -0.1340 -0.1634  0.2485
  187SAPI    HX21470   2.407   3.493   6.811  1.8250  0.7040 -2.2805
  187SAPI    HY21471   2.255   3.508   6.722 -0.3922  0.8504 -0.4595
  187SAPI   O3121472   2.279   3.616   6.904  0.0096  0.4843 -0.3509
  187SAPI   C3121473   2.152   3.641   6.907 -0.9720 -0.0198 -0.2421
  187SAPI   O3221474   2.075   3.630   6.810 -0.4164 -0.0379 -0.5696
  187SAPI   C3221475   2.117   3.682   7.047 -0.7521 -0.4079 -0.8572
  187SAPI   H2X21476   2.182   3.767   7.074 -1.6015  0.1270 -0.4681
  187SAPI   H2Y21477   2.148   3.591   7.103  1.7474 -0.4278 -2.2033
  187SAPI   C2321478   2.673   3.863   6.929  0.7806 -0.5327  0.1798
  187SAPI   H3R21479   2.758   3.930   6.955  0.6833  0.0488 -0.9656
  187SAPI   H3S21480   2.716   3.787   6.860  0.9044  0.7100 -1.1349
  187SAPI   C2421481   2.608   3.782   7.041 -0.2650  0.0860  0.2850
  187SAPI   H4R21482   2.679   3.708   7.083  3.1201  2.1352 -1.6220
  187SAPI   H4S21483   2.526   3.719   7.000  0.2214  1.8902 -3.7046
  187SAPI   C2521484   2.570   3.871   7.156  0.5671  0.3330  0.1111
  187SAPI   H5R21485   2.570   3.980   7.141  0.0195  0.4643  1.0356
  187SAPI   C2621486   2.534   3.835   7.279  0.5436  0.6225  0.0955
  187SAPI   H6R21487   2.511   3.913   7.353 -1.9704 -0.6572  0.7233
  187SAPI   C2721488   2.509   3.690   7.321  0.3814 -0.4004  0.3334
  187SAPI   H7R21489   2.587   3.629   7.271  0.1426 -0.7279  0.3570
  187SAPI   H7S21490   2.412   3.653   7.282  1.1625 -1.5042 -0.6153
  187SAPI   C2821491   2.527   3.666   7.471 -0.3805  0.3410 -0.3488
  187SAPI   H8R21492   2.628   3.629   7.496 -0.6931 -0.1413  0.2360
  187SAPI   C2921493   2.439   3.694   7.579 -0.2140 -0.5065  0.3997
  187SAPI   H9R21494   2.470   3.674   7.683 -1.8358 -3.1668  0.4272
  187SAPI  C21021495   2.311   3.759   7.551  0.4169 -0.0340  0.2865
  187SAPI  H10R21496   2.310   3.822   7.460 -0.8654 -0.6249 -0.1201
  187SAPI  H10S21497   2.301   3.834   7.632  1.3312  0.1487  0.2378
  187SAPI  C21121498   2.210   3.650   7.541 -0.1976 -0.2510  0.0911
  187SAPI  H11R21499   2.187   3.611   7.441 -0.8871  0.1174  0.1024
  187SAPI  C21221500   2.146   3.597   7.649  0.2882 -0.3738 -0.0136
  187SAPI  H12R21501   2.055   3.536   7.639  0.2666 -0.3434 -0.0017
  187SAPI  C21321502   2.166   3.634   7.795 -0.5615  0.2338  0.4902
  187SAPI  H13R21503   2.089   3.707   7.828 -0.3488  0.1335  1.2283
  187SAPI  H13S21504   2.263   3.688   7.806 -0.3001  0.0264 -0.6990
  187SAPI  C21421505   2.168   3.522   7.896  0.5437 -0.6137 -0.3681
  187SAPI  H14R21506   2.135   3.425   7.855  1.9515 -1.2984  0.1072
  187SAPI  C21521507   2.226   3.517   8.024 -0.2194  0.6109  0.8920
  187SAPI  H15R21508   2.214   3.427   8.086  2.9950  0.0468  0.8150
  187SAPI  C21621509   2.302   3.627   8.089 -0.7721 -0.3613 -0.0733
  187SAPI  H16R21510   2.258   3.657   8.187  0.9251  1.0962  0.2756
  187SAPI  H16S21511   2.306   3.717   8.024  2.8572 -1.2382 -1.1627
  187SAPI  C21721512   2.449   3.585   8.109  0.3824  0.3190  0.1487
  187SAPI  H17R21513   2.484   3.533   8.018  0.5773 -1.2782  1.1243
  187SAPI  H17S21514   2.462   3.502   8.181 -0.0330 -1.0233 -1.3164
  187SAPI  C21821515   2.549   3.702   8.121  0.1084  0.3538  0.3111
  187SAPI  H18R21516   2.524   3.782   8.194  0.1718 -1.1080  1.9809
  187SAPI  H18S21517   2.554   3.743   8.018  1.5521  1.4024  0.7919
  187SAPI  C21921518   2.681   3.643   8.179  0.2257 -0.8249 -0.4169
  187SAPI  H19R21519   2.763   3.695   8.125  1.2953 -0.5087  1.4688
  187SAPI  H19S21520   2.688   3.534   8.157  1.6887 -0.5641 -1.3075
  187SAPI  C22021521   2.705   3.678   8.326 -0.3811 -0.1027  0.1886
  187SAPI  H20R21522   2.721   3.788   8.330 -0.1647 -0.1406  0.3937
  187SAPI  H20S21523   2.792   3.629   8.375 -1.5029  0.0416  2.4098
  187SAPI  H20T21524   2.614   3.656   8.386 -1.1995  0.3143 -0.8873
  187SAPI   C3321525   1.973   3.720   7.065 -0.1428 -0.2727  0.8794
  187SAPI   H3X21526   1.909   3.632   7.048 -1.3146  0.5913  0.7601
  187SAPI   H3Y21527   1.940   3.789   6.984 -1.2639 -1.9295 -0.0842
  187SAPI   C3421528   1.940   3.784   7.201  0.0622  0.7201 -0.3313
  187SAPI   H4X21529   2.003   3.874   7.212  1.7489 -0.6450  1.4470
  187SAPI   H4Y21530   1.972   3.709   7.277 -1.6678  0.7144  0.4188
  187SAPI   C3521531   1.797   3.816   7.222  0.5657 -0.8941 -0.3153
  187SAPI   H5X21532   1.747   3.720   7.195 -1.6988  0.7042 -2.0000
  187SAPI   H5Y21533   1.768   3.885   7.141 -3.1605 -2.9669 -0.8813
  187SAPI   C3621534   1.749   3.860   7.362  0.3300  0.0859  0.2069
  187SAPI   H6X21535   1.644   3.891   7.343  0.0822 -1.4343 -0.9460
  187SAPI   H6Y21536   1.814   3.941   7.401  0.9793 -0.0410 -0.5939
  187SAPI   C3721537   1.760   3.743   7.458  0.4419 -0.2651 -0.3306
  187SAPI   H7X21538   1.856   3.688   7.448  0.9297  0.5144  0.0230
  187SAPI   H7Y21539   1.674   3.676   7.439 -0.0638  0.4204 -0.5038
  187SAPI   C3821540   1.738   3.797   7.605  0.0817  0.4540  0.3113
  187SAPI   H8X21541   1.767   3.712   7.670 -0.1419  0.1448  0.0106
  187SAPI   H8Y21542   1.629   3.808   7.622 -0.8665 -6.4829  0.4284
  187SAPI   C3921543   1.817   3.921   7.641  0.6299  0.0164  0.2682
  187SAPI   H9X21544   1.788   4.011   7.582 -1.6130 -0.1019  1.1208
  187SAPI   H9Y21545   1.921   3.903   7.606  0.4541  1.5554 -1.1264
  187SAPI  C31021546   1.805   3.948   7.794 -0.4648 -0.2585 -0.7528
  187SAPI  H10X21547   1.839   3.861   7.855  1.7449  0.6746 -0.5963
  187SAPI  H10Y21548   1.696   3.946   7.814 -0.4325 -0.5649 -0.6038
  187SAPI  C31121549   1.882   4.072   7.848 -0.0812  0.2336  0.6076
  187SAPI  H11X21550   1.849   4.148   7.775  0.0266  1.3731  1.7342
  187SAPI  H11Y21551   1.989   4.042   7.839 -1.1599 -2.7029 -4.8767
  187SAPI  C31221552   1.848   4.104   7.995  0.0712 -0.2712  0.1926
  187SAPI  H12X21553   1.738   4.089   7.999  0.0564 -1.2214 -2.6292
  187SAPI  H12Y21554   1.886   4.206   8.019 -0.2715 -0.0788 -0.0658
  187SAPI  C31321555   1.933   4.019   8.086  0.0585 -0.4585 -0.2926
  187SAPI  H13X21556   2.026   4.078   8.101 -0.3445  0.9105 -2.8532
  187SAPI  H13Y21557   1.961   3.917   8.052 -0.2858 -0.8827  0.6907
  187SAPI  C31421558   1.877   3.998   8.227  0.1818 -0.4900 -1.1617
  187SAPI  H14X21559   1.820   4.092   8.244  1.2815 -0.3737  2.3702
  187SAPI  H14Y21560   1.950   3.993   8.311  0.1184  2.0924 -0.9026
  187SAPI  C31521561   1.782   3.877   8.243  0.5347 -0.1874 -0.2517
  187SAPI  H15X21562   1.844   3.785   8.238 -2.4659 -2.1932 -2.2326
  187SAPI  H15Y21563   1.711   3.866   8.159 -1.7474  0.6059  1.5419
  187SAPI  C31621564   1.702   3.880   8.375 -0.9237  0.1366  0.5606
  187SAPI  H16X21565   1.648   3.977   8.373 -0.3074  0.4878  0.6587
  187SAPI  H16Y21566   1.779   3.856   8.452 -1.9484 -1.3121  1.1651
  187SAPI  C31721567   1.594   3.765   8.378 -0.5876  0.1629 -0.7337
  187SAPI  H17X21568   1.548   3.759   8.277  0.7747 -1.1732 -1.3060
  187SAPI  H17Y21569   1.514   3.810   8.440 -0.7793 -0.8886 -0.1915
  187SAPI  C31821570   1.630   3.639   8.445 -0.4066 -0.1161  0.3155
  187SAPI  H18X21571   1.541   3.573   8.454 -0.1559 -0.5562 -0.3132
  187SAPI  H18Y21572   1.666   3.652   8.549  1.7821  0.0175 -0.4282
  187SAPI  H18Z21573   1.709   3.583   8.389 -0.1361 -0.6355  1.2075
  188SAPI   C1221574   3.870   0.510   6.428 -0.5215 -0.2761  0.8996
  188SAPI    H221575   3.888   0.487   6.536  0.3382 -0.9542  0.6154
  188SAPI    O221576   3.744   0.577   6.425 -0.3137  0.3444 -0.0030
  188SAPI   HO221577   3.698   0.539   6.501  1.5700  0.5296  1.2611
  188SAPI   C1321578   3.988   0.595   6.373  0.9997  0.0467  0.3220
  188SAPI    H321579   4.074   0.526   6.384 -0.9628 -2.4414  0.5180
  188SAPI    O321580   4.005   0.723   6.451  0.3628 -0.2162  0.1538
  188SAPI   HO321581   3.930   0.782   6.442 -0.1859 -1.0647 -1.0704
  188SAPI   C1421582   3.957   0.615   6.225  0.1155 -0.7555  0.4141
  188SAPI    H421583   3.867   0.679   6.216  0.2834 -0.5978 -0.1098
  188SAPI    O421584   4.065   0.694   6.167 -0.2674 -0.2518  0.3427
  188SAPI   HO421585   4.029   0.779   6.139 -0.0385 -0.7725 -1.5651
  188SAPI   C1521586   3.933   0.480   6.155  0.0541 -0.6686  0.2090
  188SAPI    H521587   4.025   0.418   6.156 -1.3829 -2.8496  2.7122
  188SAPI    O521588   3.907   0.499   6.017 -0.5429 -0.0523  0.0238
  188SAPI   HO521589   3.973   0.464   5.958  0.7493  2.2353  0.0610
  188SAPI   C1621590   3.821   0.398   6.212  0.1851  0.2752  0.1824
  188SAPI    H621591   3.732   0.461   6.194 -1.3128 -1.8847 -0.1939
  188SAPI    O621592   3.810   0.278   6.140  0.4795 -0.0183 -0.2521
  188SAPI   HO621593   3.845   0.203   6.190  0.7374 -1.0766 -1.9920
  188SAPI   C1121594   3.856   0.378   6.354  0.9802  0.0358 -0.1384
  188SAPI    H121595   3.958   0.339   6.369  1.5420  1.7307  0.6315
  188SAPI     P21596   3.770   0.140   6.455 -0.2456 -0.5419  0.1173
  188SAPI   O1321597   3.832   0.067   6.343 -0.9457 -0.2171 -0.5645
  188SAPI   O1421598   3.641   0.091   6.499  0.7361  0.1273 -0.0032
  188SAPI   O1221599   3.760   0.299   6.424  0.2437 -0.2303 -1.1492
  188SAPI   O1121600   3.874   0.133   6.578  0.3187 -0.4637  0.2325
  188SAPI    C121601   3.835   0.192   6.700  0.3604  0.9863  0.5970
  188SAPI    HA21602   3.901   0.278   6.725 -0.5802  1.5014  1.3679
  188SAPI    HB21603   3.730   0.226   6.696  0.3807  0.9040 -0.5441
  188SAPI    C221604   3.856   0.086   6.819 -0.2082 -0.2120 -0.3626
  188SAPI    HS21605   3.756   0.073   6.866  1.2863  0.6211  3.1440
  188SAPI   O2121606   3.954   0.129   6.915  0.0233 -0.0713  0.4271
  188SAPI   C2121607   3.910   0.235   6.988  0.7204 -0.1762  0.5188
  188SAPI   O2221608   3.796   0.275   6.976  0.0395 -0.2771 -0.2184
  188SAPI   C2221609   4.015   0.293   7.077 -0.1865  0.2355 -0.6370
  188SAPI   H2R21610   4.050   0.203   7.132 -0.4136  0.4255 -0.1787
  188SAPI   H2S21611   4.109   0.327   7.030 -0.5728  1.5664 -0.4713
  188SAPI    C321612   3.881  -0.051   6.766  0.0223 -0.6766  0.4689
  188SAPI    HX21613   3.973  -0.052   6.704 -0.5266  2.0021 -0.4326
  188SAPI    HY21614   3.803  -0.075   6.691  0.6406 -1.3526  0.0277
  188SAPI   O3121615   3.888  -0.139   6.874  0.0658 -0.1948  0.5143
  188SAPI   C3121616   3.775  -0.204   6.905  0.6765 -0.8637 -0.1126
  188SAPI   O3221617   3.666  -0.183   6.855 -0.0699  1.0724  0.0481
  188SAPI   C3221618   3.807  -0.293   7.028  0.0807 -0.1032  0.6691
  188SAPI   H2X21619   3.913  -0.274   7.057  0.0452  0.0575  0.6926
  188SAPI   H2Y21620   3.791  -0.400   7.002 -1.0934 -0.0337  1.0902
  188SAPI   C2321621   3.960   0.401   7.181  0.7515  0.6109 -0.1602
  188SAPI   H3R21622   3.873   0.351   7.230  0.9197  0.8393  0.3730
  188SAPI   H3S21623   3.927   0.496   7.132 -0.4846  1.0093  1.3943
  188SAPI   C2421624   4.072   0.426   7.276  0.4227  0.1514 -0.1926
  188SAPI   H4R21625   4.155   0.462   7.212  0.2353  1.0781  0.0712
  188SAPI   H4S21626   4.109   0.340   7.336  0.1781 -0.3212 -0.7249
  188SAPI   C2521627   4.030   0.532   7.382  0.6049 -0.4745 -0.1203
  188SAPI   H5R21628   3.982   0.623   7.340  1.2964 -0.2708 -0.4755
  188SAPI   C2621629   4.025   0.517   7.516 -1.0318 -0.1221 -0.4687
  188SAPI   H6R21630   4.007   0.604   7.581 -1.1855 -2.0388  2.1760
  188SAPI   C2721631   4.054   0.394   7.600 -0.6176  0.2066 -0.3734
  188SAPI   H7R21632   4.037   0.311   7.528 -0.6271 -1.1823  1.2207
  188SAPI   H7S21633   3.975   0.367   7.674 -1.5681 -1.3957 -1.9243
  188SAPI   C2821634   4.192   0.377   7.672 -0.6765 -0.0837  0.2647
  188SAPI   H8R21635   4.273   0.416   7.608  1.1794 -3.0128  0.7309
  188SAPI   C2921636   4.229   0.333   7.793 -0.1371 -0.1868  0.4765
  188SAPI   H9R21637   4.335   0.320   7.818  0.0236  2.5700  1.3583
  188SAPI  C21021638   4.133   0.278   7.889  0.7787  0.6663  0.1804
  188SAPI  H10R21639   4.028   0.265   7.855  0.1621  1.3435  1.7933
  188SAPI  H10S21640   4.120   0.346   7.975  0.5090 -1.5132  1.9022
  188SAPI  C21121641   4.183   0.143   7.952  0.5619  0.2770 -0.8402
  188SAPI  H11R21642   4.173   0.064   7.875  2.0168  0.1243 -0.8753
  188SAPI  C21221643   4.242   0.117   8.068  0.1436  0.8606 -0.0739
  188SAPI  H12R21644   4.264   0.012   8.092 -0.0201  0.3955 -1.8387
  188SAPI  C21321645   4.273   0.217   8.172  0.1584 -0.5599 -0.7529
  188SAPI  H13R21646   4.225   0.192   8.269  0.5615 -0.0897 -0.4319
  188SAPI  H13S21647   4.216   0.311   8.154 -0.1692 -0.1525  2.2471
  188SAPI  C21421648   4.422   0.243   8.189  0.1313 -0.3698 -0.3946
  188SAPI  H14R21649   4.473   0.157   8.234 -0.5186 -0.4407  0.2084
  188SAPI  C21521650   4.488   0.361   8.155  0.2055 -0.5055  0.2275
  188SAPI  H15R21651   4.596   0.373   8.172  0.1207  1.0011 -0.2508
  188SAPI  C21621652   4.419   0.481   8.091 -0.0663  0.5185 -0.1917
  188SAPI  H16R21653   4.318   0.450   8.057 -0.1468  1.3007 -0.6852
  188SAPI  H16S21654   4.471   0.507   7.996  1.4318  2.5377  1.1336
  188SAPI  C21721655   4.422   0.598   8.195  1.0902 -0.0812  0.5396
  188SAPI  H17R21656   4.375   0.554   8.285 -3.1228 -0.1246 -1.5443
  188SAPI  H17S21657   4.359   0.685   8.164  2.9502  1.8758  2.1145
  188SAPI  C21821658   4.568   0.645   8.215  0.0921 -0.5175  0.0926
  188SAPI  H18R21659   4.598   0.683   8.116  1.4198 -0.1538  0.6194
  188SAPI  H18S21660   4.641   0.571   8.255 -1.1310 -1.2678  1.0060
  188SAPI  C21921661   4.587   0.761   8.316 -0.2371 -0.0620  0.1127
  188SAPI  H19R21662   4.545   0.850   8.264 -0.0647  0.5449  1.0064
  188SAPI  H19S21663   4.694   0.787   8.329  0.1584 -2.0768  1.0265
  188SAPI  C22021664   4.519   0.741   8.451  0.1896  0.2231  0.0920
  188SAPI  H20R21665   4.409   0.751   8.448  0.2069  0.2322 -0.5819
  188SAPI  H20S21666   4.551   0.828   8.513  1.0246  1.5403 -2.0952
  188SAPI  H20T21667   4.551   0.645   8.495  1.0189  0.0576 -0.8439
  188SAPI   C3321668   3.717  -0.250   7.142 -0.1812 -0.0234 -0.0766
  188SAPI   H3X21669   3.706  -0.314   7.231 -0.3359  0.9063  0.5815
  188SAPI   H3Y21670   3.614  -0.241   7.100 -0.4276 -1.8723  0.1040
  188SAPI   C3421671   3.769  -0.120   7.200  0.0584  0.1502  0.3298
  188SAPI   H4X21672   3.787  -0.036   7.130 -0.4613 -0.1732 -0.1882
  188SAPI   H4Y21673   3.866  -0.150   7.247  1.1998  0.1084 -1.9800
  188SAPI   C3521674   3.670  -0.061   7.302 -0.2803  0.1367  0.0231
  188SAPI   H5X21675   3.622  -0.142   7.360  0.6095 -1.6388 -1.6702
  188SAPI   H5Y21676   3.590  -0.016   7.240 -0.3607 -0.7788 -0.5468
  188SAPI   C3621677   3.734   0.032   7.402 -0.6870 -0.1075 -0.3767
  188SAPI   H6X21678   3.653   0.070   7.468 -1.3629  0.0944 -1.3121
  188SAPI   H6Y21679   3.767   0.126   7.351 -1.0843  1.3720  2.0072
  188SAPI   C3721680   3.853  -0.032   7.481  0.3843  0.0675 -0.7619
  188SAPI   H7X21681   3.943  -0.018   7.417 -1.4377  0.7672 -3.2425
  188SAPI   H7Y21682   3.832  -0.140   7.496 -1.8379  0.3574 -1.6617
  188SAPI   C3821683   3.886   0.035   7.611  0.2582 -0.2562  0.1474
  188SAPI   H8X21684   3.900   0.144   7.600  0.5144 -0.2955  0.0954
  188SAPI   H8Y21685   3.990   0.003   7.634  1.1130  1.8918 -0.6746
  188SAPI   C3921686   3.793  -0.015   7.726  0.2877  0.1161 -1.1685
  188SAPI   H9X21687   3.799  -0.126   7.719  1.0067  0.0388  0.4089
  188SAPI   H9Y21688   3.695   0.033   7.710  1.0094  1.3248 -2.0396
  188SAPI  C31021689   3.849   0.031   7.858 -0.5054  0.1217 -0.0501
  188SAPI  H10X21690   3.879   0.138   7.868  4.4359 -1.0799 -0.4006
  188SAPI  H10Y21691   3.945  -0.025   7.861 -1.6788 -2.0646 -1.8869
  188SAPI  C31121692   3.769  -0.015   7.983 -0.8070  0.3415 -0.2736
  188SAPI  H11X21693   3.699  -0.095   7.952 -1.1578  1.3876 -2.2598
  188SAPI  H11Y21694   3.707   0.067   8.024 -0.8190  1.6563 -2.8062
  188SAPI  C31221695   3.874  -0.063   8.083  0.3716  0.0756  0.2597
  188SAPI  H12X21696   3.953   0.015   8.082 -0.8884  1.3625 -1.7433
  188SAPI  H12Y21697   3.912  -0.158   8.041  2.2105  0.5318  0.8386
  188SAPI  C31321698   3.817  -0.080   8.220 -0.2956 -0.8195 -0.2153
  188SAPI  H13X21699   3.720  -0.134   8.210 -0.3890 -0.5556 -0.7728
  188SAPI  H13Y21700   3.785   0.021   8.253 -0.3517 -1.0169  0.3328
  188SAPI  C31421701   3.913  -0.142   8.322  0.4398  0.0505  0.1272
  188SAPI  H14X21702   3.970  -0.232   8.288 -1.2019 -0.6176 -0.8929
  188SAPI  H14Y21703   3.855  -0.173   8.411 -0.7600  0.3009 -0.5665
  188SAPI  C31521704   4.024  -0.059   8.372  0.7358  0.4361 -0.7015
  188SAPI  H15X21705   4.079  -0.011   8.288  4.3416 -2.5978 -0.2017
  188SAPI  H15Y21706   4.097  -0.124   8.426 -1.5044 -1.2837  0.3483
  188SAPI  C31621707   3.967   0.050   8.473  0.0482  0.2326  0.0933
  188SAPI  H16X21708   3.873   0.095   8.435 -1.8218 -0.4935  3.7304
  188SAPI  H16Y21709   4.040   0.134   8.468  1.8568 -1.3161  0.0232
  188SAPI  C31721710   3.950   0.004   8.615 -0.3984  0.0607 -0.1475
  188SAPI  H17X21711   4.044  -0.054   8.627 -0.5067 -0.3394 -1.1633
  188SAPI  H17Y21712   3.866  -0.067   8.630  0.4192 -0.9156 -0.1269
  188SAPI  C31821713   3.942   0.115   8.720 -0.0206 -0.6178 -0.2724
  188SAPI  H18X21714   3.932   0.074   8.823 -0.1285 -4.0820 -1.5941
  188SAPI  H18Y21715   3.852   0.178   8.706  1.1451  1.6847  2.1517
  188SAPI  H18Z21716   4.029   0.184   8.716 -0.9088  0.4955 -0.7953
  189POPC     N21717   3.097   1.271  11.127  0.0111 -0.1873  0.0289
  189POPC   C1221718   3.015   1.394  11.128  0.4386 -0.2163 -0.0753
  189POPC  H12A21719   2.977   1.412  11.228 -0.3353  0.3750 -0.4631
  189POPC  H12B21720   2.925   1.377  11.071 -1.5235  0.3065  2.7479
  189POPC   C1321721   3.057   1.168  11.233  0.2560  0.0022 -0.0834
  189POPC  H13A21722   3.126   1.086  11.235  0.8476  0.5208  0.8997
  189POPC  H13B21723   3.056   1.209  11.333 -0.4716 -1.0856  0.3644
  189POPC  H13C21724   2.958   1.130  11.212  0.6189 -0.7857 -0.3637
  189POPC   C1421725   3.080   1.203  10.991  0.6943  1.0730 -0.4363
  189POPC  H14A21726   3.106   1.273  10.912  0.0173  1.9380  0.0989
  189POPC  H14B21727   3.145   1.117  10.980 -0.8488 -0.2766  0.7851
  189POPC  H14C21728   2.977   1.172  10.982  1.0072 -0.2831  0.5264
  189POPC   C1521729   3.243   1.288  11.154  0.4543  0.2991 -0.1932
  189POPC  H15A21730   3.303   1.205  11.120  0.3888  0.1898 -0.0403
  189POPC  H15B21731   3.268   1.313  11.256 -1.1994  2.7648 -0.3433
  189POPC  H15C21732   3.275   1.379  11.105  0.6955  0.3492  0.0638
  189POPC   C1121733   3.082   1.523  11.073 -0.2264 -0.3346  0.1766
  189POPC  H11A21734   3.009   1.607  11.075  0.0798 -0.0730  0.3801
  189POPC  H11B21735   3.102   1.508  10.965 -3.5380 -0.5721 -0.4621
  189POPC     P21736   3.274   1.695  11.094 -0.4413 -0.3565 -0.1445
  189POPC   O1321737   3.398   1.717  11.179 -0.0285  0.9936 -0.0993
  189POPC   O1421738   3.184   1.813  11.084  0.0705  0.2454  0.6000
  189POPC   O1221739   3.200   1.561  11.145  0.0117 -0.4325 -0.5124
  189POPC   O1121740   3.324   1.665  10.952  0.2558  0.5110  0.1490
  189POPC    C121741   3.395   1.552  10.897 -0.5333  0.3464 -0.1125
  189POPC    HA21742   3.335   1.459  10.904  0.3477 -0.1123  1.5103
  189POPC    HB21743   3.489   1.549  10.956 -1.7143 -0.7758  1.7539
  189POPC    C221744   3.437   1.588  10.751  0.0686  0.5189  0.8661
  189POPC    HS21745   3.480   1.690  10.754  0.7031  0.2951 -0.3756
  189POPC   O2121746   3.323   1.574  10.670 -0.8496  0.7089  0.3133
  189POPC   C2121747   3.333   1.644  10.557  0.0728  0.6896  0.7933
  189POPC   O2221748   3.399   1.747  10.546 -0.1230 -0.4667 -0.7542
  189POPC   C2221749   3.243   1.589  10.451  0.2966  0.5400 -0.5838
  189POPC   H2R21750   3.157   1.655  10.430 -2.3242 -2.7937 -0.8069
  189POPC   H2S21751   3.206   1.494  10.494  1.4573 -0.0901 -0.9331
  189POPC    C321752   3.549   1.492  10.705  0.2857 -0.2014 -0.4028
  189POPC    HX21753   3.502   1.392  10.704 -0.3764  0.0271  2.7158
  189POPC    HY21754   3.631   1.480  10.779  0.0846 -0.4553 -0.2220
  189POPC   O3121755   3.593   1.524  10.574 -0.4910 -0.1998 -0.0784
  189POPC   C3121756   3.690   1.619  10.553 -0.4929 -0.0870 -0.0902
  189POPC   O3221757   3.737   1.693  10.638  0.0223  0.2503  0.5280
  189POPC   C3221758   3.732   1.620  10.401  0.1083  0.4612  0.1595
  189POPC   H2X21759   3.660   1.560  10.341 -0.1470 -0.0188  0.9420
  189POPC   H2Y21760   3.829   1.566  10.406 -0.0863  0.3205  3.1638
  189POPC   C2321761   3.314   1.566  10.316 -0.0841 -0.7205 -0.2735
  189POPC   H3R21762   3.396   1.640  10.318  1.7605 -2.7276 -0.2282
  189POPC   H3S21763   3.237   1.581  10.237 -1.3117 -1.8457  0.6921
  189POPC   C2421764   3.378   1.427  10.299 -0.3559  0.2454 -0.3449
  189POPC   H4R21765   3.295   1.354  10.306 -1.4914  1.2465 -2.9718
  189POPC   H4S21766   3.449   1.406  10.382 -0.7757  1.0142  0.2210
  189POPC   C2521767   3.451   1.416  10.157  0.6722  0.0910 -0.0923
  189POPC   H5R21768   3.530   1.492  10.175  0.9473 -0.3674  0.6819
  189POPC   H5S21769   3.381   1.442  10.076 -0.2918 -1.0190  0.3609
  189POPC   C2621770   3.523   1.287  10.135 -0.1895  0.4227  0.5411
  189POPC   H6R21771   3.582   1.257  10.224 -1.2521  1.9495  1.7855
  189POPC   H6S21772   3.588   1.296  10.045  0.8339 -0.6455  1.1690
  189POPC   C2721773   3.423   1.178  10.117  0.1355 -0.4951  0.0212
  189POPC   H7R21774   3.350   1.194  10.035 -0.6431  0.6720  0.9003
  189POPC   H7S21775   3.360   1.167  10.209 -2.1576  0.8841 -1.3287
  189POPC   C2821776   3.486   1.039  10.096  0.5049 -0.5620  0.2438
  189POPC   H8R21777   3.396   0.974  10.104 -0.9344  1.2582 -0.6395
  189POPC   H8S21778   3.551   1.020  10.184 -1.4059  2.1655  2.3307
  189POPC   C2921779   3.569   1.031   9.971  0.1936 -0.1534  0.1906
  189POPC   H9121780   3.671   1.072   9.970 -0.4795  1.5865  1.0363
  189POPC  C21021781   3.525   0.997   9.847 -0.1157  1.0694  0.1677
  189POPC  H10121782   3.588   1.001   9.758 -2.7238 -1.2339 -1.8738
  189POPC  C21121783   3.381   0.968   9.811  0.4723  0.2068  0.2835
  189POPC  H11R21784   3.315   1.036   9.868  0.0839  0.6011 -0.6309
  189POPC  H11S21785   3.351   0.869   9.852  3.1739 -0.8068 -0.1377
  189POPC  C21221786   3.340   0.968   9.661  0.2383  0.0843 -0.3642
  189POPC  H12R21787   3.231   0.947   9.663  0.0927  0.8477 -0.3600
  189POPC  H12S21788   3.387   0.891   9.596  0.1121  0.4256 -0.8666
  189POPC  C21321789   3.366   1.108   9.603 -0.1871  0.3560  1.0249
  189POPC  H13R21790   3.476   1.115   9.591 -0.3340 -0.2763 -0.8041
  189POPC  H13S21791   3.316   1.188   9.663 -0.0920 -0.1216  1.7411
  189POPC  C21421792   3.293   1.114   9.476 -0.9558  0.2716  0.3450
  189POPC  H14R21793   3.185   1.109   9.502 -1.4329  2.2593 -1.1434
  189POPC  H14S21794   3.332   1.036   9.407 -2.2001 -0.9509  0.9811
  189POPC  C21521795   3.295   1.250   9.405 -0.3316 -0.0453  0.5232
  189POPC  H15R21796   3.399   1.256   9.367 -0.4633  2.0195  0.4435
  189POPC  H15S21797   3.285   1.326   9.486  1.7869 -3.1350  3.8550
  189POPC  C21621798   3.199   1.241   9.283 -0.4288 -0.1582 -0.0893
  189POPC  H16R21799   3.090   1.240   9.308 -0.2978 -2.0092  0.5028
  189POPC  H16S21800   3.226   1.151   9.223 -2.4104 -1.0432  0.2901
  189POPC  C21721801   3.222   1.357   9.190  0.0030 -0.1216 -0.2711
  189POPC  H17R21802   3.327   1.351   9.153  1.2040  3.3936  2.2347
  189POPC  H17S21803   3.209   1.459   9.233  3.4651  1.2354 -2.2498
  189POPC  C21821804   3.141   1.343   9.063 -0.0072 -0.0212  0.6298
  189POPC  H18R21805   3.185   1.405   8.982 -0.9162 -3.8494 -2.9816
  189POPC  H18S21806   3.032   1.366   9.067 -0.7535 -3.3830  1.9141
  189POPC  H18T21807   3.150   1.236   9.035  1.5740 -0.0649  1.2666
  189POPC   C3321808   3.739   1.766  10.341 -0.1642  0.6275 -0.4072
  189POPC   H3X21809   3.767   1.831  10.427  0.4267 -0.7545  0.4538
  189POPC   H3Y21810   3.639   1.807  10.314  0.6280  1.0815 -2.7453
  189POPC   C3421811   3.841   1.798  10.227 -0.1030  0.0256 -0.0026
  189POPC   H4X21812   3.930   1.747  10.271 -1.4298 -3.2669 -0.9931
  189POPC   H4Y21813   3.850   1.908  10.226  0.7090 -0.0403 -0.2199
  189POPC   C3521814   3.799   1.732  10.092  0.3042  0.2511 -0.4730
  189POPC   H5X21815   3.705   1.773  10.049  2.1189  1.9176 -3.0013
  189POPC   H5Y21816   3.789   1.625  10.119  3.5675  0.6280  2.6280
  189POPC   C3621817   3.910   1.747   9.991 -0.5833 -0.0837 -0.1873
  189POPC   H6X21818   4.001   1.702  10.036 -1.8340 -1.0635  1.4029
  189POPC   H6Y21819   3.931   1.856   9.994  1.4772 -0.4661  0.3252
  189POPC   C3721820   3.869   1.715   9.849  0.2263  0.2430  1.3533
  189POPC   H7X21821   3.795   1.788   9.807  0.4872  0.0165  0.4857
  189POPC   H7Y21822   3.801   1.628   9.837 -0.8161  1.1542  0.4494
  189POPC   C3821823   3.982   1.707   9.746 -0.1552 -0.4575 -0.5825
  189POPC   H8X21824   4.070   1.646   9.774  0.3197  1.3259  1.9158
  189POPC   H8Y21825   4.031   1.807   9.744  0.1474 -0.4992  2.6847
  189POPC   C3921826   3.942   1.692   9.596 -0.7228  0.0365  0.3974
  189POPC   H9X21827   3.893   1.791   9.584  1.0673  0.8786 -0.1789
  189POPC   H9Y21828   3.859   1.623   9.571 -1.1646  0.9911 -0.8248
  189POPC  C31021829   4.057   1.689   9.496  0.1932 -0.4910  1.1890
  189POPC  H10X21830   4.117   1.597   9.516  0.6325 -0.0085  2.1268
  189POPC  H10Y21831   4.123   1.778   9.500 -1.2024  0.6223  0.0779
  189POPC  C31121832   3.988   1.679   9.358  0.1276 -0.0418 -0.8326
  189POPC  H11X21833   3.942   1.779   9.343 -0.6514 -0.1265  0.8651
  189POPC  H11Y21834   3.910   1.600   9.368 -0.3006  0.4695 -0.1182
  189POPC  C31221835   4.082   1.648   9.243  0.1768  0.0205  0.1689
  189POPC  H12X21836   4.138   1.554   9.262 -1.7650 -0.8060  1.9575
  189POPC  H12Y21837   4.164   1.723   9.234  0.4913 -0.3390 -0.0238
  189POPC  C31321838   4.012   1.651   9.116  0.3128 -0.2053 -0.6946
  189POPC  H13X21839   3.955   1.746   9.107 -1.3819 -1.2046 -0.6775
  189POPC  H13Y21840   3.942   1.566   9.131  0.2016  0.2914  1.6803
  189POPC  C31421841   4.096   1.629   8.987  1.3843 -0.4402 -0.2697
  189POPC  H14X21842   4.148   1.532   9.003 -0.1335 -1.3106 -0.4716
  189POPC  H14Y21843   4.174   1.705   8.969  0.8884  0.4000  1.0642
  189POPC  C31521844   4.008   1.617   8.862 -1.0162 -0.1028 -0.3880
  189POPC  H15X21845   3.936   1.699   8.841 -0.6689  0.5887  1.1171
  189POPC  H15Y21846   3.940   1.530   8.878 -0.0872 -0.8232 -0.2651
  189POPC  C31621847   4.092   1.581   8.736  0.2485 -0.0977 -0.9486
  189POPC  H16X21848   4.165   1.664   8.725  0.4393  0.2915  2.6205
  189POPC  H16Y21849   4.035   1.572   8.641 -2.5589  0.5181  0.6392
  189POPC  H16Z21850   4.137   1.480   8.751  0.9781  0.0195 -2.2933
  190POPC     N21851   5.679   4.841  11.107  0.2296  0.2985  0.5658
  190POPC   C1221852   5.788   4.893  11.015  0.1403 -0.1633 -0.1429
  190POPC  H12A21853   5.876   4.918  11.073 -2.0175  2.1373  2.3011
  190POPC  H12B21854   5.767   4.995  10.984  0.2632 -0.1549 -0.1979
  190POPC   C1321855   5.745   4.726  11.170  0.0083 -0.0193  0.2797
  190POPC  H13A21856   5.771   4.657  11.091  0.1087  2.5203 -1.9635
  190POPC  H13B21857   5.824   4.755  11.238  0.1180  0.7393 -0.1758
  190POPC  H13C21858   5.678   4.671  11.236  0.5457 -1.1025 -0.0702
  190POPC   C1421859   5.642   4.942  11.209  0.1408 -0.1740  0.1197
  190POPC  H14A21860   5.727   4.960  11.273  0.7505  2.9611 -1.4932
  190POPC  H14B21861   5.607   5.031  11.159 -4.2249 -0.4044  2.5704
  190POPC  H14C21862   5.562   4.903  11.269  0.6976  3.2235  3.2109
  190POPC   C1521863   5.556   4.805  11.022  0.4527  0.2510 -0.7842
  190POPC  H15A21864   5.595   4.738  10.947 -0.8057  1.1108 -2.2136
  190POPC  H15B21865   5.506   4.890  10.980  0.1419  1.3778  1.7535
  190POPC  H15C21866   5.481   4.744  11.070 -1.3497  2.7180 -0.4013
  190POPC   C1121867   5.832   4.808  10.894  0.7144 -0.2186 -0.0486
  190POPC  H11A21868   5.886   4.874  10.822  1.1202 -1.0292 -0.4878
  190POPC  H11B21869   5.742   4.769  10.840  0.5628  2.0919 -1.5599
  190POPC     P21870   6.059   4.705  10.987  0.4928 -0.1777 -0.1816
  190POPC   O1321871   6.063   4.619  11.110 -0.1326 -0.6194 -0.0598
  190POPC   O1421872   6.097   4.844  11.003 -0.2053 -0.3050 -0.1182
  190POPC   O1221873   5.911   4.696  10.925 -0.6728 -0.1045  0.1522
  190POPC   O1121874   6.135   4.639  10.873  0.3416 -0.5694 -0.4045
  190POPC    C121875   6.098   4.508  10.833  0.5785  0.2243 -0.8012
  190POPC    HA21876   5.992   4.485  10.860  1.1632 -0.7412  0.7371
  190POPC    HB21877   6.163   4.429  10.875 -0.3789  0.6072  1.4942
  190POPC    C221878   6.113   4.492  10.682  0.4568  0.6921  0.0427
  190POPC    HS21879   6.213   4.525  10.647  0.2664 -0.8688 -2.0503
  190POPC   O2121880   6.006   4.555  10.614 -0.1169  0.1236  0.2601
  190POPC   C2121881   6.026   4.691  10.612 -0.0437  0.6908  0.1864
  190POPC   O2221882   6.138   4.738  10.615  0.5296 -0.5105  0.2186
  190POPC   C2221883   5.892   4.757  10.571  0.6810  0.1831 -0.6808
  190POPC   H2R21884   5.905   4.867  10.565  0.9735  0.1637 -0.3862
  190POPC   H2S21885   5.812   4.728  10.643  0.3577 -0.2905 -1.2221
  190POPC    C321886   6.102   4.342  10.648 -0.3795  0.0526 -0.1670
  190POPC    HX21887   6.007   4.306  10.693  0.0224 -0.5559  0.1910
  190POPC    HY21888   6.186   4.286  10.695 -2.5226 -2.0132  1.3104
  190POPC   O3121889   6.109   4.333  10.503  0.0827 -0.1618  0.3848
  190POPC   C3121890   6.008   4.335  10.427 -0.1092  0.5348  0.2146
  190POPC   O3221891   5.887   4.343  10.456 -0.3927 -0.0536  0.1356
  190POPC   C3221892   6.053   4.319  10.277 -0.0031  0.5849  0.4627
  190POPC   H2X21893   6.119   4.231  10.263 -0.0454  0.3272  1.8103
  190POPC   H2Y21894   6.116   4.404  10.246  1.6061 -0.9799 -0.6521
  190POPC   C2321895   5.858   4.715  10.427 -0.5673  0.5277 -0.5882
  190POPC   H3R21896   5.753   4.743  10.406 -1.5998 -1.5939  1.5387
  190POPC   H3S21897   5.857   4.604  10.417  0.8402  0.6689 -2.6904
  190POPC   C2421898   5.953   4.780  10.326  0.2457  0.2900  0.0378
  190POPC   H4R21899   6.040   4.714  10.306  0.0207  0.0181 -0.0475
  190POPC   H4S21900   5.998   4.872  10.368 -1.2369  0.8145  0.5203
  190POPC   C2521901   5.883   4.801  10.190 -0.2293 -0.6735  0.0805
  190POPC   H5R21902   5.802   4.875  10.206  0.0455 -0.3236 -0.1190
  190POPC   H5S21903   5.831   4.710  10.154  1.5370 -2.0041  0.8187
  190POPC   C2621904   5.985   4.875  10.099  1.1788 -0.0417  0.7325
  190POPC   H6R21905   6.065   4.808  10.060 -1.3506 -2.4025 -0.5810
  190POPC   H6S21906   6.025   4.954  10.166  1.6163  0.9604 -0.6926
  190POPC   C2721907   5.914   4.954   9.979  0.0701  0.5325  0.2029
  190POPC   H7R21908   5.994   5.011   9.927  0.7731 -0.3960  0.2384
  190POPC   H7S21909   5.827   5.012  10.015 -1.0029  0.2498 -1.8365
  190POPC   C2821910   5.857   4.854   9.875 -0.0536 -0.6374  0.1783
  190POPC   H8R21911   5.768   4.814   9.928  1.1812 -0.5543  2.3756
  190POPC   H8S21912   5.926   4.770   9.850 -0.7926 -1.4366  0.8105
  190POPC   C2921913   5.808   4.937   9.754 -0.0426 -0.2482 -0.5135
  190POPC   H9121914   5.733   5.010   9.786 -0.4786 -1.1179  0.4718
  190POPC  C21021915   5.855   4.940   9.635 -0.6308 -0.5898 -0.1288
  190POPC  H10121916   5.813   5.013   9.564  2.3224 -0.1913 -1.5549
  190POPC  C21121917   5.970   4.872   9.572 -0.2451 -1.0190  0.4821
  190POPC  H11R21918   6.050   4.844   9.644  0.9000  1.3752  0.1718
  190POPC  H11S21919   6.013   4.941   9.497 -0.6531  2.2105  3.1160
  190POPC  C21221920   5.918   4.746   9.487 -0.1400 -0.2421  0.0864
  190POPC  H12R21921   5.826   4.782   9.437 -1.1139 -1.6566  0.8250
  190POPC  H12S21922   5.902   4.677   9.573  1.4652  0.6981  1.1898
  190POPC  C21321923   6.024   4.683   9.393  0.7894 -0.3670 -0.0608
  190POPC  H13R21924   6.001   4.579   9.361 -1.0468  0.5419 -1.7525
  190POPC  H13S21925   6.119   4.688   9.451  0.7089  1.4393 -0.0720
  190POPC  C21421926   6.062   4.768   9.262  0.1167 -0.5075 -0.7497
  190POPC  H14R21927   6.154   4.717   9.227  1.6242  1.3303  0.3983
  190POPC  H14S21928   6.079   4.872   9.298  2.8344 -0.7519 -1.2235
  190POPC  C21521929   5.962   4.781   9.138  0.3493  0.0326 -0.2095
  190POPC  H15R21930   6.012   4.850   9.066 -1.0727  1.0788 -0.2021
  190POPC  H15S21931   5.873   4.839   9.171  0.5890 -1.2035  2.7099
  190POPC  C21621932   5.929   4.642   9.080  0.9460 -0.2228  0.2952
  190POPC  H16R21933   5.856   4.592   9.146  0.5086  0.9662  0.7300
  190POPC  H16S21934   6.019   4.577   9.075  0.5112 -0.8627  0.8850
  190POPC  C21721935   5.883   4.653   8.934  0.1897 -0.2582 -0.2639
  190POPC  H17R21936   5.975   4.685   8.880  1.2167  1.5470  2.4510
  190POPC  H17S21937   5.802   4.728   8.919  0.1398  0.1002  1.6686
  190POPC  C21821938   5.821   4.523   8.873 -0.1541  0.0248  0.5965
  190POPC  H18R21939   5.902   4.449   8.851  0.0904  0.3555  0.3738
  190POPC  H18S21940   5.786   4.550   8.771 -3.3833  0.4310  1.7924
  190POPC  H18T21941   5.753   4.459   8.932 -0.9332  0.3998  0.1095
  190POPC   C3321942   5.931   4.313  10.185  0.6704 -0.1455 -0.2376
  190POPC   H3X21943   5.859   4.395  10.204  0.4218 -0.3366 -0.3618
  190POPC   H3Y21944   5.879   4.220  10.217 -1.1116  0.3943 -1.5336
  190POPC   C3421945   5.971   4.294  10.029  0.9181 -0.3126 -0.1095
  190POPC   H4X21946   5.875   4.263   9.981  0.9255 -3.7262  1.9449
  190POPC   H4Y21947   6.033   4.204  10.007 -0.1841 -1.6656  2.1466
  190POPC   C3521948   6.012   4.426   9.958 -0.4169 -0.6686  0.9406
  190POPC   H5X21949   6.122   4.444   9.960  0.2322 -4.3827  3.7882
  190POPC   H5Y21950   5.964   4.513  10.008  0.7804 -0.0409  1.0328
  190POPC   C3621951   5.968   4.437   9.819  0.2888 -0.0071  0.0057
  190POPC   H6X21952   6.001   4.532   9.771 -0.5033 -0.0094 -0.5521
  190POPC   H6Y21953   5.860   4.415   9.817  0.9797 -3.6516  0.1136
  190POPC   C3721954   6.031   4.326   9.736  0.6865  0.2942 -0.2537
  190POPC   H7X21955   6.000   4.227   9.775 -1.9836  1.3460  0.3715
  190POPC   H7Y21956   6.141   4.335   9.745  0.7283 -0.3087 -0.1586
  190POPC   C3821957   5.987   4.322   9.589 -0.1398 -0.3642 -0.3529
  190POPC   H8X21958   6.006   4.429   9.564 -0.4887  0.5644  3.0368
  190POPC   H8Y21959   5.878   4.301   9.579 -0.5820  0.6034  1.9665
  190POPC   C3921960   6.059   4.210   9.517  0.1517 -0.0616 -0.2882
  190POPC   H9X21961   6.041   4.116   9.575 -4.5445  0.2001 -1.1639
  190POPC   H9Y21962   6.168   4.230   9.514  0.0453  0.5551  0.0041
  190POPC  C31021963   6.018   4.194   9.365  0.3985 -0.0474 -0.0320
  190POPC  H10X21964   6.079   4.268   9.309  0.6107  0.9606  1.4869
  190POPC  H10Y21965   5.908   4.211   9.360  0.3147 -0.1323  1.1450
  190POPC  C31121966   6.060   4.060   9.300  0.0744  0.8240  0.5781
  190POPC  H11X21967   6.024   3.971   9.355 -1.3107  1.2859  0.4463
  190POPC  H11Y21968   6.171   4.066   9.301  0.1698 -0.8146  1.2895
  190POPC  C31221969   6.010   4.067   9.157 -0.3441  0.3110  0.3224
  190POPC  H12X21970   5.906   4.107   9.157 -0.1099  0.9223  0.4930
  190POPC  H12Y21971   6.012   3.960   9.127 -1.2538 -0.0561  1.5111
  190POPC  C31321972   6.099   4.139   9.050 -0.0376 -0.5236 -0.2393
  190POPC  H13X21973   6.206   4.132   9.076  0.3116  1.6631 -0.9773
  190POPC  H13Y21974   6.066   4.245   9.055 -0.2533 -0.6198  0.4449
  190POPC  C31421975   6.098   4.077   8.909 -0.5141  0.1799 -0.0769
  190POPC  H14X21976   6.093   3.967   8.924  0.4744  0.0506 -0.6479
  190POPC  H14Y21977   6.193   4.097   8.856  0.9609 -0.8677  2.1293
  190POPC  C31521978   5.978   4.128   8.826 -0.5452 -0.3746 -0.3031
  190POPC  H15X21979   5.995   4.237   8.814  1.2665 -0.5086  0.9359
  190POPC  H15Y21980   5.894   4.112   8.897  2.4144 -3.6203  2.6308
  190POPC  C31621981   5.963   4.072   8.685  0.7400 -0.0089 -0.1113
  190POPC  H16X21982   6.003   3.970   8.667 -0.2129 -0.6796  1.5158
  190POPC  H16Y21983   5.994   4.144   8.606  1.2352 -0.8624 -0.7080
  190POPC  H16Z21984   5.855   4.047   8.673  1.0863 -1.8789  0.4437
  191POPC     N21985   6.085   5.785   6.009 -0.9982 -0.7772 -0.8027
  191POPC   C1221986   6.161   5.876   6.106  0.1829 -0.3763  0.7250
  191POPC  H12A21987   6.118   5.974   6.096 -0.1967 -0.7337 -1.2853
  191POPC  H12B21988   6.265   5.888   6.082 -0.8683  2.2250 -2.8686
  191POPC   C1321989   6.089   5.638   6.051 -0.2009  0.7168 -0.5189
  191POPC  H13A21990   6.042   5.584   5.969  2.6961 -1.4460 -0.8311
  191POPC  H13B21991   6.192   5.609   6.062 -1.2089 -2.5442  1.0409
  191POPC  H13C21992   6.032   5.613   6.140 -0.2835  0.0785 -0.7446
  191POPC   C1421993   5.942   5.835   6.015 -0.1560  0.1120 -0.8187
  191POPC  H14A21994   5.902   5.828   6.115  1.5242 -3.0037 -0.2736
  191POPC  H14B21995   5.932   5.937   5.981  1.4458 -0.8630 -4.5261
  191POPC  H14C21996   5.878   5.782   5.947 -2.9260 -1.0119  2.5310
  191POPC   C1521997   6.149   5.799   5.876 -0.4640  0.0138 -0.5100
  191POPC  H15A21998   6.254   5.774   5.881 -0.3321  0.6294 -0.0931
  191POPC  H15B21999   6.125   5.895   5.831  1.0005  0.6518  0.0554
  191POPC  H15C22000   6.112   5.723   5.809  0.5142 -1.3553  0.4881
  191POPC   C1122001   6.150   5.842   6.259  0.2485  0.5101 -0.4465
  191POPC  H11A22002   6.047   5.803   6.274 -0.5132  3.1131  1.4157
  191POPC  H11B22003   6.171   5.935   6.316  2.5676 -0.8939  1.0499
  191POPC     P22004   6.393   5.751   6.302  0.2204  0.0092  0.3310
  191POPC   O1322005   6.431   5.885   6.245  0.7009 -0.2940  0.7466
  191POPC   O1422006   6.448   5.627   6.233 -0.2295 -0.2044  0.2126
  191POPC   O1222007   6.239   5.737   6.290 -0.7129  0.8986  0.6338
  191POPC   O1122008   6.418   5.749   6.459 -0.7316  0.2302 -0.1632
  191POPC    C122009   6.319   5.807   6.543  0.0417  0.2982 -0.6888
  191POPC    HA22010   6.230   5.744   6.522 -0.3602  0.6617 -0.0774
  191POPC    HB22011   6.311   5.917   6.526  0.6471  0.2970 -0.9725
  191POPC    C222012   6.350   5.775   6.696 -0.1153 -0.2339 -0.1980
  191POPC    HS22013   6.255   5.802   6.747  0.2835 -1.6745  1.3496
  191POPC   O2122014   6.465   5.860   6.725 -0.2478 -0.5629 -0.6469
  191POPC   C2122015   6.495   5.889   6.854 -0.3916 -0.9459 -0.0442
  191POPC   O2222016   6.428   5.854   6.946 -0.1953  0.2676 -0.1848
  191POPC   C2222017   6.627   5.961   6.856  0.9630  0.1688  0.0573
  191POPC   H2R22018   6.605   6.049   6.793 -0.3565 -0.7637 -0.7880
  191POPC   H2S22019   6.717   5.904   6.822  0.4076  0.4700 -1.9203
  191POPC    C322020   6.392   5.623   6.725  0.2027  0.6727 -0.3143
  191POPC    HX22021   6.489   5.615   6.671 -0.0273  0.9292 -0.7746
  191POPC    HY22022   6.328   5.545   6.679  0.4512  0.0471  0.3948
  191POPC   O3122023   6.409   5.597   6.867  0.2492  0.0210  0.6937
  191POPC   C3122024   6.293   5.583   6.934 -0.1173  0.6583  0.4423
  191POPC   O3222025   6.183   5.593   6.884 -0.3165 -0.0726 -0.4987
  191POPC   C3222026   6.321   5.540   7.080  0.1972 -0.5632  0.3435
  191POPC   H2X22027   6.252   5.606   7.138 -0.3245  1.4287 -2.4498
  191POPC   H2Y22028   6.426   5.570   7.099 -0.5502  0.6605  2.7428
  191POPC   C2322029   6.661   5.999   7.000  0.5733 -0.2254 -0.1672
  191POPC   H3R22030   6.573   6.050   7.046  1.2686  0.0509  0.8793
  191POPC   H3S22031   6.740   6.076   6.993 -1.2527  1.7702  0.4057
  191POPC   C2422032   6.714   5.881   7.081  0.3841  0.2525 -0.1435
  191POPC   H4R22033   6.785   5.825   7.015  1.4239  3.1667 -1.5742
  191POPC   H4S22034   6.630   5.817   7.116  0.9559 -0.2351  0.3673
  191POPC   C2522035   6.790   5.925   7.207 -0.2053 -0.7554  0.2311
  191POPC   H5R22036   6.807   6.034   7.195  2.3825 -1.0973  0.3853
  191POPC   H5S22037   6.887   5.871   7.216  0.1330  0.2083  2.7586
  191POPC   C2622038   6.701   5.907   7.337 -0.0549  0.2510  0.2016
  191POPC   H6R22039   6.720   5.805   7.376  3.1639  1.1269  1.1209
  191POPC   H6S22040   6.593   5.911   7.310 -0.0795  2.2586  0.5381
  191POPC   C2722041   6.727   6.019   7.438  0.4182 -0.0120 -0.3275
  191POPC   H7R22042   6.667   6.004   7.530 -0.8720 -1.4097 -1.3721
  191POPC   H7S22043   6.707   6.114   7.383 -0.3928  2.0387  3.3448
  191POPC   C2822044   6.878   6.011   7.480 -1.0923 -0.2448 -0.0019
  191POPC   H8R22045   6.893   6.108   7.533  1.7553 -0.3850 -0.4856
  191POPC   H8S22046   6.943   5.998   7.391 -0.5840 -1.4575  0.5449
  191POPC   C2922047   6.914   5.905   7.580 -0.2895  0.1525 -0.5264
  191POPC   H9122048   6.914   5.800   7.549 -0.1101 -0.7966  2.5231
  191POPC  C21022049   6.959   5.929   7.705  0.1869 -0.4777 -0.2749
  191POPC  H10122050   6.990   5.839   7.760 -0.3697 -1.0894 -0.9423
  191POPC  C21122051   6.972   6.056   7.782  0.2564 -0.5219 -0.3982
  191POPC  H11R22052   6.886   6.123   7.762  2.3838  2.5645  0.4584
  191POPC  H11S22053   7.057   6.118   7.745 -0.2784  1.3568  1.4648
  191POPC  C21222054   6.984   6.018   7.923  0.1507 -0.1121  0.8586
  191POPC  H12R22055   7.082   5.969   7.942 -0.3108 -0.7656  1.5928
  191POPC  H12S22056   6.913   5.940   7.957  0.4726 -0.3053  1.0987
  191POPC  C21322057   6.966   6.150   8.005  0.2317 -0.3978 -0.2113
  191POPC  H13R22058   6.865   6.185   7.976 -0.8004 -3.0963 -0.0328
  191POPC  H13S22059   7.034   6.234   7.979 -2.2379  1.6541 -0.2558
  191POPC  C21422060   6.952   6.130   8.163  0.0893 -0.4601 -0.6371
  191POPC  H14R22061   6.899   6.032   8.166 -0.6466 -0.1567 -3.1437
  191POPC  H14S22062   6.878   6.197   8.212 -2.5670 -2.5416 -1.6919
  191POPC  C21522063   7.093   6.106   8.231 -0.2879  0.1476 -0.3324
  191POPC  H15R22064   7.160   6.194   8.232  1.6980 -1.3446 -0.2696
  191POPC  H15S22065   7.141   6.034   8.160 -0.3197  0.6740 -0.8963
  191POPC  C21622066   7.083   6.035   8.373  0.1093 -0.8261  0.2631
  191POPC  H16R22067   7.180   6.051   8.425 -0.6639 -0.9224  1.7293
  191POPC  H16S22068   7.064   5.929   8.345  0.0095 -0.0944 -2.6651
  191POPC  C21722069   6.972   6.092   8.454 -0.4072  0.0598  0.0372
  191POPC  H17R22070   6.870   6.099   8.410 -0.7366 -1.1413  0.5884
  191POPC  H17S22071   7.000   6.194   8.486 -0.0015 -0.1874  0.4805
  191POPC  C21822072   6.953   6.004   8.577 -0.0498 -0.4190 -0.5812
  191POPC  H18R22073   6.935   5.897   8.554 -2.1834  0.2249 -2.0683
  191POPC  H18S22074   6.864   6.036   8.635 -0.3517  0.3519 -1.4435
  191POPC  H18T22075   7.045   6.013   8.639 -2.2910  0.1721  2.7516
  191POPC   C3322076   6.272   5.394   7.097 -0.1465  0.3136 -0.2294
  191POPC   H3X22077   6.334   5.327   7.033 -0.1786  1.7861 -1.8491
  191POPC   H3Y22078   6.170   5.367   7.063 -0.1775  0.0107  0.1086
  191POPC   C3422079   6.287   5.346   7.240  0.2101  0.0938 -0.8065
  191POPC   H4X22080   6.200   5.386   7.295  0.4190 -0.2957 -0.1909
  191POPC   H4Y22081   6.378   5.389   7.288  0.6568 -0.8472 -0.7991
  191POPC   C3522082   6.264   5.197   7.264  0.4752 -0.8034 -0.2754
  191POPC   H5X22083   6.354   5.136   7.244  0.4675 -0.4515 -1.4639
  191POPC   H5Y22084   6.192   5.164   7.186 -2.3678 -0.2832  2.0694
  191POPC   C3622085   6.231   5.162   7.408  0.2865  0.2419  0.0847
  191POPC   H6X22086   6.220   5.052   7.420  2.7253  0.0607  0.8633
  191POPC   H6Y22087   6.139   5.213   7.444 -1.0878 -1.6349 -0.6602
  191POPC   C3722088   6.347   5.211   7.503 -0.0679 -0.6146 -0.2767
  191POPC   H7X22089   6.336   5.321   7.501 -0.4420 -0.6666 -1.3076
  191POPC   H7Y22090   6.445   5.177   7.463  0.3280 -1.2145  1.1735
  191POPC   C3822091   6.327   5.152   7.640 -0.3578  0.3678 -0.9193
  191POPC   H8X22092   6.319   5.042   7.628 -0.4085  0.4182 -1.3817
  191POPC   H8Y22093   6.231   5.183   7.686 -1.8419 -1.4181 -2.6937
  191POPC   C3922094   6.450   5.162   7.728 -0.3971  0.1737 -0.0475
  191POPC   H9X22095   6.494   5.264   7.732 -2.9953  1.3039  0.8602
  191POPC   H9Y22096   6.524   5.086   7.695 -0.1064 -0.0235  1.0263
  191POPC  C31022097   6.410   5.118   7.877 -0.3177  0.4686  1.1562
  191POPC  H10X22098   6.392   5.009   7.878  1.8162  0.1043  1.3053
  191POPC  H10Y22099   6.308   5.154   7.904 -1.4745 -2.2082  0.4928
  191POPC  C31122100   6.506   5.163   7.996  0.2566 -0.1520  0.3881
  191POPC  H11X22101   6.507   5.274   7.989  0.6772  0.0099  2.6173
  191POPC  H11Y22102   6.607   5.122   7.973  0.7115  0.7115  0.7948
  191POPC  C31222103   6.465   5.118   8.134 -0.4401 -0.0246 -0.7763
  191POPC  H12X22104   6.496   5.012   8.147 -1.7105 -0.3375 -0.2700
  191POPC  H12Y22105   6.354   5.118   8.136 -0.4170 -0.9179  0.7813
  191POPC  C31322106   6.534   5.194   8.250 -0.1711  0.4608 -0.2822
  191POPC  H13X22107   6.631   5.239   8.218  0.5071 -0.5559  0.3194
  191POPC  H13Y22108   6.565   5.120   8.327  0.4729  1.5366  0.5166
  191POPC  C31422109   6.445   5.309   8.290  0.9288  0.1933 -0.2295
  191POPC  H14X22110   6.343   5.271   8.313  1.0360 -0.9987 -1.6470
  191POPC  H14Y22111   6.443   5.380   8.205 -2.1237  2.2890  1.5033
  191POPC  C31522112   6.501   5.393   8.410 -0.5899  0.9629 -0.3028
  191POPC  H15X22113   6.587   5.456   8.378 -1.2878  1.1483 -1.8527
  191POPC  H15Y22114   6.542   5.327   8.488 -1.7499  2.9112  2.0446
  191POPC  C31622115   6.385   5.468   8.483  0.0710  0.1342  0.2200
  191POPC  H16X22116   6.319   5.391   8.529 -1.7178  1.3448 -0.2436
  191POPC  H16Y22117   6.329   5.532   8.412 -0.2670 -1.0940 -0.6470
  191POPC  H16Z22118   6.430   5.531   8.562  0.0434  1.1434 -0.5521
  192POPC     N22119   5.240   1.752   6.026 -0.1550 -0.3217 -0.1323
  192POPC   C1222120   5.153   1.619   6.011  0.0718 -0.1824 -0.0527
  192POPC  H12A22121   5.204   1.538   6.060 -0.4357  1.5966  3.5840
  192POPC  H12B22122   5.156   1.587   5.908  1.2182  1.7050 -0.6443
  192POPC   C1322123   5.373   1.735   5.966 -0.4215 -0.6539 -0.0648
  192POPC  H13A22124   5.440   1.818   5.984  2.1995 -2.5863 -0.6123
  192POPC  H13B22125   5.423   1.646   6.004  1.2193 -1.2835 -3.5437
  192POPC  H13C22126   5.368   1.712   5.861 -0.2520  0.2439 -0.2746
  192POPC   C1422127   5.164   1.861   5.954 -0.7336  0.6981  0.6908
  192POPC  H14A22128   5.063   1.861   5.993 -1.1384 -0.8040 -0.2917
  192POPC  H14B22129   5.213   1.953   5.982  0.3929 -0.0472  1.1622
  192POPC  H14C22130   5.157   1.846   5.847  1.8012 -0.7960  0.6969
  192POPC   C1522131   5.247   1.795   6.166 -0.7621 -0.0705  1.4505
  192POPC  H15A22132   5.300   1.887   6.185  0.6316 -0.1406 -1.8027
  192POPC  H15B22133   5.301   1.725   6.229  1.8513  0.1718 -0.4514
  192POPC  H15C22134   5.147   1.795   6.206 -1.0827  0.9113  0.6369
  192POPC   C1122135   5.008   1.617   6.057  0.6035 -0.7495  0.6087
  192POPC  H11A22136   4.969   1.516   6.031 -2.3325  0.3293  0.7158
  192POPC  H11B22137   4.955   1.693   5.996 -0.1424 -0.7231  1.2828
  192POPC     P22138   4.997   1.558   6.305 -0.0550 -0.2034 -0.2896
  192POPC   O1322139   5.144   1.551   6.349  0.4161  0.5579  0.1031
  192POPC   O1422140   4.932   1.433   6.268 -0.5244  0.0732 -0.1697
  192POPC   O1222141   4.992   1.659   6.193  0.5763  0.4950  0.7993
  192POPC   O1122142   4.897   1.623   6.412  0.7796  0.7311  0.5399
  192POPC    C122143   4.912   1.755   6.451 -0.4953 -0.0453  0.1073
  192POPC    HA22144   4.808   1.793   6.451 -0.1139  1.0340 -1.6320
  192POPC    HB22145   4.975   1.821   6.387 -0.5182  0.5085  0.6485
  192POPC    C222146   4.950   1.777   6.610  0.3125 -0.3992  0.0051
  192POPC    HS22147   4.947   1.884   6.640 -1.1914  0.5591 -3.2814
  192POPC   O2122148   5.076   1.724   6.641 -0.2506  0.1574 -0.4620
  192POPC   C2122149   5.178   1.766   6.572 -0.2844 -0.8196  0.6535
  192POPC   O2222150   5.175   1.854   6.489  0.7065  0.3012  0.0401
  192POPC   C2222151   5.302   1.679   6.605 -0.4211  0.7918 -0.7854
  192POPC   H2R22152   5.345   1.655   6.506  0.7795  1.7441 -0.5028
  192POPC   H2S22153   5.257   1.582   6.636  1.3525  1.0737  2.9036
  192POPC    C322154   4.837   1.709   6.700  0.7271 -0.0054  0.3410
  192POPC    HX22155   4.818   1.602   6.679  1.1980 -0.2064  0.9052
  192POPC    HY22156   4.749   1.765   6.663  1.0666 -1.1393 -2.2337
  192POPC   O3122157   4.861   1.747   6.839 -1.1841 -0.1063 -0.2295
  192POPC   C3122158   4.815   1.655   6.930  0.4767 -0.6340  0.5550
  192POPC   O3222159   4.748   1.560   6.897  0.0305  0.2520 -0.0793
  192POPC   C3222160   4.863   1.684   7.068  0.6632  0.7326  0.2614
  192POPC   H2X22161   4.820   1.782   7.096  0.3114  0.3616  1.0346
  192POPC   H2Y22162   4.973   1.701   7.067  0.4203  2.5961  2.1514
  192POPC   C2322163   5.393   1.736   6.708 -0.0273  0.3574 -0.5574
  192POPC   H3R22164   5.328   1.775   6.789  1.2669 -0.0557  0.7161
  192POPC   H3S22165   5.439   1.825   6.661  0.9155  0.4503  0.4962
  192POPC   C2422166   5.489   1.628   6.771 -0.4119 -1.0097 -0.4147
  192POPC   H4R22167   5.555   1.608   6.683 -0.6767  0.4697 -0.9508
  192POPC   H4S22168   5.430   1.534   6.780  0.7093 -1.7521 -0.6475
  192POPC   C2522169   5.538   1.672   6.913  0.0679 -0.5030 -0.3048
  192POPC   H5R22170   5.579   1.776   6.914  1.0519 -0.8840 -0.1561
  192POPC   H5S22171   5.622   1.605   6.938 -1.1938 -1.9110  0.1921
  192POPC   C2622172   5.427   1.655   7.023 -0.0992  0.5972 -0.7776
  192POPC   H6R22173   5.404   1.547   7.031 -1.8999  1.0383  0.1418
  192POPC   H6S22174   5.335   1.707   6.991 -1.0370 -0.2355  0.5411
  192POPC   C2722175   5.471   1.716   7.156  0.0648 -0.3629 -0.6091
  192POPC   H7R22176   5.496   1.823   7.144  0.1161 -0.4313 -1.1433
  192POPC   H7S22177   5.567   1.672   7.193 -0.2844 -0.8529 -0.2789
  192POPC   C2822178   5.363   1.728   7.267 -0.7291  0.8372  0.7103
  192POPC   H8R22179   5.262   1.719   7.222  0.9152 -1.3221 -2.7685
  192POPC   H8S22180   5.373   1.827   7.315  1.5979  1.8749 -1.7874
  192POPC   C2922181   5.380   1.616   7.364 -0.0211  0.1287 -0.1048
  192POPC   H9122182   5.350   1.517   7.327 -1.5198  0.5085  0.0436
  192POPC  C21022183   5.397   1.626   7.499  0.7529  0.1797 -0.1715
  192POPC  H10122184   5.399   1.530   7.552  1.1614  0.8190  1.0050
  192POPC  C21122185   5.421   1.740   7.584 -0.6230  0.3513  0.1201
  192POPC  H11R22186   5.395   1.832   7.526  2.8119  1.7677  0.7278
  192POPC  H11S22187   5.530   1.745   7.600 -0.2745  0.6191 -2.1298
  192POPC  C21222188   5.347   1.753   7.717 -0.8347 -0.0381  0.0297
  192POPC  H12R22189   5.386   1.670   7.780 -0.4928 -0.5651 -0.8491
  192POPC  H12S22190   5.237   1.748   7.707 -1.1350  1.9339  1.9326
  192POPC  C21322191   5.372   1.888   7.786  0.3795  0.5778 -0.7007
  192POPC  H13R22192   5.346   1.974   7.721  0.4091  0.5008 -0.8151
  192POPC  H13S22193   5.476   1.892   7.825  0.2414  0.1830 -0.2844
  192POPC  C21422194   5.276   1.894   7.912 -0.6035 -0.4506 -0.3114
  192POPC  H14R22195   5.308   1.814   7.981  3.1810  1.0743 -0.1678
  192POPC  H14S22196   5.170   1.874   7.889 -1.3344  0.0585  2.4675
  192POPC  C21522197   5.286   2.027   7.986 -0.1236 -0.7319  0.0603
  192POPC  H15R22198   5.236   2.112   7.935 -2.8643 -1.6235  1.1308
  192POPC  H15S22199   5.395   2.045   7.991  0.5087 -4.1478 -0.3894
  192POPC  C21622200   5.245   2.008   8.134  0.9027 -0.8373  0.5014
  192POPC  H16R22201   5.307   1.925   8.175  1.8445  0.0928  0.9673
  192POPC  H16S22202   5.138   1.977   8.129  1.1525 -1.7045  0.4249
  192POPC  C21722203   5.265   2.126   8.229  0.7415  0.2077 -0.3289
  192POPC  H17R22204   5.231   2.095   8.331  2.2902 -3.2425 -0.7809
  192POPC  H17S22205   5.196   2.204   8.189 -1.4392 -1.2344  0.5187
  192POPC  C21822206   5.409   2.168   8.241 -0.0881 -0.4611  0.6393
  192POPC  H18R22207   5.478   2.089   8.280  1.1161  0.0627 -0.3792
  192POPC  H18S22208   5.423   2.252   8.312 -1.0482  0.0368  0.2364
  192POPC  H18T22209   5.446   2.205   8.143 -0.1028 -4.4130 -0.9631
  192POPC   C3322210   4.805   1.596   7.186 -0.6852  0.7415 -0.2102
  192POPC   H3X22211   4.843   1.492   7.176 -2.3661  0.3317 -2.6790
  192POPC   H3Y22212   4.696   1.581   7.172 -0.6749 -0.2525  0.7375
  192POPC   C3422213   4.827   1.660   7.324  0.2742 -0.1334 -0.1524
  192POPC   H4X22214   4.811   1.770   7.327 -2.9978 -0.5809  1.6247
  192POPC   H4Y22215   4.936   1.655   7.345  0.2863 -3.0830 -0.7122
  192POPC   C3522216   4.754   1.591   7.432  0.1530  0.0755  0.0995
  192POPC   H5X22217   4.777   1.483   7.435 -0.1126 -0.0021 -0.6309
  192POPC   H5Y22218   4.645   1.604   7.415 -0.0280  0.6464  1.5677
  192POPC   C3622219   4.788   1.657   7.569  0.3205 -0.8453  0.3196
  192POPC   H6X22220   4.778   1.768   7.563  1.5378 -0.8173 -1.9026
  192POPC   H6Y22221   4.891   1.639   7.606 -0.2503 -2.3579  1.1931
  192POPC   C3722222   4.685   1.625   7.680  0.5150  0.9321  0.1661
  192POPC   H7X22223   4.680   1.518   7.710 -0.0532  1.5600  2.4129
  192POPC   H7Y22224   4.589   1.655   7.634  0.6321 -0.3750 -0.9681
  192POPC   C3822225   4.697   1.712   7.810  0.0414  0.1093  0.3974
  192POPC   H8X22226   4.602   1.712   7.868  0.4357  2.3983  1.1147
  192POPC   H8Y22227   4.704   1.819   7.781 -2.7133 -0.2073 -1.5908
  192POPC   C3922228   4.818   1.672   7.889 -0.0263 -0.3496  0.3086
  192POPC   H9X22229   4.908   1.675   7.823 -0.5925 -2.0889 -0.5708
  192POPC   H9Y22230   4.799   1.570   7.927 -0.9691 -0.6946 -1.0425
  192POPC  C31022231   4.833   1.784   7.990  0.0630 -0.6877 -0.1351
  192POPC  H10X22232   4.823   1.889   7.956 -0.9612 -0.6802  0.1777
  192POPC  H10Y22233   4.938   1.774   8.026 -0.0409  2.6057  1.2440
  192POPC  C31122234   4.736   1.776   8.106 -0.4398  0.1420  0.5915
  192POPC  H11X22235   4.712   1.668   8.116 -2.6794  0.5612  0.1385
  192POPC  H11Y22236   4.637   1.822   8.083 -1.0418 -0.5433  1.7604
  192POPC  C31222237   4.792   1.834   8.236  0.0181 -0.4200  0.0707
  192POPC  H12X22238   4.798   1.945   8.235 -0.1491 -0.3858  2.0935
  192POPC  H12Y22239   4.896   1.795   8.247  1.0133  2.0753 -0.0764
  192POPC  C31322240   4.707   1.815   8.361  0.4730  0.0055 -0.3135
  192POPC  H13X22241   4.614   1.876   8.364  2.6806  3.4354  2.8518
  192POPC  H13Y22242   4.769   1.839   8.450 -0.0069  1.8583 -0.4581
  192POPC  C31422243   4.664   1.667   8.376  0.2522  0.1571 -0.2723
  192POPC  H14X22244   4.599   1.637   8.291 -1.4085 -0.7908  1.2926
  192POPC  H14Y22245   4.586   1.663   8.455 -1.4131 -1.6543 -1.9437
  192POPC  C31522246   4.787   1.572   8.401 -0.1266  0.1534 -0.8144
  192POPC  H15X22247   4.832   1.616   8.493 -0.1663  2.5972 -1.9020
  192POPC  H15Y22248   4.871   1.576   8.328  0.7133 -2.0658 -0.0113
  192POPC  C31622249   4.739   1.425   8.406 -1.2475 -0.5325 -0.6454
  192POPC  H16X22250   4.821   1.359   8.441 -0.9042 -0.1176 -0.6677
  192POPC  H16Y22251   4.685   1.382   8.319 -1.7891  0.2057 -0.6783
  192POPC  H16Z22252   4.663   1.423   8.488  0.7842 -1.3034  1.2633
  193SOD    SOD22253   1.880   6.716   1.097  0.2987 -0.0840  0.6923
  194SOD    SOD22254   3.156   3.413   4.730 -0.1550  0.1384 -0.0161
  195SOD    SOD22255   0.545   3.767   5.465 -0.1822  0.1994  0.1151
  196SOD    SOD22256   4.505   1.325  13.804 -0.3255  0.3350  0.0582
  197SOD    SOD22257   2.108   1.042   6.408  0.0991 -0.1400  0.0852
  198SOD    SOD22258   5.332   3.120   5.445  0.1812 -0.1403 -0.0678
  199SOD    SOD22259   0.344   0.447  13.680  0.0954 -0.8949  0.1204
  200SOD    SOD22260   4.784   5.343   0.676 -0.2915 -0.0962  0.2504
  201SOD    SOD22261   0.575   5.423  16.444 -0.4523 -0.4053 -0.2191
  202SOD    SOD22262   5.271   4.660  12.434 -0.4030 -0.3956  0.5398
  203SOD    SOD22263   3.655   1.067   3.746 -0.3957  0.2897  0.1391
  204SOD    SOD22264   4.149   6.554   1.363  0.5263 -0.2864 -0.4712
  205SOD    SOD22265   5.381   3.204  13.145  0.3872 -0.1374 -0.8294
  206SOD    SOD22266   3.256   6.324   4.407  0.1918  0.1211  0.0796
  207SOD    SOD22267   0.016   5.641   6.534  0.0519 -0.0905 -0.5292
  208SOD    SOD22268   2.693   1.620   2.290  0.4074 -0.0991 -0.4441
  209SOD    SOD22269   3.781   6.155   5.481 -0.0189 -0.1676 -0.1297
  210SOD    SOD22270   6.556   6.129   5.866 -0.3869  0.1562  0.2543
  211SOD    SOD22271   6.690   4.769   5.362 -0.0921 -0.5556  0.1484
  212SOD    SOD22272   1.915   2.958   1.146  0.4775 -0.0231  0.0473
  213SOD    SOD22273   4.564   4.989   1.359 -0.6737 -0.4844 -0.2345
  214SOD    SOD22274   2.884   4.678   4.711 -0.4028 -0.3942 -0.4259
  215SOD    SOD22275   5.117   6.564  15.355  0.0039  0.1260  0.1372
  216SOD    SOD22276   1.749   5.178  14.022  0.2067 -0.1306 -0.1017
  217SOD    SOD22277   0.708   6.602   4.012 -0.0922 -0.0158 -0.6107
  218SOD    SOD22278   5.540   1.293  15.791  0.5157 -0.0774 -0.0252
  219SOD    SOD22279   3.889   1.764  11.055  0.1112 -0.1168 -0.2474
  220SOD    SOD22280   3.834   0.346  16.320  0.1139 -0.1487 -0.4644
  221SOD    SOD22281   0.839   2.260   0.166 -0.0224  0.2029  0.1610
  222SOD    SOD22282   0.195   1.401  10.980 -0.0418 -0.1515  0.0651
  223SOD    SOD22283   1.907   3.883   6.419  0.2563 -0.7122  0.0146
  224SOD    SOD22284   5.365   1.627   3.904  0.2774  0.1813  0.2338
  225SOD    SOD22285   5.783   3.028  16.554 -0.5122 -0.5774 -0.1299
  226SOD    SOD22286   2.160   1.899   2.895 -0.0255 -0.7826 -0.1621
  227SOD    SOD22287   3.106   4.032   6.165 -0.3840 -0.0033 -0.1291
  228SOD    SOD22288   4.733   6.226  13.423 -0.3847  0.0225  0.1683
  229SOD    SOD22289   4.885   5.407   3.298  0.3971 -0.6760  0.4105
  230SOD    SOD22290   5.192   1.265  10.725 -0.0251 -0.5141 -0.2795
  231SOD    SOD22291   4.290   0.722  10.810  0.3554  0.2559 -0.3369
  232SOD    SOD22292   1.134   1.870  11.064 -0.2681 -0.2037  0.5357
  233SOD    SOD22293   1.960   1.859  13.721  0.3166 -0.5911  0.0722
  234SOD    SOD22294   2.373   6.675  15.491  0.2981 -0.2550  0.2285
  235SOD    SOD22295   3.127   4.247  11.913  0.1758 -0.1953 -0.3941
  236SOD    SOD22296   3.772   1.120  13.280 -0.3040 -0.0553 -0.0730
  237SOD    SOD22297   4.851   6.094  15.089 -0.3202 -0.1031 -0.0845
  238SOD    SOD22298   6.359   2.405   0.947  0.2401  0.1724 -0.5002
  239SOD    SOD22299   1.864   3.715  16.258  0.3384  0.1731  0.1475
  240SOD    SOD22300   2.267   1.158  12.356 -0.0040  0.2074 -0.0807
  241SOD    SOD22301   1.355   0.468   3.936  0.4512 -0.2008 -0.1093
  242SOD    SOD22302   1.876   6.669   4.186  0.1456 -0.2841 -0.4423
  243SOD    SOD22303   2.970   4.078  11.531  0.0263 -0.5825 -0.2446
  244SOD    SOD22304   3.567   4.884  14.186 -0.1108 -0.7554  0.5091
  245SOD    SOD22305   5.468   3.342   2.031 -0.7729  0.4052  0.2290
  246SOD    SOD22306   1.017   5.274   1.134  0.0922 -0.6575 -0.5172
  247SOD    SOD22307   0.792   6.417  15.404 -0.0661 -0.3868  0.1897
  248SOD    SOD22308   4.663   2.999  13.416  0.6088 -0.3115 -0.1681
  249SOD    SOD22309   6.567   4.825   3.659 -0.1980 -0.7033  0.2533
  250SOD    SOD22310   3.306   5.231   4.484  0.2163  0.4199 -0.1100
  251SOD    SOD22311   0.458   1.468   4.541  0.2143  0.2453 -0.3301
  252SOD    SOD22312   1.370   0.016   4.470 -0.2870  0.4059  0.4332
  253SOD    SOD22313   6.553   5.846  12.202 -0.0966 -0.1432 -0.2829
  254SOD    SOD22314   3.716   5.633   6.197  0.5467  0.1988 -0.4778
  255SOD    SOD22315   5.877   2.709  11.245 -0.2714 -0.1773  0.7054
  256SOD    SOD22316   1.358   5.441   3.235 -0.1306  0.1485  0.2899
  257SOD    SOD22317   3.777   4.417  15.604  0.7862  0.2241  0.1281
  258SOD    SOD22318   1.859   4.642  14.917 -0.2899  0.0365  0.4933
  259SOD    SOD22319   1.515   2.960  17.072  0.3979  0.2062  0.3468
  260SOD    SOD22320   1.092   3.360  11.834  0.0710 -0.2717  0.1982
  261SOD    SOD22321   0.231   0.599   1.225 -0.2290 -0.0712 -0.2422
  262SOD    SOD22322   1.336   3.627   4.885  0.3430  0.1325  0.1069
  263SOD    SOD22323   1.778   4.196   0.024 -0.4859  0.5580 -0.0151
  264SOD    SOD22324   3.083   1.557   3.993  0.5536 -0.8499  0.6610
  265SOD    SOD22325   4.908   2.438   0.886  0.2147 -0.3599 -0.1874
  266SOD    SOD22326   1.352   1.028  11.695 -0.3622 -0.3303  0.0769
  267SOD    SOD22327   5.960   6.299  12.354 -0.1137  0.3296  0.2046
  268SOD    SOD22328   5.407   4.340   6.619  0.0097 -0.4188 -0.3025
  269SOD    SOD22329   4.156   2.898  13.620  0.1027 -0.2763 -0.3895
  270CLA    CLA22330   3.141   0.653   1.719  0.0492 -0.2296 -0.2506
  271CLA    CLA22331   2.356   3.964  11.630  0.2119  0.0741  0.2810
  272CLA    CLA22332   4.577   4.619   3.567  0.2121  0.3954 -0.1322
  273CLA    CLA22333   1.887   0.645  12.950  0.1238 -0.0380  0.4067
  274CLA    CLA22334   1.031   0.471   4.798 -0.3086 -0.2856  0.0672
  275CLA    CLA22335   4.983   5.858   0.153 -0.1212 -0.5441 -0.0002
  276CLA    CLA22336   0.183   1.067   0.994  0.2332  0.3982  0.0572
  277CLA    CLA22337   1.905   0.089   0.873 -0.3428  0.2330  0.0719
  278CLA    CLA22338   5.862   5.334   0.360 -0.0077  0.0392 -0.2510
  279CLA    CLA22339   2.870   5.717  16.692 -0.2500 -0.2994 -0.2794
  280CLA    CLA22340   1.828   6.256   1.029  0.0100  0.1152  0.0798
  281CLA    CLA22341   4.093   4.638   0.298 -0.1057 -0.0609 -0.0246
  282CLA    CLA22342   4.217   0.733  17.007 -0.1098 -0.1940  0.5084
  283CLA    CLA22343   5.275   4.545   3.846  0.0183  0.0180  0.1506
  284CLA    CLA22344   0.646   0.101  13.706 -0.0957  0.1654 -0.1622
  285CLA    CLA22345   1.707   4.716  14.672 -0.3894  0.0814 -0.2026
  286CLA    CLA22346   4.388   1.181  13.582 -0.4798 -0.1347 -0.2685
  287CLA    CLA22347   2.165   3.156  14.433 -0.0649  0.1095 -0.2558
  288CLA    CLA22348   0.296   2.146  12.517  0.3648  0.2284  0.1006
  289CLA    CLA22349   6.584   2.195   5.186  0.0060  0.3462  0.2776
  290CLA    CLA22350   6.027   3.677  11.775 -0.4321  0.1655 -0.0401
  291CLA    CLA22351   4.846   6.397   3.964 -0.4270 -0.2446  0.0083
  292CLA    CLA22352   2.432   3.249   2.367 -0.1780 -0.0745 -0.1668
  293CLA    CLA22353   6.680   0.533  15.786  0.2922  0.2654  0.0335
  294CLA    CLA22354   2.427   4.770  16.464  0.3515 -0.3250  0.2944
  295CLA    CLA22355   4.692   4.610  14.077 -0.1303 -0.3131 -0.3176
  296CLA    CLA22356   1.276   3.135   5.107  0.1326 -0.0632  0.0416
  297CLA    CLA22357   5.741   1.645  12.547 -0.0808 -0.4581 -0.0057
  298CLA    CLA22358   5.810   6.713   3.590  0.0344  0.3362 -0.2481
  299CLA    CLA22359   2.158   1.369   2.046 -0.3054 -0.0889 -0.0243
  300CLA    CLA22360   6.373   2.181   0.250 -0.0891  0.0660  0.6453
  301CLA    CLA22361   5.805   0.594   4.773 -0.2225 -0.0731 -0.0378
  302CLA    CLA22362   1.010   2.099   2.892  0.2683 -0.4258  0.0341
  303CLA    CLA22363   5.131   0.717   2.593 -0.3331  0.2934 -0.1579
  304CLA    CLA22364   3.412   6.237  15.009  0.2537  0.3067 -0.2408
  305CLA    CLA22365   0.081   3.933   5.455 -0.0792 -0.2997 -0.2102
  306CLA    CLA22366   3.074   3.850   1.324 -0.1402 -0.1532 -0.2499
  307CLA    CLA22367   1.109   4.813   3.152 -0.3329  0.3009  0.3448
  308CLA    CLA22368   4.256   0.749  12.755  0.0286 -0.1328 -0.0978
  309CLA    CLA22369   2.016   1.069   3.430 -0.2000 -0.0328  0.3504
  310CLA    CLA22370   1.749   3.019  16.288  0.1435  0.2331 -0.4174
  311CLA    CLA22371   1.258   3.180  15.973  0.2168 -0.0133  0.1179
  312CLA    CLA22372   3.020   1.169  11.898 -0.1338  0.0990  0.0300
  313CLA    CLA22373   5.115   0.197  16.701 -0.1696  0.2152 -0.3699
  314CLA    CLA22374   2.922   5.621  12.468  0.4120  0.0196  0.4110
  315CLA    CLA22375   2.114   5.517   4.980  0.3298 -0.2161 -0.0288
  316CLA    CLA22376   5.547   6.130  17.088 -0.1700  0.1453 -0.2376
  317CLA    CLA22377   1.232   4.489   1.062 -0.3112  0.4903 -0.2216
  318CLA    CLA22378   4.858   5.636   1.476 -0.1711  0.1746  0.2515
  319CLA    CLA22379   3.376   5.814  14.418  0.0357  0.0542  0.1126
  320CLA    CLA22380   6.182   0.041   1.795  0.2326  0.2291 -0.0797
  321CLA    CLA22381   0.713   1.080   0.294 -0.0902  0.0352 -0.0203
  322CLA    CLA22382   3.959   4.706  16.525  0.1673 -0.2762 -0.1895
  323TIP3   OH222383   6.233   5.418   4.600 -0.7183 -0.1211 -0.6793
  323TIP3    H122384   6.249   5.443   4.691 -3.0909 -1.0869  0.0417
  323TIP3    H222385   6.320   5.405   4.563  0.2658 -0.8028  1.7883
  324TIP3   OH222386   3.610   0.023   2.543  1.1339  0.1557  0.4345
  324TIP3    H122387   3.545  -0.047   2.547 -0.4992  1.7063  2.2870
  324TIP3    H222388   3.625   0.036   2.449 -1.1220 -0.3514 -0.0317
  325TIP3   OH222389   1.599   6.676   5.610 -1.1051 -0.0592 -0.2283
  325TIP3    H122390   1.628   6.588   5.586  1.2548  0.8318 -0.8480
  325TIP3    H222391   1.649   6.697   5.689 -0.5063  1.2795 -0.9357
  326TIP3   OH222392   4.766   1.791  13.390 -0.1921 -0.0768 -0.1361
  326TIP3    H122393   4.835   1.850  13.360 -0.1984 -0.2210 -0.4451
  326TIP3    H222394   4.812   1.716  13.427 -0.1788 -0.3179 -0.6337
  327TIP3   OH222395   0.403   5.980  15.174  0.1629 -0.3396  0.5377
  327TIP3    H122396   0.311   5.961  15.195 -0.0078  0.6289  0.6797
  327TIP3    H222397   0.412   5.958  15.081  0.0837 -1.5227  0.8015
  328TIP3   OH222398   0.255   0.675   6.040  0.1725 -0.1774 -0.2315
  328TIP3    H122399   0.276   0.767   6.025 -0.8672  0.1852  0.4212
  328TIP3    H222400   0.173   0.661   5.993  0.3532 -0.7894 -0.3734
  329TIP3   OH222401   1.212   6.778  13.899  0.2575  0.4958  0.5068
  329TIP3    H122402   1.246   6.838  13.832  1.3860  0.0978  0.7160
  329TIP3    H222403   1.196   6.834  13.975  0.5783  0.6615  0.4536
  330TIP3   OH222404   2.479   0.500   1.324 -0.4973 -0.4608 -0.7282
  330TIP3    H122405   2.562   0.452   1.319  0.1418  0.5386  0.0722
  330TIP3    H222406   2.434   0.463   1.399  0.6102  1.1004  0.7517
  331TIP3   OH222407   2.192   3.035  11.027  0.0178 -0.2515  0.3279
  331TIP3    H122408   2.282   3.007  11.042  0.0417  0.0084  0.6722
  331TIP3    H222409   2.139   2.958  11.046  0.2673 -0.8886 -1.4261
  332TIP3   OH222410   0.525   0.559  13.152 -0.1570  0.4178  0.0655
  332TIP3    H122411   0.569   0.627  13.204  1.1367 -0.4890  0.1757
  332TIP3    H222412   0.572   0.559  13.068  0.4332 -0.9350  0.3801
  333TIP3   OH222413   6.112   6.471  16.097  0.3033  0.1649 -0.0103
  333TIP3    H122414   6.040   6.498  16.153 -0.0771 -0.2160 -0.3186
  333TIP3    H222415   6.128   6.547  16.040 -1.9947 -0.8911 -2.1441
  334TIP3   OH222416   2.772   2.371   2.705 -0.0227 -0.5531 -0.6322
  334TIP3    H122417   2.768   2.452   2.654 -2.0419 -0.2502 -0.0042
  334TIP3    H222418   2.784   2.302   2.639  1.4487  0.2054 -1.1852
  335TIP3   OH222419   6.744   3.571   0.916  0.6030  0.3369 -0.4008
  335TIP3    H122420   6.699   3.652   0.938  1.5656  0.8526 -0.3075
  335TIP3    H222421   6.837   3.593   0.921  0.8610 -0.3193 -2.0264
  336TIP3   OH222422   6.219   1.214  13.679 -0.5752 -0.1756 -0.1442
  336TIP3    H122423   6.157   1.186  13.611 -0.6450 -2.3213  0.7563
  336TIP3    H222424   6.302   1.225  13.633 -1.4134  1.9405 -1.2196
  337TIP3   OH222425   1.698   1.845   3.483 -0.1877  0.3798  0.4463
  337TIP3    H122426   1.661   1.817   3.399  0.9993 -1.8786  0.6564
  337TIP3    H222427   1.622   1.871   3.535 -1.1535 -0.6495 -0.4221
  338TIP3   OH222428   0.266   1.724   0.977 -0.4602 -0.0616 -0.0073
  338TIP3    H122429   0.343   1.749   1.029 -0.1474 -0.1233 -0.4366
  338TIP3    H222430   0.262   1.629   0.985 -0.6718 -0.0316  0.2618
  339TIP3   OH222431   2.712   6.635   3.841 -0.2259  0.4363  0.1993
  339TIP3    H122432   2.640   6.694   3.863 -1.2236  0.2035 -2.2219
  339TIP3    H222433   2.787   6.693   3.826 -0.8480  0.9829 -0.8153
  340TIP3   OH222434   0.216   3.166   1.898 -0.2612  0.4546  0.3303
  340TIP3    H122435   0.283   3.234   1.898 -0.7941  0.9862 -0.8312
  340TIP3    H222436   0.136   3.210   1.926 -0.5049  0.2096  0.0350
  341TIP3   OH222437   4.824   0.932  16.433 -0.4507 -0.1336  0.0865
  341TIP3    H122438   4.876   1.006  16.465 -0.2103 -0.7845  1.2231
  341TIP3    H222439   4.889   0.867  16.404 -0.6461 -0.5169  0.5130
  342TIP3   OH222440   3.052   3.308  12.705  0.0455 -0.4447  0.3140
  342TIP3    H122441   3.071   3.240  12.770  0.1841 -0.9877 -0.2788
  342TIP3    H222442   3.126   3.303  12.644 -0.7988 -0.9578 -0.6980
  343TIP3   OH222443   1.946   2.596  16.415 -0.1881  0.4243 -0.3578
  343TIP3    H122444   1.914   2.534  16.481  0.3069 -0.1608 -0.6696
  343TIP3    H222445   1.903   2.569  16.334  0.5077  0.1046 -0.6240
  344TIP3   OH222446   5.468   4.623  13.215 -0.6492 -0.2329  0.5519
  344TIP3    H122447   5.402   4.667  13.161  1.1889  0.4364 -1.2381
  344TIP3    H222448   5.421   4.550  13.256 -2.5019  0.2659 -0.6124
  345TIP3   OH222449   0.390   3.816  12.729  0.4072  0.8505  0.3209
  345TIP3    H122450   0.328   3.887  12.715 -0.7705 -0.1426  0.5028
  345TIP3    H222451   0.443   3.814  12.649  0.0529  1.5355  0.0671
  346TIP3   OH222452   3.191   4.940   0.871 -0.4973  0.3109 -0.4111
  346TIP3    H122453   3.240   5.014   0.834  0.2093  0.5612  1.0148
  346TIP3    H222454   3.108   4.941   0.823  0.6084  0.2844 -2.3902
  347TIP3   OH222455   0.463   3.582   1.678 -0.6334  1.0595  0.7159
  347TIP3    H122456   0.444   3.598   1.585 -0.7331  2.2838  0.9345
  347TIP3    H222457   0.555   3.606   1.687  0.1772 -1.7935  0.3391
  348TIP3   OH222458   1.807   1.535   4.088  0.0632  0.2923 -0.4183
  348TIP3    H122459   1.833   1.575   4.004 -1.7879  0.0509 -1.1413
  348TIP3    H222460   1.813   1.441   4.072 -1.9986  0.2270 -0.8555
  349TIP3   OH222461   1.630   4.701   3.359  0.2834 -0.6549  0.6809
  349TIP3    H122462   1.726   4.697   3.358  0.2162 -3.3130 -0.8945
  349TIP3    H222463   1.602   4.609   3.361 -2.2158 -0.0145 -1.4092
  350TIP3   OH222464   4.689   1.764  11.432  0.1836 -0.0437  0.1394
  350TIP3    H122465   4.678   1.781  11.338 -0.1001  0.4362  0.2600
  350TIP3    H222466   4.782   1.746  11.442 -0.0949 -2.0619 -0.5531
  351TIP3   OH222467   0.615   5.317  15.336  0.4000  0.2842  0.0067
  351TIP3    H122468   0.539   5.373  15.321  0.0032 -0.2651 -0.0542
  351TIP3    H222469   0.624   5.266  15.255  0.9136  0.4490 -0.0375
  352TIP3   OH222470   6.643   4.440  13.295 -0.4789  0.0971 -0.2079
  352TIP3    H122471   6.563   4.484  13.326  0.6623  2.0752 -0.0221
  352TIP3    H222472   6.709   4.509  13.294  1.1654 -1.4721 -0.6433
  353TIP3   OH222473   4.544   1.928   2.829 -0.4652 -0.3201  0.3778
  353TIP3    H122474   4.449   1.927   2.821 -0.4298  2.2119 -0.9504
  353TIP3    H222475   4.575   1.867   2.762 -1.1273 -0.7417  0.4534
  354TIP3   OH222476   5.335   5.974   4.100  0.0597  0.2512  0.4617
  354TIP3    H122477   5.336   6.038   4.029 -0.6949  0.0816  0.2944
  354TIP3    H222478   5.426   5.947   4.110  0.0060 -0.5311 -1.1564
  355TIP3   OH222479   3.725   3.072   5.151  0.1292 -0.0486 -0.0544
  355TIP3    H122480   3.693   2.986   5.124  0.8501 -0.7389  1.2237
  355TIP3    H222481   3.821   3.064   5.147  0.1960  0.7183  0.0019
  356TIP3   OH222482   2.129   1.207  16.026 -0.3860 -0.3191  0.0667
  356TIP3    H122483   2.208   1.200  15.973 -0.7465  0.2830 -0.5672
  356TIP3    H222484   2.138   1.291  16.071 -0.6498 -0.2572  0.0066
  357TIP3   OH222485   0.498   6.239  11.573  0.4082 -0.0158  0.3742
  357TIP3    H122486   0.555   6.169  11.542  1.0489  0.2068  1.0208
  357TIP3    H222487   0.449   6.267  11.496  0.9086 -0.4614 -0.1078
  358TIP3   OH222488   5.605   2.313  14.059 -0.1771  0.2626 -0.5889
  358TIP3    H122489   5.661   2.264  13.998  0.8692 -0.5482  0.9788
  358TIP3    H222490   5.661   2.385  14.090  0.4472 -1.2263  1.8774
  359TIP3   OH222491   1.057   3.722  15.450  0.0588 -0.1322  0.0310
  359TIP3    H122492   0.973   3.763  15.471  0.1060 -0.6098  1.1679
  359TIP3    H222493   1.102   3.716  15.534 -0.3322 -3.4060  0.0786
  360TIP3   OH222494   3.986   6.720   1.379  0.3890  0.2469  0.1584
  360TIP3    H122495   3.903   6.683   1.349  0.2319 -0.9412  1.9915
  360TIP3    H222496   3.963   6.804   1.418 -0.1092 -0.4888  1.4961
  361TIP3   OH222497   3.447   0.201  13.732  0.3199 -0.1725 -0.1187
  361TIP3    H122498   3.401   0.167  13.655  2.0755 -0.9464 -0.8520
  361TIP3    H222499   3.377   0.234  13.789 -1.0719 -0.4999 -1.5911
  362TIP3   OH222500   1.708   4.824   2.706  0.1761 -0.2255 -0.0572
  362TIP3    H122501   1.631   4.769   2.689  0.5189 -1.0894  1.1387
  362TIP3    H222502   1.738   4.797   2.793  1.7222  0.2455 -0.4345
  363TIP3   OH222503   5.310   4.229   2.230  0.2096 -0.6031 -0.4025
  363TIP3    H122504   5.392   4.195   2.192  0.0939  0.8158 -1.9605
  363TIP3    H222505   5.336   4.310   2.274  0.0701 -1.4718  1.3216
  364TIP3   OH222506   1.117   1.300   4.973 -0.3246 -0.0542 -0.4919
  364TIP3    H122507   1.074   1.214   4.975  0.3099 -0.4493 -2.5285
  364TIP3    H222508   1.199   1.285   4.925 -0.0871  1.6295 -0.6446
  365TIP3   OH222509   4.577   4.828   1.197 -0.7702 -0.2867 -0.0401
  365TIP3    H122510   4.631   4.861   1.125 -0.3752  1.6174  1.0704
  365TIP3    H222511   4.582   4.733   1.190  2.0199 -0.1460 -0.5255
  366TIP3   OH222512   1.713   1.265  11.770 -0.1329 -0.5023 -0.0862
  366TIP3    H122513   1.718   1.229  11.859  1.8772  0.2655  0.1362
  366TIP3    H222514   1.620   1.262  11.749 -0.7222 -0.2060  2.2558
  367TIP3   OH222515   5.203   4.251   0.835  0.1160 -0.2728  0.8727
  367TIP3    H122516   5.114   4.283   0.845  0.5551  0.7165  1.6698
  367TIP3    H222517   5.237   4.298   0.759 -0.5191 -1.7342 -0.3275
  368TIP3   OH222518   3.318   6.371  11.945  0.4024 -0.5889  0.5495
  368TIP3    H122519   3.378   6.381  12.020 -0.0796  0.0709  0.8571
  368TIP3    H222520   3.252   6.439  11.959  0.9961  0.3687 -1.1411
  369TIP3   OH222521   2.665   1.966  12.999 -1.0376 -0.5433  0.0012
  369TIP3    H122522   2.712   1.992  13.078 -1.3446  0.5335 -0.1645
  369TIP3    H222523   2.573   1.982  13.019 -1.0680  0.3746 -0.7927
  370TIP3   OH222524   3.110   5.258  12.173 -0.5851  0.0449  0.1895
  370TIP3    H122525   3.064   5.244  12.256 -2.5395  1.0041 -0.6986
  370TIP3    H222526   3.195   5.294  12.198 -0.8839 -0.3164  1.7987
  371TIP3   OH222527   6.674   1.730   4.856 -0.3718  0.5076 -0.3166
  371TIP3    H122528   6.728   1.809   4.865 -1.5555  1.2778  0.1196
  371TIP3    H222529   6.736   1.658   4.867  0.5359  1.3801  0.4267
  372TIP3   OH222530   2.299   3.309  12.442  0.1939  0.4046 -0.0472
  372TIP3    H122531   2.209   3.322  12.470  0.3886  0.7689  0.4296
  372TIP3    H222532   2.299   3.226  12.395 -0.0305 -0.5068  1.5520
  373TIP3   OH222533   0.321   2.549   3.878 -0.1340 -0.1197 -0.2292
  373TIP3    H122534   0.386   2.480   3.892  0.7711  0.4624 -1.4826
  373TIP3    H222535   0.248   2.505   3.835  0.2793 -0.3629 -0.6784
  374TIP3   OH222536   4.076   1.452   4.373  0.5025  0.5350  0.0390
  374TIP3    H122537   4.138   1.506   4.423 -0.2778  2.3637 -0.8948
  374TIP3    H222538   3.990   1.484   4.398  0.1081  2.4228 -3.3368
  375TIP3   OH222539   5.057   4.187   3.407  0.1901  0.2481  0.3263
  375TIP3    H122540   4.980   4.157   3.457 -1.3050  1.5166 -1.1529
  375TIP3    H222541   5.120   4.213   3.474 -0.4098 -1.3978  1.5812
  376TIP3   OH222542   5.698   0.515   1.370  0.0281  0.0078 -0.1884
  376TIP3    H122543   5.646   0.439   1.394  0.7217 -0.3894  0.0618
  376TIP3    H222544   5.715   0.559   1.454  0.9744 -0.4268 -0.1563
  377TIP3   OH222545   0.991   4.108  15.069  0.3801 -0.0600 -0.2477
  377TIP3    H122546   0.986   4.058  15.150  1.8297 -0.5523 -0.4449
  377TIP3    H222547   0.907   4.093  15.027  0.0475 -0.7336  0.6291
  378TIP3   OH222548   0.312   2.449   2.890  0.0904 -0.0033 -0.1650
  378TIP3    H122549   0.372   2.472   2.961 -0.6185  0.2550  0.3488
  378TIP3    H222550   0.360   2.384   2.838  0.3641 -0.6752  0.9242
  379TIP3   OH222551   5.340   5.698  11.655 -0.0291  0.2900  0.3004
  379TIP3    H122552   5.325   5.663  11.567 -1.3199  1.5921 -0.0272
  379TIP3    H222553   5.392   5.631  11.699  0.6838 -0.3545 -1.4723
  380TIP3   OH222554   4.641   2.328   5.790 -0.0751 -0.4066 -0.7734
  380TIP3    H122555   4.600   2.282   5.863  0.8002 -1.6328 -1.0512
  380TIP3    H222556   4.644   2.264   5.720  1.3107  0.0132 -1.1050
  381TIP3   OH222557   2.726   3.649  11.243 -0.0811  0.3320  0.0556
  381TIP3    H122558   2.713   3.744  11.244 -0.6466  0.2819 -1.4538
  381TIP3    H222559   2.642   3.614  11.213  0.6910 -0.5359 -1.1305
  382TIP3   OH222560   4.188   3.431  15.272 -0.6014 -0.0767 -0.3657
  382TIP3    H122561   4.125   3.409  15.341  0.4919  1.1439  1.0783
  382TIP3    H222562   4.248   3.356  15.270  0.4889  0.7025  1.4057
  383TIP3   OH222563   1.832   3.953  12.837  0.4178  0.1602 -0.1559
  383TIP3    H122564   1.861   4.038  12.870 -0.5548  0.8999 -1.1611
  383TIP3    H222565   1.740   3.967  12.814  0.2909 -1.1354 -0.4331
  384TIP3   OH222566   3.006   6.346   5.284 -0.2361 -0.1138 -0.1348
  384TIP3    H122567   2.937   6.283   5.308  0.7697 -1.0315  0.3836
  384TIP3    H222568   2.965   6.432   5.298 -1.4720 -0.6486 -0.4071
  385TIP3   OH222569   5.123   0.099   4.147 -0.0199  0.0723 -0.7539
  385TIP3    H122570   5.162   0.167   4.093  0.5121  0.6652  0.3525
  385TIP3    H222571   5.175   0.099   4.228 -0.4098 -1.2112 -0.4806
  386TIP3   OH222572   5.277   4.441   0.563 -0.1600  0.0947 -0.6265
  386TIP3    H122573   5.289   4.458   0.470 -0.8600 -0.1369 -0.7622
  386TIP3    H222574   5.366   4.437   0.599  0.1950 -2.3366 -1.7245
  387TIP3   OH222575   3.785   5.981   4.127  0.0792  0.3073  0.2542
  387TIP3    H122576   3.814   6.063   4.087  2.1103 -0.6522 -0.3263
  387TIP3    H222577   3.830   5.979   4.212 -0.8634  0.3226  0.7599
  388TIP3   OH222578   6.322   4.610   1.350 -0.5028  0.4231  0.0005
  388TIP3    H122579   6.301   4.643   1.437  0.8194  1.7800 -0.1776
  388TIP3    H222580   6.392   4.547   1.365 -1.5131 -0.7039  0.0949
  389TIP3   OH222581   1.877   1.647   3.480  0.7030 -1.2483  0.4802
  389TIP3    H122582   1.838   1.707   3.543  1.2290  0.2848 -0.6025
  389TIP3    H222583   1.884   1.699   3.399 -1.4200 -3.6169 -1.3157
  390TIP3   OH222584   3.677   5.305  11.003 -0.4639 -0.2811  0.9569
  390TIP3    H122585   3.738   5.284  10.931  0.3383  1.7049  1.0359
  390TIP3    H222586   3.696   5.396  11.024 -2.7284  0.0236  1.7427
  391TIP3   OH222587   6.194   5.672   0.394 -0.2234  0.5033  0.1355
  391TIP3    H122588   6.212   5.765   0.400  0.7557  0.3486 -0.2068
  391TIP3    H222589   6.279   5.630   0.410 -0.3636 -0.2827 -1.0537
  392TIP3   OH222590   2.623   2.052   1.341  0.2409  0.0995 -0.1862
  392TIP3    H122591   2.534   2.023   1.360  0.4642  0.0477  0.7943
  392TIP3    H222592   2.679   1.991   1.389  0.8145  0.0656 -0.8852
  393TIP3   OH222593   0.295   4.953  15.219 -0.9437  0.2585 -0.4118
  393TIP3    H122594   0.314   5.032  15.269 -2.0816  0.6076 -0.5174
  393TIP3    H222595   0.312   4.881  15.280 -5.3574  0.7469  1.5984
  394TIP3   OH222596   3.467   5.506  13.742 -0.4710 -0.4652 -0.0245
  394TIP3    H122597   3.502   5.593  13.724 -2.7503  0.7050  1.0047
  394TIP3    H222598   3.544   5.453  13.763  0.9209  1.3258 -0.4757
  395TIP3   OH222599   0.377   0.581   3.924  0.2504  0.0837 -0.3356
  395TIP3    H122600   0.322   0.652   3.958  1.6656  1.2594 -0.4628
  395TIP3    H222601   0.350   0.572   3.833 -0.6903 -0.2818 -0.0257
  396TIP3   OH222602   2.245   6.096   1.872  0.1159  0.5852  0.1397
  396TIP3    H122603   2.223   6.024   1.812  0.6139  0.8298 -0.3384
  396TIP3    H222604   2.194   6.171   1.840  0.2953  0.6866  0.0919
  397TIP3   OH222605   3.478   1.626   1.119  0.9757  0.2172 -0.2042
  397TIP3    H122606   3.432   1.704   1.151  1.7818  0.7406 -0.3072
  397TIP3    H222607   3.553   1.617   1.177  0.6660 -0.7240  0.0561
  398TIP3   OH222608   0.212   0.259   1.435  0.0903 -0.3746  0.3340
  398TIP3    H122609   0.145   0.238   1.370 -0.0687  1.2378 -0.0502
  398TIP3    H222610   0.294   0.230   1.395 -0.2999 -1.8116  0.5547
  399TIP3   OH222611   6.646   4.916  12.570 -0.7159  0.1492 -0.3122
  399TIP3    H122612   6.646   4.951  12.481 -3.2264 -1.1605 -0.8793
  399TIP3    H222613   6.554   4.894  12.587 -0.1477 -0.3930  2.3012
  400TIP3   OH222614   4.271   2.250   0.149  0.4600  0.1002 -0.2407
  400TIP3    H122615   4.179   2.234   0.173  0.0517  0.9065 -1.2441
  400TIP3    H222616   4.314   2.166   0.166 -0.5951 -0.4827 -0.3832
  401TIP3   OH222617   6.183   1.952   0.748  0.2322  0.6482 -0.0949
  401TIP3    H122618   6.269   1.917   0.771  0.3165  1.5477  0.9702
  401TIP3    H222619   6.164   1.912   0.663  0.6786 -1.3459  0.7132
  402TIP3   OH222620   4.943   3.784   5.660 -0.7725 -0.4271 -0.2183
  402TIP3    H122621   4.945   3.701   5.707  0.1465  1.0417  2.4360
  402TIP3    H222622   5.010   3.774   5.592  2.2972 -0.4924  2.6366
  403TIP3   OH222623   0.244   0.165  12.394 -0.0882 -0.2222 -0.0404
  403TIP3    H122624   0.185   0.141  12.323 -1.6973  0.6357  0.9700
  403TIP3    H222625   0.242   0.261  12.396  1.3840 -0.1733 -0.0172
  404TIP3   OH222626   4.374   3.061   4.732 -0.0576  0.2720 -0.4961
  404TIP3    H122627   4.376   3.157   4.738  0.1060  0.1989  0.7598
  404TIP3    H222628   4.293   3.041   4.685 -2.2663  0.8707  2.9050
  405TIP3   OH222629   2.872   5.137   1.238  0.0166 -0.0109 -0.1458
  405TIP3    H122630   2.901   5.070   1.176  0.3826  1.6321 -1.7819
  405TIP3    H222631   2.931   5.211   1.224 -1.0449  1.0663  0.8864
  406TIP3   OH222632   0.203   2.303  12.967 -0.5617  0.2001 -0.0843
  406TIP3    H122633   0.265   2.306  12.894 -0.9492  1.4324 -0.3900
  406TIP3    H222634   0.175   2.212  12.971  0.0840 -0.0490 -0.9573
  407TIP3   OH222635   0.753   2.848   0.846  0.0199 -0.5134 -0.2033
  407TIP3    H122636   0.664   2.882   0.850  0.5669  0.9004  0.2803
  407TIP3    H222637   0.809   2.926   0.852  1.2871 -1.3382 -0.9389
  408TIP3   OH222638   3.525   0.502  14.704 -0.1838  0.1088  0.7917
  408TIP3    H122639   3.576   0.525  14.627  1.8019 -0.1875  1.9961
  408TIP3    H222640   3.497   0.412  14.687  0.4120 -0.0271  0.5145
  409TIP3   OH222641   1.104   0.614  14.186  0.1333 -0.4907 -0.0740
  409TIP3    H122642   1.182   0.559  14.190  1.2301  1.1200  1.3681
  409TIP3    H222643   1.046   0.579  14.253  1.0875  0.4431  1.2731
  410TIP3   OH222644   1.201   0.800   2.249 -0.0348 -0.1075  0.1754
  410TIP3    H122645   1.209   0.847   2.332 -1.3549 -1.7788  1.2800
  410TIP3    H222646   1.225   0.865   2.183  1.9339  0.9935  1.8935
  411TIP3   OH222647   5.150   5.734  12.780 -0.3555  0.2634  0.1573
  411TIP3    H122648   5.176   5.645  12.756 -1.2984 -0.4553  1.7463
  411TIP3    H222649   5.073   5.722  12.835  0.0608  2.0289  1.1416
  412TIP3   OH222650   2.768   5.285   0.844 -0.2060  0.4639  0.5134
  412TIP3    H122651   2.714   5.303   0.921 -1.4593 -1.3360  0.0823
  412TIP3    H222652   2.743   5.353   0.781 -1.2688  0.2479  0.6827
  413TIP3   OH222653   0.402   1.495  14.150 -0.2266  0.5983 -0.7473
  413TIP3    H122654   0.347   1.425  14.186 -0.1305  0.1951 -1.3735
  413TIP3    H222655   0.484   1.488  14.199 -0.4041  0.6090 -0.4457
  414TIP3   OH222656   6.581   2.296  11.851  0.0288 -0.5780 -0.0880
  414TIP3    H122657   6.534   2.288  11.935  1.0180  0.2681  0.5541
  414TIP3    H222658   6.673   2.295  11.875  0.3158  1.0148 -1.0400
  415TIP3   OH222659   4.040   5.798   3.402  0.8711 -0.4303  0.2123
  415TIP3    H122660   4.000   5.731   3.457 -0.3099  1.1502  1.2865
  415TIP3    H222661   3.967   5.836   3.353  1.4765  0.3449 -0.0985
  416TIP3   OH222662   4.445   0.558  14.815  0.0467  0.2000 -0.5387
  416TIP3    H122663   4.468   0.622  14.882  0.0215  0.6203 -0.9249
  416TIP3    H222664   4.460   0.473  14.856  0.5257  0.4592 -0.1707
  417TIP3   OH222665   6.066   5.136  13.223 -0.2311  0.4649  0.0152
  417TIP3    H122666   6.046   5.085  13.145 -0.6275  1.8057 -0.7767
  417TIP3    H222667   6.160   5.124  13.236  0.2024  1.7790 -1.8057
  418TIP3   OH222668   5.360   6.682   4.267  0.1458  0.3136 -0.4891
  418TIP3    H122669   5.386   6.751   4.206  0.3381  1.3118  0.6860
  418TIP3    H222670   5.388   6.601   4.226  0.1296  0.9660 -1.7912
  419TIP3   OH222671   3.786   3.030   3.077 -0.0633 -0.7512  0.1099
  419TIP3    H122672   3.742   3.113   3.095 -1.1763 -0.9696 -1.5153
  419TIP3    H222673   3.731   2.964   3.119  0.1972 -0.7884  0.3997
  420TIP3   OH222674   1.744   5.724   2.549 -0.3802  0.2091 -0.3314
  420TIP3    H122675   1.722   5.631   2.540 -0.9139  0.3907 -0.8866
  420TIP3    H222676   1.661   5.770   2.535  0.1167  0.8382 -1.2742
  421TIP3   OH222677   2.317   5.425   3.543 -0.2445  0.1669 -0.1242
  421TIP3    H122678   2.312   5.361   3.472 -2.4338  1.4785 -1.2405
  421TIP3    H222679   2.402   5.467   3.531 -0.7077  0.5794 -2.2011
  422TIP3   OH222680   2.250   4.723   2.553  0.5160  0.3677 -0.6728
  422TIP3    H122681   2.187   4.672   2.503 -1.0867  1.7223 -0.0927
  422TIP3    H222682   2.281   4.791   2.492  0.2819  0.6216 -0.5101
  423TIP3   OH222683   0.431   5.397   1.022 -0.3867  0.0704 -0.8977
  423TIP3    H122684   0.486   5.467   0.985  2.0292 -1.5936 -0.5969
  423TIP3    H222685   0.480   5.367   1.099 -2.6954 -0.1870  0.5175
  424TIP3   OH222686   3.986   4.903  11.005 -0.2253  0.3205 -0.4763
  424TIP3    H122687   3.956   4.915  10.915  1.1050  0.2234 -0.9584
  424TIP3    H222688   4.024   4.988  11.029 -2.2597  0.9359  0.6840
  425TIP3   OH222689   2.552   0.800  13.410 -0.3978  0.3870 -0.8774
  425TIP3    H122690   2.579   0.714  13.441 -0.9928  0.1978 -0.8604
  425TIP3    H222691   2.456   0.793  13.403 -0.6248  1.5694  0.7626
  426TIP3   OH222692   6.069   6.309  10.759  0.2292  0.0437 -0.1300
  426TIP3    H122693   6.115   6.341  10.837 -1.9863 -0.6648  1.5297
  426TIP3    H222694   6.074   6.213  10.767  1.4587 -0.0465 -1.7778
  427TIP3   OH222695   4.955   3.138   4.362 -0.2837 -0.1806  0.2795
  427TIP3    H122696   4.966   3.075   4.433  0.2996 -0.1569  0.2120
  427TIP3    H222697   4.889   3.099   4.305 -0.1136 -0.6142  0.3768
  428TIP3   OH222698   6.364   5.271  10.647 -0.8794  0.4861  0.0080
  428TIP3    H122699   6.303   5.306  10.583 -0.0812 -0.2713 -1.2026
  428TIP3    H222700   6.339   5.179  10.656 -0.7508  0.4979  0.4966
  429TIP3   OH222701   2.839   6.195  15.800 -0.9468  0.8950  0.4577
  429TIP3    H122702   2.894   6.274  15.792  2.2631 -1.1753  1.0909
  429TIP3    H222703   2.821   6.169  15.710  2.8013 -0.7749  0.0885
  430TIP3   OH222704   5.798   3.645   2.696 -0.0001  0.4368 -0.4776
  430TIP3    H122705   5.873   3.602   2.738  0.7942 -0.6863 -2.9406
  430TIP3    H222706   5.722   3.609   2.740  0.8368 -0.1931  0.4704
  431TIP3   OH222707   4.848   1.029  15.277 -0.0318 -0.4465 -0.7450
  431TIP3    H122708   4.810   0.957  15.228 -1.3697 -0.4129  0.2207
  431TIP3    H222709   4.870   1.095  15.211 -0.2375 -1.0965 -1.4654
  432TIP3   OH222710   5.281   4.857   1.250  0.0878  0.0501  0.6385
  432TIP3    H122711   5.286   4.775   1.201 -0.9202  0.8268 -0.7854
  432TIP3    H222712   5.372   4.888   1.254  0.0796  0.3637 -1.4043
  433TIP3   OH222713   5.783   6.414  11.585 -0.0671  0.6086  0.1824
  433TIP3    H122714   5.758   6.500  11.548  0.0213  0.0287 -1.2751
  433TIP3    H222715   5.855   6.434  11.645 -0.6069  1.6606  0.4989
  434TIP3   OH222716   5.271   2.173   3.509 -0.2203 -0.8913  0.3747
  434TIP3    H122717   5.289   2.091   3.555 -1.4355 -1.1915  0.3369
  434TIP3    H222718   5.349   2.188   3.456  0.1033 -1.9177  0.5390
  435TIP3   OH222719   2.122   3.907   6.310 -0.0489 -0.5774  0.3799
  435TIP3    H122720   2.197   3.851   6.330  0.2274 -0.9490 -1.6021
  435TIP3    H222721   2.161   3.990   6.283 -0.4157 -0.0722  1.3719
  436TIP3   OH222722   2.261   5.897  16.073 -0.1376  0.3982 -0.3835
  436TIP3    H122723   2.343   5.856  16.099 -0.3019 -0.1838 -0.7954
  436TIP3    H222724   2.280   5.991  16.076  0.5912  0.2613 -0.6373
  437TIP3   OH222725   5.716   1.596  13.435  0.5955 -1.1776  0.4180
  437TIP3    H122726   5.738   1.584  13.342  0.2634  0.4766  0.1095
  437TIP3    H222727   5.763   1.526  13.480  0.8365 -1.9357 -0.9942
  438TIP3   OH222728   2.506   1.593   2.787  0.0560  0.5623  0.1087
  438TIP3    H122729   2.588   1.577   2.835 -1.3177  0.8995  2.6454
  438TIP3    H222730   2.465   1.506   2.782  0.1181  0.5567 -0.3604
  439TIP3   OH222731   3.883   2.469  10.313  0.5957  0.1731  0.3237
  439TIP3    H122732   3.979   2.466  10.318  0.7323  0.5190 -1.6396
  439TIP3    H222733   3.855   2.478  10.404  2.4281  0.0707  0.9296
  440TIP3   OH222734   5.645   4.258  15.490  0.5468 -0.5084 -0.2786
  440TIP3    H122735   5.553   4.231  15.489  0.4089 -0.1041  0.8857
  440TIP3    H222736   5.647   4.335  15.546  1.2633  0.7791 -2.0305
  441TIP3   OH222737   2.759   4.179   2.330 -0.7549  0.2622  0.4201
  441TIP3    H122738   2.691   4.243   2.353 -0.7653 -0.6668  3.1407
  441TIP3    H222739   2.839   4.214   2.370  0.1264  0.6280 -1.5742
  442TIP3   OH222740   6.367   2.319  11.581  0.1635 -0.5653  0.8033
  442TIP3    H122741   6.384   2.225  11.582  2.5389 -0.2389 -2.0193
  442TIP3    H222742   6.412   2.353  11.658  1.5007 -1.4328  0.4211
  443TIP3   OH222743   4.663   1.812  12.888  0.1736 -0.1288 -0.7666
  443TIP3    H122744   4.650   1.819  12.793 -3.1008 -1.0395 -0.4551
  443TIP3    H222745   4.672   1.719  12.904  1.1966  0.0605 -0.2143
  444TIP3   OH222746   5.916   6.642   2.330 -0.0058  0.3097 -0.2665
  444TIP3    H122747   5.942   6.639   2.238  0.6921 -0.9726 -0.0317
  444TIP3    H222748   5.854   6.569   2.340 -0.6930  0.9361  0.0938
  445TIP3   OH222749   3.332   1.506   0.332 -0.3028  0.1713  0.0405
  445TIP3    H122750   3.385   1.541   0.403  0.5966  2.6026 -1.7637
  445TIP3    H222751   3.273   1.444   0.375  0.5243  1.2187  2.8131
  446TIP3   OH222752   5.912   1.894   5.557 -0.2661  0.1407  0.1049
  446TIP3    H122753   5.996   1.934   5.536 -0.4953  0.2595 -0.5940
  446TIP3    H222754   5.883   1.855   5.475 -0.6119 -0.4227  0.4927
  447TIP3   OH222755   6.748   0.618   4.515 -0.4683 -0.0060 -0.8259
  447TIP3    H122756   6.784   0.628   4.604 -1.5999  0.7491 -0.4459
  447TIP3    H222757   6.718   0.705   4.491 -0.8843 -0.3707 -1.6444
  448TIP3   OH222758   4.281   1.199  13.871  0.4056 -0.0870  0.2484
  448TIP3    H122759   4.193   1.164  13.887  1.0808 -1.2987  1.3979
  448TIP3    H222760   4.310   1.156  13.791 -1.3452  2.8581 -2.0650
  449TIP3   OH222761   3.389   3.179  11.744 -0.4589  0.3348  0.4771
  449TIP3    H122762   3.309   3.130  11.767 -0.2779 -0.2605 -0.1199
  449TIP3    H222763   3.360   3.240  11.676 -0.6155  0.8176  0.9808
  450TIP3   OH222764   4.600   5.627  11.438  0.0814  0.1444  0.1307
  450TIP3    H122765   4.615   5.586  11.523  3.4971 -1.5368 -1.2039
  450TIP3    H222766   4.548   5.563  11.389  2.4005 -1.1536 -0.7222
  451TIP3   OH222767   3.097   5.012  13.148 -0.0172  0.0225 -0.4873
  451TIP3    H122768   3.181   4.971  13.129  0.1915  0.5924 -0.8092
  451TIP3    H222769   3.120   5.095  13.189 -0.4590 -1.0032  1.9322
  452TIP3   OH222770   4.235   4.986  15.153 -0.1259  0.0409 -0.1241
  452TIP3    H122771   4.296   4.973  15.226 -0.0299 -0.5884 -0.3162
  452TIP3    H222772   4.246   5.078  15.129 -0.5311  0.3974  0.9883
  453TIP3   OH222773   5.324   0.278  15.809  0.0939  0.6944  0.3556
  453TIP3    H122774   5.403   0.331  15.799  0.1953  0.5718  0.5169
  453TIP3    H222775   5.278   0.316  15.884 -0.3716  1.2355 -0.1953
  454TIP3   OH222776   4.758   5.184   5.653  0.1190  0.0954 -0.3185
  454TIP3    H122777   4.690   5.242   5.688  0.1608  0.0355 -0.1378
  454TIP3    H222778   4.716   5.137   5.582  0.1590  0.5404 -0.6363
  455TIP3   OH222779   6.539   4.250  17.049  0.3302 -0.3531  0.0499
  455TIP3    H122780   6.600   4.312  17.010 -0.3613 -0.3059 -0.9928
  455TIP3    H222781   6.519   4.286  17.135 -0.6812  1.3136 -0.8649
  456TIP3   OH222782   0.867   2.621   0.942  0.3557  0.7048  0.0958
  456TIP3    H122783   0.814   2.680   0.888  1.2386  0.3459 -1.1838
  456TIP3    H222784   0.893   2.550   0.882 -0.4930 -0.8693  1.5428
  457TIP3   OH222785   0.893   2.338  17.038 -0.0969  0.3844 -0.4821
  457TIP3    H122786   0.932   2.351  16.951  1.1158  0.1720  0.0143
  457TIP3    H222787   0.968   2.327  17.096 -0.8538  1.9812  0.8369
  458TIP3   OH222788   6.208   6.013  11.931 -0.1202 -0.4053  0.1419
  458TIP3    H122789   6.240   6.099  11.903 -2.9017  0.6487 -0.0628
  458TIP3    H222790   6.244   5.952  11.867 -0.4849  1.0334 -1.5042
  459TIP3   OH222791   4.981   2.280  11.548  0.0280 -0.4521 -0.5625
  459TIP3    H122792   4.890   2.258  11.529 -0.4051 -0.0991  0.9844
  459TIP3    H222793   5.028   2.197  11.539 -0.8468 -1.1314  0.8822
  460TIP3   OH222794   6.243   0.141  13.212 -0.8826 -0.0637 -0.1615
  460TIP3    H122795   6.200   0.179  13.135  0.4605  2.5316  0.3276
  460TIP3    H222796   6.333   0.125  13.183 -0.2825  1.2208  0.9192
  461TIP3   OH222797   1.685   6.580  17.084 -0.1752  0.3964  0.2405
  461TIP3    H122798   1.781   6.578  17.085 -0.1895 -1.4991  0.1104
  461TIP3    H222799   1.662   6.573  16.992 -0.4362 -1.9518  0.4472
  462TIP3   OH222800   3.300   0.102   3.249  0.3430  0.2835 -0.0883
  462TIP3    H122801   3.325   0.084   3.340  0.9193  0.6333 -0.1752
  462TIP3    H222802   3.264   0.190   3.251 -0.2774  0.0331 -0.0823
  463TIP3   OH222803   5.897   4.157   4.568 -0.5026 -0.2142 -0.1631
  463TIP3    H122804   5.941   4.230   4.611 -0.0874 -0.1071 -0.7772
  463TIP3    H222805   5.861   4.194   4.487 -0.5571 -0.6190 -0.3254
  464TIP3   OH222806   2.573   5.583   5.257 -0.5142  0.0618  0.1687
  464TIP3    H122807   2.524   5.552   5.333  1.0116  0.4539  1.3370
  464TIP3    H222808   2.640   5.641   5.294  1.4055 -1.1729 -1.2952
  465TIP3   OH222809   2.476   4.113   2.141 -0.3111 -0.1303  0.1644
  465TIP3    H122810   2.531   4.133   2.217 -0.2671  3.0189 -0.6039
  465TIP3    H222811   2.386   4.121   2.175 -0.2986 -0.8825  0.3819
  466TIP3   OH222812   2.953   1.082  12.756  0.1560 -0.5423  0.5073
  466TIP3    H122813   2.858   1.083  12.760  0.1112 -0.8804 -0.5333
  466TIP3    H222814   2.974   1.092  12.664  1.1097 -1.5673  0.5990
  467TIP3   OH222815   4.641   4.625  15.664  0.3896 -0.0901  0.4035
  467TIP3    H122816   4.651   4.589  15.576  0.5940  0.0417  0.3727
  467TIP3    H222817   4.700   4.573  15.718 -1.8803 -2.1153  1.0334
  468TIP3   OH222818   6.069   1.114  15.684  0.1392  0.4303 -0.3641
  468TIP3    H122819   6.156   1.103  15.723 -0.2980  2.1895  1.1737
  468TIP3    H222820   6.008   1.093  15.755 -0.7017 -0.4214 -1.3259
  469TIP3   OH222821   3.262   6.300   6.862  0.1011 -0.8521  0.1879
  469TIP3    H122822   3.321   6.303   6.787 -2.4959  0.9158 -1.8483
  469TIP3    H222823   3.257   6.391   6.892 -1.6936 -0.9740  0.2749
  470TIP3   OH222824   5.635   2.183  13.397 -0.3990  0.2652  0.0290
  470TIP3    H122825   5.720   2.145  13.377 -1.0824 -0.3790 -1.7520
  470TIP3    H222826   5.577   2.108  13.410 -0.9010  0.6946  0.3263
  471TIP3   OH222827   2.736   3.819   5.918  0.0663  0.1337 -0.0912
  471TIP3    H122828   2.761   3.870   5.840 -0.5855  0.6345  0.0226
  471TIP3    H222829   2.663   3.868   5.956  0.2243 -0.2400  0.7039
  472TIP3   OH222830   3.054   4.444  16.441 -0.0459 -0.3910 -0.8271
  472TIP3    H122831   3.038   4.488  16.358 -1.1078  1.4060  0.2867
  472TIP3    H222832   2.968   4.436  16.481  0.4190 -1.4806 -0.0161
  473TIP3   OH222833   3.380   2.726   3.751  0.0607 -0.1283 -0.4592
  473TIP3    H122834   3.452   2.767   3.704  0.7921 -1.1036 -0.1905
  473TIP3    H222835   3.373   2.775   3.833  1.0979 -0.7086 -0.0252
  474TIP3   OH222836   6.779   3.394  14.038  0.0285  0.1487 -0.3786
  474TIP3    H122837   6.773   3.299  14.038 -0.0782  0.1540 -0.8033
  474TIP3    H222838   6.776   3.419  14.131 -1.5101 -0.1688 -0.3284
  475TIP3   OH222839   6.150   3.859   4.274 -0.1016  0.1922  0.5208
  475TIP3    H122840   6.077   3.915   4.300 -0.6874  0.3308 -1.3906
  475TIP3    H222841   6.207   3.858   4.351 -1.7468  0.6559  1.7854
  476TIP3   OH222842   3.581   1.501  12.913  0.4608  0.6047 -0.3433
  476TIP3    H122843   3.635   1.423  12.900  0.6390  0.6879 -0.1172
  476TIP3    H222844   3.625   1.570  12.863  0.6916  0.7259  0.0198
  477TIP3   OH222845   5.540   4.638  14.001  0.5331 -0.1127  0.3620
  477TIP3    H122846   5.557   4.632  14.095 -1.3822  0.9062  0.8036
  477TIP3    H222847   5.449   4.613  13.991  0.7178 -0.2313 -1.2324
  478TIP3   OH222848   2.620   3.891   1.971 -0.4133 -0.5430 -0.2091
  478TIP3    H122849   2.579   3.969   2.009  1.2401  0.6736 -0.8780
  478TIP3    H222850   2.611   3.824   2.038 -0.6169  0.6135  0.9272
  479TIP3   OH222851   2.597   3.884   4.574  0.2895  0.2364 -0.2803
  479TIP3    H122852   2.577   3.829   4.649  0.1576 -0.8179 -1.0682
  479TIP3    H222853   2.579   3.828   4.498 -0.7481  1.6668 -1.1221
  480TIP3   OH222854   4.143   0.908   3.826 -0.0632  0.8458 -0.4612
  480TIP3    H122855   4.126   0.928   3.918 -0.0603  0.7031 -0.4299
  480TIP3    H222856   4.099   0.824   3.810 -0.9092  1.3584 -0.8548
  481TIP3   OH222857   4.501   3.323   1.319 -0.4662  0.4103  0.7367
  481TIP3    H122858   4.426   3.337   1.378 -1.8716  1.6371 -1.2872
  481TIP3    H222859   4.516   3.408   1.278 -0.3696 -0.7262 -1.6503
  482TIP3   OH222860   0.012   6.066   4.517  0.3803 -0.4200 -0.4253
  482TIP3    H122861  -0.061   6.022   4.561 -0.0894  0.7226 -0.0397
  482TIP3    H222862  -0.003   6.159   4.532  1.7581 -0.1485 -0.5956
  483TIP3   OH222863   4.720   6.760   6.197  0.2711  0.1354 -0.2539
  483TIP3    H122864   4.737   6.701   6.123 -0.6026 -0.2587 -0.1399
  483TIP3    H222865   4.730   6.704   6.274 -0.3303  0.1918 -0.1372
  484TIP3   OH222866   1.420   5.375   0.039 -0.4764  0.0795 -0.3853
  484TIP3    H122867   1.437   5.460  -0.001 -1.1532 -0.3077 -1.5309
  484TIP3    H222868   1.332   5.351   0.008 -0.8590 -0.4084  1.0265
  485TIP3   OH222869   1.262   4.477  16.358  0.3086 -0.0861 -0.0846
  485TIP3    H122870   1.212   4.520  16.289 -0.4238 -2.5020 -1.0859
  485TIP3    H222871   1.313   4.548  16.398 -1.3766  1.8305 -1.2295
  486TIP3   OH222872   0.537   6.230  14.428 -0.3884  0.6231  0.5869
  486TIP3    H122873   0.607   6.288  14.457 -1.7997  3.5092 -1.5106
  486TIP3    H222874   0.571   6.142  14.443  2.8132  1.9437  1.5436
  487TIP3   OH222875   1.169   4.805   2.085 -0.2269 -0.3526 -0.1275
  487TIP3    H122876   1.136   4.832   1.999  1.5679 -0.7120 -0.9458
  487TIP3    H222877   1.106   4.843   2.147 -1.5993 -0.1733 -1.5889
  488TIP3   OH222878   4.935   6.457  13.994 -0.0187  0.4076  0.0125
  488TIP3    H122879   4.935   6.482  13.902 -0.3735 -0.0779 -0.1236
  488TIP3    H222880   5.021   6.418  14.009 -0.5287 -0.9392 -0.5085
  489TIP3   OH222881   1.645   0.698  11.218  0.2710 -0.1013  0.0759
  489TIP3    H122882   1.657   0.632  11.286 -0.7052 -1.1313 -0.7298
  489TIP3    H222883   1.685   0.659  11.139  1.1253  0.9518 -0.0197
  490TIP3   OH222884   6.281   1.751  13.640  0.1711 -0.0417 -0.8059
  490TIP3    H122885   6.304   1.775  13.729  1.3980 -0.0068 -1.1174
  490TIP3    H222886   6.358   1.704  13.607 -0.0708  0.3865 -2.0025
  491TIP3   OH222887   0.691   5.385  11.876  0.4888  0.4923 -0.8877
  491TIP3    H122888   0.628   5.330  11.922 -0.1536  0.9495 -1.2281
  491TIP3    H222889   0.638   5.444  11.824  1.1760  1.6377 -0.3045
  492TIP3   OH222890   6.032   5.182   0.153 -0.4474 -0.2731 -0.1070
  492TIP3    H122891   6.096   5.184   0.224  0.4182 -0.0375 -0.8883
  492TIP3    H222892   5.958   5.232   0.186  0.5211  1.0488  0.1007
  493TIP3   OH222893   3.810   4.924   3.174 -0.0982 -0.6512 -0.3803
  493TIP3    H122894   3.788   4.845   3.125  1.0252  0.2196 -2.3291
  493TIP3    H222895   3.736   4.983   3.160 -1.3133 -1.5958  1.7292
  494TIP3   OH222896   1.808   3.077   0.957  0.6579 -0.4289  0.2732
  494TIP3    H122897   1.889   3.103   0.913  0.5191 -0.0047  0.2664
  494TIP3    H222898   1.738   3.109   0.899  0.4884 -2.8942 -0.9582
  495TIP3   OH222899   5.264   3.077   0.548 -0.2527  0.2280 -0.0062
  495TIP3    H122900   5.255   3.139   0.475 -1.4853  0.1537  0.0744
  495TIP3    H222901   5.230   2.994   0.513 -1.1732  0.2795  0.7531
  496TIP3   OH222902   1.989   4.443  12.290  0.0537 -0.0728 -0.3924
  496TIP3    H122903   2.043   4.453  12.369 -0.1774  0.8923 -0.3455
  496TIP3    H222904   2.047   4.403  12.225  0.0839 -1.4263  0.4411
  497TIP3   OH222905   1.949   3.612   1.499 -0.0788 -0.8250  0.2440
  497TIP3    H122906   1.871   3.641   1.546  0.4849 -0.3627  0.8992
  497TIP3    H222907   1.990   3.547   1.557  0.1789 -0.8587  0.0280
  498TIP3   OH222908   0.826   2.256   2.697 -0.1532  0.5084  0.0066
  498TIP3    H122909   0.880   2.208   2.760  2.6707  2.4663 -0.8038
  498TIP3    H222910   0.836   2.209   2.615 -2.5320 -1.1124  0.6040
  499TIP3   OH222911   3.995   0.488  13.154 -0.2229 -0.1967 -0.4281
  499TIP3    H122912   4.051   0.506  13.079  0.8277  1.1113  0.6513
  499TIP3    H222913   3.941   0.566  13.164 -0.8180 -0.6309 -0.2305
  500TIP3   OH222914   1.051   3.178   1.665  0.4140  0.2263 -0.5725
  500TIP3    H122915   1.065   3.273   1.672  0.4460  0.1457  0.5971
  500TIP3    H222916   1.131   3.145   1.624  1.5865  0.3850  1.4974
  501TIP3   OH222917   5.563   1.451  12.033  0.5527 -0.4994 -0.2444
  501TIP3    H122918   5.649   1.426  12.067  0.4405 -3.1197 -1.8148
  501TIP3    H222919   5.504   1.385  12.067 -0.7367  0.7998  0.0955
  502TIP3   OH222920   1.905   1.254   5.258  0.0331 -0.1557  0.6279
  502TIP3    H122921   1.845   1.184   5.231  1.2929 -1.3676  0.9491
  502TIP3    H222922   1.856   1.302   5.325 -0.9032 -0.6173  0.2910
  503TIP3   OH222923   2.597   6.105   1.161  0.4757 -0.2399  0.6496
  503TIP3    H122924   2.505   6.083   1.170  0.1984  1.1258  1.3639
  503TIP3    H222925   2.638   6.071   1.241  0.1869  1.0977  1.3807
  504TIP3   OH222926   2.417   1.509   2.020 -0.2054  0.2824  0.6387
  504TIP3    H122927   2.450   1.497   1.931  0.8381  0.4924  0.9840
  504TIP3    H222928   2.336   1.458   2.023  0.5238 -0.9371  0.0231
  505TIP3   OH222929   0.792   3.893  13.808  0.0830  0.4996  0.0520
  505TIP3    H122930   0.856   3.924  13.745  0.2283  0.5118  0.2053
  505TIP3    H222931   0.717   3.866  13.755 -0.1559  1.3754 -0.0634
  506TIP3   OH222932   6.283   1.827   0.445 -0.2212 -0.3977 -0.3164
  506TIP3    H122933   6.300   1.758   0.508 -2.7359  0.9147  1.8739
  506TIP3    H222934   6.369   1.867   0.430  0.6336 -1.6226  1.2076
  507TIP3   OH222935   3.500   2.447   3.887  0.1574 -0.0828 -0.4705
  507TIP3    H122936   3.432   2.499   3.844 -0.0252 -1.4085 -1.8669
  507TIP3    H222937   3.548   2.509   3.940 -2.5987  0.7733  1.1366
  508TIP3   OH222938   0.428   0.786   2.063  0.2278  0.3834  0.2359
  508TIP3    H122939   0.492   0.800   2.133  0.9349 -0.7264 -0.1677
  508TIP3    H222940   0.481   0.768   1.985 -0.5554  1.2585 -0.5091
  509TIP3   OH222941   4.436   1.668   5.080 -0.5902 -0.3315  0.3008
  509TIP3    H122942   4.341   1.668   5.066 -0.7017  1.1171  0.9316
  509TIP3    H222943   4.472   1.710   5.001 -0.5548  0.0960  0.5453
  510TIP3   OH222944   1.956   0.656  14.114 -0.1389 -0.2390  0.2716
  510TIP3    H122945   1.966   0.745  14.080 -0.8861 -0.6567 -1.0994
  510TIP3    H222946   1.878   0.660  14.169 -0.5058 -0.1668 -0.2487
  511TIP3   OH222947   1.228   3.870  11.107 -0.9189 -0.4597  0.3113
  511TIP3    H122948   1.286   3.840  11.037 -1.6373 -1.1397 -0.0005
  511TIP3    H222949   1.151   3.904  11.061 -0.4237  1.2179  0.6830
  512TIP3   OH222950   0.049   3.175   1.178 -0.0908  0.0966 -0.6795
  512TIP3    H122951   0.092   3.101   1.134  0.2610  0.9288 -1.7463
  512TIP3    H222952  -0.024   3.197   1.121  0.9151  1.7852 -1.3363
  513TIP3   OH222953   6.389   0.666   2.820 -0.3109 -0.0967 -0.4499
  513TIP3    H122954   6.323   0.735   2.827 -0.3900 -0.1322 -0.8293
  513TIP3    H222955   6.351   0.602   2.760 -0.8573 -1.1982  1.0322
  514TIP3   OH222956   3.025   4.177  12.448 -1.0514  0.3111  0.0755
  514TIP3    H122957   2.933   4.187  12.424 -1.0189 -0.7157 -0.4989
  514TIP3    H222958   3.025   4.104  12.511 -0.6449  0.3512  0.1224
  515TIP3   OH222959   2.047   4.320   6.077 -0.4351 -0.7153  0.1224
  515TIP3    H122960   2.133   4.350   6.051 -0.4230 -1.0761 -0.2647
  515TIP3    H222961   2.029   4.366   6.159 -0.1526 -0.1500 -0.1303
  516TIP3   OH222962   3.305   6.123   0.103 -0.2990  0.6232 -0.0744
  516TIP3    H122963   3.264   6.138   0.189 -0.8188  1.8949 -0.5198
  516TIP3    H222964   3.398   6.141   0.117 -0.1089 -0.7835  0.5907
  517TIP3   OH222965   2.179   2.018   1.905  0.4405 -0.6938  0.5093
  517TIP3    H122966   2.147   1.934   1.873  0.1904  0.8754 -3.8286
  517TIP3    H222967   2.106   2.078   1.891  0.4971  0.2553  3.8505
  518TIP3   OH222968   0.190   2.537  11.517 -0.1558  0.0486  0.2709
  518TIP3    H122969   0.260   2.472  11.506  0.2965  0.5675 -0.0037
  518TIP3    H222970   0.130   2.519  11.445  0.5389  0.6293 -0.4680
  519TIP3   OH222971   4.117   2.576   3.909 -0.3763  0.0126 -0.2018
  519TIP3    H122972   4.141   2.574   3.817 -1.3788 -1.1998 -0.4531
  519TIP3    H222973   4.199   2.560   3.956  0.7507  3.7294 -0.7291
  520TIP3   OH222974   3.584   3.074  16.825 -0.3290 -0.8956 -0.1481
  520TIP3    H122975   3.548   2.987  16.847 -1.4187 -1.0758 -2.4896
  520TIP3    H222976   3.610   3.066  16.733  0.3245  1.0279 -0.1342
  521TIP3   OH222977   2.047   3.765   1.266 -0.3214  0.0247  0.1142
  521TIP3    H122978   2.037   3.857   1.292  0.0573  0.4411 -1.1349
  521TIP3    H222979   2.020   3.715   1.342 -0.5561  1.1821  0.8063
  522TIP3   OH222980   3.794   0.588  12.560 -0.0497  0.0622  0.6136
  522TIP3    H122981   3.887   0.564  12.554  0.6895  2.9051 -0.1360
  522TIP3    H222982   3.775   0.631  12.476 -2.2102 -0.9780  0.5346
  523TIP3   OH222983   0.600   1.561  10.955  0.2335 -0.5034 -0.3113
  523TIP3    H122984   0.646   1.631  10.909 -0.8453  0.5477  0.1990
  523TIP3    H222985   0.563   1.603  11.032 -0.1101 -1.7216  0.2020
  524TIP3   OH222986   3.485   3.325  13.808  0.3189  0.3380 -0.2484
  524TIP3    H122987   3.495   3.238  13.847  2.0202  1.1284  1.1628
  524TIP3    H222988   3.522   3.385  13.873 -2.3985  2.3076 -0.3980
  525TIP3   OH222989   1.736   0.206  13.110  0.1528 -0.6560  0.0757
  525TIP3    H122990   1.681   0.161  13.046  0.3735  0.6479 -1.0656
  525TIP3    H222991   1.700   0.295  13.115 -2.3400 -1.7399  4.7329
  526TIP3   OH222992   6.285   4.269   3.333  0.0108  0.1230  0.1540
  526TIP3    H122993   6.380   4.258   3.324  0.0402 -0.4187  1.0006
  526TIP3    H222994   6.275   4.310   3.420 -0.4605  1.3457 -0.4631
  527TIP3   OH222995   1.722   4.423  10.977 -0.0994 -0.1400 -0.2575
  527TIP3    H122996   1.701   4.514  10.995  0.2828  0.4441 -2.6005
  527TIP3    H222997   1.643   4.388  10.935  1.2173  0.3372 -3.2848
  528TIP3   OH222998   4.336   2.078   1.414  0.2600  0.2623  0.1192
  528TIP3    H122999   4.334   2.062   1.320  2.2502  1.5985 -0.1865
  528TIP3    H223000   4.294   2.163   1.425 -0.5613 -0.1918  0.5199
  529TIP3   OH223001   4.515   2.197   1.579 -0.5252 -0.5464  0.0360
  529TIP3    H123002   4.465   2.121   1.551  0.5516 -1.0331 -0.5626
  529TIP3    H223003   4.503   2.200   1.674 -1.8066 -0.5695 -0.1218
  530TIP3   OH223004   4.780   6.006  13.375  0.3065  0.5042 -0.2334
  530TIP3    H123005   4.783   5.983  13.282 -1.3445 -1.1366  0.0887
  530TIP3    H223006   4.756   5.924  13.419  1.1467  1.2442  1.6496
  531TIP3   OH223007   5.428   1.570  14.468  0.0002  0.0145 -0.4125
  531TIP3    H123008   5.427   1.599  14.376  2.7692 -0.4684 -0.6229
  531TIP3    H223009   5.416   1.651  14.518 -1.3217  0.3097 -1.1733
  532TIP3   OH223010   0.323   0.635   3.650 -0.0798 -0.1248 -0.4684
  532TIP3    H123011   0.267   0.712   3.652  0.3301  0.1744 -0.4914
  532TIP3    H223012   0.394   0.658   3.591 -0.4187 -0.8410 -1.1670
  533TIP3   OH223013   4.443   0.713   5.754  0.5747  0.7007 -0.4067
  533TIP3    H123014   4.513   0.648   5.743  1.4000  1.2068  1.6665
  533TIP3    H223015   4.448   0.739   5.846 -1.3416  1.9062 -0.6103
  534TIP3   OH223016   5.089   0.572   1.090  0.3112 -0.6253  0.7364
  534TIP3    H123017   5.041   0.649   1.059  0.6364 -0.1485  1.4187
  534TIP3    H223018   5.026   0.500   1.085 -0.4337 -0.0214  1.5318
  535TIP3   OH223019   6.296   0.125  10.354 -0.1393  0.0986  0.3136
  535TIP3    H123020   6.299   0.059  10.285 -0.2403  0.4244 -0.0035
  535TIP3    H223021   6.319   0.077  10.434 -0.8932 -0.4668  0.2016
  536TIP3   OH223022   0.455   5.840   5.637  0.7473  0.3858 -0.3026
  536TIP3    H123023   0.457   5.745   5.633  0.1632  0.2748  1.5265
  536TIP3    H223024   0.523   5.863   5.699  2.4253  1.3185 -2.4186
  537TIP3   OH223025   5.641   5.933  12.983  0.6031  0.5812 -0.8917
  537TIP3    H123026   5.603   5.897  12.904  1.7289 -1.0520 -0.7106
  537TIP3    H223027   5.728   5.964  12.957  1.3155 -0.7354 -0.1302
  538TIP3   OH223028   3.005   2.713   0.690 -0.1713  0.0070  0.2066
  538TIP3    H123029   3.099   2.704   0.700 -0.2252  0.5444  1.3225
  538TIP3    H223030   2.978   2.633   0.645  0.7819 -0.2777  0.1317
  539TIP3   OH223031   5.946   5.889   0.801  0.3701  0.9099  0.0314
  539TIP3    H123032   6.026   5.940   0.794  0.1315  1.1545 -1.0552
  539TIP3    H223033   5.941   5.840   0.718  0.0084  0.0041  0.5813
  540TIP3   OH223034   3.922   6.671  12.995  0.4191  0.1120 -0.0865
  540TIP3    H123035   3.964   6.751  12.962  0.1303  0.0233 -0.6708
  540TIP3    H223036   3.985   6.602  12.977 -0.5377 -0.2467 -2.2639
  541TIP3   OH223037   5.890   5.155  11.239 -0.1418 -0.2103 -0.1160
  541TIP3    H123038   5.949   5.138  11.166 -0.6966  0.6258 -0.7614
  541TIP3    H223039   5.810   5.187  11.199  0.4628  2.8128  0.9837
  542TIP3   OH223040   6.606   3.269  14.579  0.0590  0.2602  0.0129
  542TIP3    H123041   6.531   3.327  14.569  1.0977  1.6532  0.2221
  542TIP3    H223042   6.609   3.219  14.497 -0.2974  1.1396 -0.5328
  543TIP3   OH223043   2.363   5.204  11.803 -0.0675 -0.5467 -0.7158
  543TIP3    H123044   2.286   5.170  11.756  0.7033 -0.4399 -2.0993
  543TIP3    H223045   2.428   5.218  11.734  0.8216  0.4078  0.3030
  544TIP3   OH223046   4.769   3.211  10.901  0.2703 -0.3412 -0.3302
  544TIP3    H123047   4.783   3.306  10.901  2.1921 -0.5918 -1.2643
  544TIP3    H223048   4.742   3.192  10.811  0.1923 -0.7279 -0.2238
  545TIP3   OH223049   2.747   5.578  15.199  0.5695 -0.1714  0.6197
  545TIP3    H123050   2.693   5.645  15.241 -0.4347 -1.4574  1.4216
  545TIP3    H223051   2.778   5.620  15.119 -1.9344  0.5046 -0.0617
  546TIP3   OH223052   4.495   0.290  14.513 -0.6777  0.2316 -0.4232
  546TIP3    H123053   4.530   0.204  14.535 -0.3052  0.5780  0.3495
  546TIP3    H223054   4.400   0.280  14.521 -0.5877  0.1280  0.5147
  547TIP3   OH223055   5.563   6.099  16.125 -0.4550 -0.1957 -1.0131
  547TIP3    H123056   5.564   6.176  16.069  0.3115  0.1576 -0.5303
  547TIP3    H223057   5.512   6.125  16.201 -3.6089 -1.4815 -2.6283
  548TIP3   OH223058   0.648   2.033   0.562  0.7401 -0.1578  0.0499
  548TIP3    H123059   0.694   2.099   0.614 -0.1119  0.5850 -0.1219
  548TIP3    H223060   0.655   1.953   0.614  0.3661  0.4516  1.0578
  549TIP3   OH223061   5.391   5.527  16.477  0.2626 -0.0695 -0.1277
  549TIP3    H123062   5.401   5.504  16.570  0.3257 -0.4927 -0.2408
  549TIP3    H223063   5.463   5.482  16.433 -1.7076 -2.6209 -0.8560
  550TIP3   OH223064   3.431   5.083  14.735  0.5234  0.2709 -0.2106
  550TIP3    H123065   3.453   4.991  14.749 -2.1447 -0.3492  0.1565
  550TIP3    H223066   3.483   5.130  14.800  3.2116 -0.7787 -1.5216
  551TIP3   OH223067   3.060   4.140   1.957  0.4501  0.4468 -0.0328
  551TIP3    H123068   3.099   4.227   1.946 -0.3874  0.9388  0.7807
  551TIP3    H223069   2.970   4.150   1.926  0.4556 -0.2252 -0.2721
  552TIP3   OH223070   4.622   1.170   0.803 -0.1200  0.1203 -0.3217
  552TIP3    H123071   4.668   1.169   0.719 -0.2820  0.2068 -0.4122
  552TIP3    H223072   4.674   1.114   0.860  0.7588  1.1681 -0.0782
  553TIP3   OH223073   0.519   1.320   4.704  0.1070 -0.1294  0.3781
  553TIP3    H123074   0.581   1.260   4.662 -1.6476 -1.0473 -0.9406
  553TIP3    H223075   0.509   1.285   4.793 -0.6685 -1.6326 -0.2817
  554TIP3   OH223076   0.741   2.266   6.030  0.0756  0.4410  0.5718
  554TIP3    H123077   0.653   2.239   6.058 -0.1053  1.8706  1.4602
  554TIP3    H223078   0.729   2.295   5.940 -0.5210  1.2782  0.9102
  555TIP3   OH223079   5.724   5.481  14.906 -0.1292 -0.0075 -0.1890
  555TIP3    H123080   5.690   5.478  14.996  1.8612  1.6014  0.6673
  555TIP3    H223081   5.741   5.574  14.890  1.6065 -0.5155 -1.4284
  556TIP3   OH223082   3.642   4.141  15.316  0.5466  0.5614  0.3299
  556TIP3    H123083   3.662   4.163  15.225 -2.2948 -0.8406 -0.7241
  556TIP3    H223084   3.570   4.200  15.339 -1.8986 -2.2077  0.0435
  557TIP3   OH223085   5.688   3.043  14.023 -0.0936  0.1863 -0.4608
  557TIP3    H123086   5.617   2.987  14.054  0.3411 -1.4183 -2.2430
  557TIP3    H223087   5.757   3.034  14.089 -0.2742 -0.9242 -0.4126
  558TIP3   OH223088   6.157   1.840  12.308  0.2434  0.2891 -0.1057
  558TIP3    H123089   6.212   1.766  12.279  0.2584  0.7040 -1.1595
  558TIP3    H223090   6.112   1.807  12.385  1.5472 -0.2603  0.4412
  559TIP3   OH223091   3.461   0.611   5.451  0.2366  0.0267  0.2236
  559TIP3    H123092   3.532   0.665   5.417  0.0127  0.7384  0.8664
  559TIP3    H223093   3.483   0.597   5.543  0.3484 -1.0803  0.0390
  560TIP3   OH223094   4.891   1.596  12.796  0.5248  0.7311 -0.0823
  560TIP3    H123095   4.832   1.573  12.867 -0.2510  1.7102 -0.3954
  560TIP3    H223096   4.839   1.587  12.716  1.3212 -0.1456 -0.5193
  561TIP3   OH223097   3.194   6.348  11.514  0.3222 -0.1342  0.3936
  561TIP3    H123098   3.177   6.269  11.463 -1.1532  0.7769 -0.5667
  561TIP3    H223099   3.151   6.418  11.464  1.1643  1.1902  1.4929
  562TIP3   OH223100   6.321   6.423   2.483 -0.0324  0.3390 -0.3712
  562TIP3    H123101   6.393   6.485   2.493  0.1228 -0.0530  0.9980
  562TIP3    H223102   6.274   6.427   2.566 -0.1156 -1.2594 -0.3304
  563TIP3   OH223103   6.568   4.882   6.024  0.1225 -0.3250  0.2914
  563TIP3    H123104   6.651   4.836   6.034  0.7137  0.4596 -1.0573
  563TIP3    H223105   6.580   4.965   6.070  0.0691 -0.2281  0.1309
  564TIP3   OH223106   4.498   1.211  15.063 -0.5881  0.4542  0.2738
  564TIP3    H123107   4.423   1.152  15.070  0.6411 -1.0416  1.0486
  564TIP3    H223108   4.520   1.212  14.970 -1.5245  0.8699  0.0453
  565TIP3   OH223109   4.010   0.966   1.502 -0.3629 -0.4382 -0.3387
  565TIP3    H123110   4.102   0.993   1.508 -0.2701 -0.6711 -0.6668
  565TIP3    H223111   3.961   1.048   1.505 -0.1326 -0.2962 -0.3882
  566TIP3   OH223112   2.479   0.031   5.530  0.0865  0.1893  0.0270
  566TIP3    H123113   2.574   0.042   5.533  0.1146 -0.3296  1.6729
  566TIP3    H223114   2.458  -0.013   5.612 -1.1799 -3.1030 -2.0063
  567TIP3   OH223115   0.038   6.439  13.683 -0.5176 -0.1274 -0.8385
  567TIP3    H123116   0.025   6.533  13.690  0.4211  0.0166 -0.9968
  567TIP3    H223117   0.090   6.427  13.603 -0.7874 -0.7914 -0.9214
  568TIP3   OH223118   6.398   5.763  13.524  0.0398  0.1356 -0.4811
  568TIP3    H123119   6.395   5.855  13.497  2.1124  0.4792  0.3940
  568TIP3    H223120   6.347   5.717  13.458 -0.5579  1.8404 -1.2373
  569TIP3   OH223121   0.813   0.358  13.759  0.5617  0.0235  0.3846
  569TIP3    H123122   0.800   0.266  13.737 -1.3542  0.1634  0.7835
  569TIP3    H223123   0.850   0.357  13.847  0.0170 -0.3661  0.6136
  570TIP3   OH223124   5.492   3.753  17.203 -0.5030  0.0901 -0.3837
  570TIP3    H123125   5.497   3.847  17.184 -0.2215 -0.3100 -2.3010
  570TIP3    H223126   5.574   3.717  17.171 -1.2123 -1.0428 -0.9555
  571TIP3   OH223127   2.951   1.198   1.749  0.3430 -0.2886 -0.1200
  571TIP3    H123128   2.920   1.108   1.739  0.8593 -0.3108 -1.6182
  571TIP3    H223129   3.045   1.189   1.763  0.4512  0.0430 -0.6430
  572TIP3   OH223130   1.953   3.626   3.732 -0.2065  0.1572  0.1308
  572TIP3    H123131   2.033   3.597   3.687 -0.7982 -0.9479 -0.2235
  572TIP3    H223132   1.906   3.676   3.665 -0.5112 -0.4526 -0.1119
  573TIP3   OH223133   4.896   1.667   4.634  0.4147  0.1271  0.1621
  573TIP3    H123134   4.988   1.679   4.610 -0.2302  1.0019 -1.9744
  573TIP3    H223135   4.851   1.656   4.551 -1.3127 -1.1804  1.2404
  574TIP3   OH223136   4.507   4.361   6.513  0.1121 -0.1998  0.0843
  574TIP3    H123137   4.417   4.391   6.499  0.3991  0.4991 -0.2537
  574TIP3    H223138   4.506   4.270   6.484 -0.3338 -0.0096 -0.5095
  575TIP3   OH223139   5.784   4.945  12.331 -0.0267 -0.2154 -0.3173
  575TIP3    H123140   5.835   4.988  12.399 -1.2169  0.1064  0.3939
  575TIP3    H223141   5.848   4.897  12.278  1.0293  0.4582  0.3491
  576TIP3   OH223142   1.819   0.566   0.085  0.7005 -0.3076 -0.9817
  576TIP3    H123143   1.820   0.497   0.152  1.0783  0.5567 -0.0963
  576TIP3    H223144   1.899   0.615   0.100 -1.2296  2.4553  0.6081
  577TIP3   OH223145   0.854   5.335  10.881  0.0275  0.3676 -0.0981
  577TIP3    H123146   0.887   5.271  10.944 -2.0753  2.1840  3.0069
  577TIP3    H223147   0.801   5.284  10.820  1.1654 -1.2721  0.2512
  578TIP3   OH223148   1.565   4.032  12.919 -0.0503  0.0970 -0.5408
  578TIP3    H123149   1.559   4.042  13.014  2.0996 -3.0302 -0.0202
  578TIP3    H223150   1.474   4.022  12.891 -0.6875  0.7791  1.1932
  579TIP3   OH223151   1.949   3.760   0.318  0.2285 -0.1569  0.3291
  579TIP3    H123152   1.899   3.688   0.279  0.2723 -0.5544  0.9935
  579TIP3    H223153   2.038   3.747   0.287  0.2424 -0.4162  0.4701
  580TIP3   OH223154   2.014   1.516  10.347  0.4639  0.4779 -0.0012
  580TIP3    H123155   2.092   1.548  10.302  1.3232 -0.8542  0.5017
  580TIP3    H223156   2.039   1.514  10.439  0.0741 -0.5940  0.0890
  581TIP3   OH223157   4.143   4.008  16.853 -0.0238 -0.3110 -0.2697
  581TIP3    H123158   4.118   4.035  16.941 -2.1157  0.0456 -0.9521
  581TIP3    H223159   4.233   4.039  16.843 -0.0924  0.4657  1.3960
  582TIP3   OH223160   0.940   5.656  12.964  0.4033  0.3061  0.0075
  582TIP3    H123161   0.912   5.729  12.909 -0.3145 -0.2267 -0.3401
  582TIP3    H223162   0.862   5.634  13.016  0.8976  0.4201  0.8115
  583TIP3   OH223163   2.136   0.874  16.281  0.3474  0.0827 -0.2949
  583TIP3    H123164   2.178   0.828  16.354 -0.7165 -1.0642 -0.3986
  583TIP3    H223165   2.054   0.828  16.266  0.5318  0.3064 -2.2142
  584TIP3   OH223166   0.645   6.637   1.899  0.3304  0.4292 -0.1693
  584TIP3    H123167   0.736   6.631   1.869  0.6500 -1.4090  1.0733
  584TIP3    H223168   0.598   6.575   1.844  0.1990 -0.0640  0.4918
  585TIP3   OH223169   0.954   0.165   1.910  0.1031 -0.0371  0.8257
  585TIP3    H123170   0.918   0.243   1.867  1.5123 -0.0441 -0.4012
  585TIP3    H223171   0.879   0.126   1.954 -0.8919  1.3022  0.3674
  586TIP3   OH223172   4.840   0.222   0.461 -0.0130  0.3524  0.2199
  586TIP3    H123173   4.776   0.234   0.531 -1.3798 -0.5593 -0.8236
  586TIP3    H223174   4.914   0.178   0.502 -0.7588 -0.0835  1.1102
  587TIP3   OH223175   6.554   4.561   3.226 -0.1654  0.4018  0.1456
  587TIP3    H123176   6.472   4.602   3.197  0.0690  0.0308 -1.0904
  587TIP3    H223177   6.526   4.487   3.281 -0.6395  0.7958  0.4339
  588TIP3   OH223178   5.376   2.343   4.790 -0.5821  0.3311  0.1858
  588TIP3    H123179   5.457   2.388   4.814 -0.2950 -0.3037  0.4396
  588TIP3    H223180   5.406   2.266   4.741 -0.9962 -0.2334  0.8110
  589TIP3   OH223181   2.266   4.248  16.762  0.3842  0.4206 -0.2562
  589TIP3    H123182   2.327   4.321  16.755  0.6142  0.4451  1.8019
  589TIP3    H223183   2.211   4.269  16.838  0.3144 -1.4327  0.2313
  590TIP3   OH223184   4.393   1.879  11.898 -0.6084 -0.2133  0.3274
  590TIP3    H123185   4.459   1.835  11.843  0.5608  1.4886  0.3168
  590TIP3    H223186   4.312   1.832  11.880  0.8449 -3.2966  1.4153
  591TIP3   OH223187   4.527   0.841  16.332  0.1731 -0.0586 -0.3782
  591TIP3    H123188   4.605   0.867  16.381 -0.3631  1.7270 -0.4443
  591TIP3    H223189   4.459   0.901  16.362 -1.3674 -2.0493  0.1899
  592TIP3   OH223190   0.020   4.690  12.714  0.2650  0.2688 -0.4768
  592TIP3    H123191  -0.068   4.672  12.683  0.6516  0.7080 -1.8768
  592TIP3    H223192   0.077   4.634  12.661  1.1395  2.7686 -2.3228
  593TIP3   OH223193   1.186   1.253  16.620 -0.4270 -0.1794  0.2805
  593TIP3    H123194   1.196   1.304  16.540  0.6865  0.3595  0.7610
  593TIP3    H223195   1.111   1.196  16.603 -0.9883  0.8313 -0.6728
  594TIP3   OH223196   4.433   1.420  16.089 -0.1894  0.2781 -0.3009
  594TIP3    H123197   4.438   1.325  16.081  0.6687  0.3796 -1.0560
  594TIP3    H223198   4.506   1.443  16.146 -0.5791  0.4594  0.1280
  595TIP3   OH223199   0.230   3.856   1.050 -0.1964  0.0639 -0.3844
  595TIP3    H123200   0.173   3.832   1.123  0.7993  2.5157  1.3179
  595TIP3    H223201   0.177   3.845   0.972 -1.4483 -2.2096  0.7559
  596TIP3   OH223202   5.703   3.688  17.023  0.6057  0.8045 -0.0936
  596TIP3    H123203   5.799   3.689  17.022  0.5858  2.6012 -1.9720
  596TIP3    H223204   5.679   3.623  16.958  0.5231 -1.2765  1.9446
  597TIP3   OH223205   1.370   6.505  12.465 -0.2061 -0.1801  0.2405
  597TIP3    H123206   1.415   6.590  12.473  0.5974 -0.3672 -1.8539
  597TIP3    H223207   1.280   6.527  12.441  0.3333  0.0785 -1.6227
  598TIP3   OH223208   2.005   5.226  16.816  0.4035  0.0018  0.3769
  598TIP3    H123209   1.913   5.253  16.811  0.2137 -0.3730  1.6261
  598TIP3    H223210   2.029   5.204  16.726 -1.6348 -2.8485  0.4880
  599TIP3   OH223211   4.957   2.881   3.958  0.5746  0.3643  0.0077
  599TIP3    H123212   5.048   2.910   3.957  0.3557  1.0770  0.2757
  599TIP3    H223213   4.949   2.830   4.038  0.6257  0.6895  0.2228
  600TIP3   OH223214   1.670   6.050   1.947 -0.0175  0.1193 -0.2350
  600TIP3    H123215   1.634   6.032   2.034  1.3137 -1.9807 -0.0882
  600TIP3    H223216   1.765   6.056   1.961  0.0852  1.1050 -1.3255
  601TIP3   OH223217   5.890   2.411   4.133  0.1968  0.0472  0.0118
  601TIP3    H123218   5.912   2.384   4.044  1.8827 -0.0325  0.4354
  601TIP3    H223219   5.960   2.374   4.187 -0.2459  0.9659  1.2280
  602TIP3   OH223220   3.475   6.372   6.034 -0.0235  0.0507 -0.1562
  602TIP3    H123221   3.560   6.372   6.078 -0.5124  1.7096  0.8556
  602TIP3    H223222   3.411   6.382   6.104 -0.8954  1.3948 -1.1051
  603TIP3   OH223223   1.329   6.588   1.932 -0.2619  0.1598 -0.0021
  603TIP3    H123224   1.317   6.512   1.989 -0.7973  0.0695 -0.2377
  603TIP3    H223225   1.333   6.551   1.844 -1.2971  0.4698 -0.1873
  604TIP3   OH223226   6.181   3.268   4.247  0.6260  0.5701  0.3198
  604TIP3    H123227   6.200   3.357   4.216 -1.6978  0.8827 -0.3278
  604TIP3    H223228   6.103   3.278   4.301  1.1023 -0.9031  1.3184
  605TIP3   OH223229   4.578   2.721   0.355  0.0446  0.3000  0.1689
  605TIP3    H123230   4.567   2.797   0.411  1.3884  0.7767 -0.1979
  605TIP3    H223231   4.551   2.647   0.409  0.2182  0.8807  1.0515
  606TIP3   OH223232   5.810   3.984   5.539 -0.0934  0.0465 -0.3666
  606TIP3    H123233   5.750   3.970   5.612 -0.0127  0.6802 -0.1799
  606TIP3    H223234   5.793   3.911   5.480  1.7062 -1.9783  1.5186
  607TIP3   OH223235   0.327   4.673  13.337 -0.0979  0.4323 -0.5570
  607TIP3    H123236   0.321   4.647  13.429 -3.1463 -1.2050 -1.1525
  607TIP3    H223237   0.357   4.764  13.340 -1.6135  0.9058  2.1526
  608TIP3   OH223238   1.396   5.802  15.881 -0.4458  0.1634 -0.0584
  608TIP3    H123239   1.467   5.739  15.863  0.3327  1.1324 -0.4228
  608TIP3    H223240   1.414   5.832  15.970 -0.9490 -0.3025  0.1987
  609TIP3   OH223241   3.820   1.793  16.010  0.2436 -0.0788  0.7099
  609TIP3    H123242   3.809   1.732  16.083 -0.5440 -1.6379 -0.6606
  609TIP3    H223243   3.898   1.761  15.965 -0.0781  0.0146  0.0806
  610TIP3   OH223244   2.488   2.217   4.630  0.0039  0.2055  0.1968
  610TIP3    H123245   2.580   2.242   4.624 -0.2727  1.0439 -0.6029
  610TIP3    H223246   2.440   2.291   4.594 -0.9425 -0.6312 -0.2989
  611TIP3   OH223247   1.882   5.090  11.461  0.3071 -1.1907 -0.1090
  611TIP3    H123248   1.823   5.047  11.398 -0.5950  1.4889 -1.1685
  611TIP3    H223249   1.838   5.173  11.481  3.2744  0.4583 -0.2135
  612TIP3   OH223250   1.648   0.037   6.068 -0.5414  0.5538 -0.1123
  612TIP3    H123251   1.687   0.108   6.119  1.3283 -1.2962  1.0559
  612TIP3    H223252   1.717   0.009   6.008 -1.2062 -0.4255 -0.4429
  613TIP3   OH223253   0.240   4.379   6.033  0.1458  0.1560 -0.6714
  613TIP3    H123254   0.245   4.376   6.128 -0.7470  0.3508 -0.6119
  613TIP3    H223255   0.298   4.451   6.007  1.3955 -0.7272 -0.3660
  614TIP3   OH223256   1.170   5.943   0.820  0.4315  0.7852  0.0545
  614TIP3    H123257   1.238   5.923   0.755 -1.4363 -1.1801 -1.3461
  614TIP3    H223258   1.125   6.019   0.785  2.3173  2.5737  1.3598
  615TIP3   OH223259   4.238   6.183   2.569 -0.2288  0.0110 -0.0389
  615TIP3    H123260   4.255   6.214   2.658  1.8936  0.5805 -0.6237
  615TIP3    H223261   4.242   6.262   2.516 -0.7898 -0.4317 -0.7403
  616TIP3   OH223262   0.982   3.619  16.489 -0.1456 -0.2476  0.5593
  616TIP3    H123263   0.934   3.542  16.520 -0.0234 -0.3855  0.4070
  616TIP3    H223264   0.935   3.646  16.410  2.7906 -3.2553 -2.3915
  617TIP3   OH223265   4.917   1.727  14.441 -0.2531 -0.7611  0.4254
  617TIP3    H123266   4.821   1.736  14.443 -0.1947 -0.0382  0.0314
  617TIP3    H223267   4.950   1.809  14.478  0.2166 -0.9110  0.3431
  618TIP3   OH223268   3.361   0.517  14.185  0.2896 -0.4293  0.4618
  618TIP3    H123269   3.323   0.571  14.115  1.2444 -0.0749  0.2051
  618TIP3    H223270   3.317   0.433  14.177 -0.9493  0.1964  0.6275
  619TIP3   OH223271   3.230   2.131   1.062 -0.0033 -0.0342 -0.1120
  619TIP3    H123272   3.231   2.040   1.031  1.3037  0.0173 -0.2224
  619TIP3    H223273   3.321   2.158   1.061 -0.4479  1.4702 -0.5960
  620TIP3   OH223274   6.066   1.750  12.546 -0.0301  0.1054  0.9310
  620TIP3    H123275   5.980   1.716  12.571  0.1902 -0.9661  0.2875
  620TIP3    H223276   6.126   1.679  12.567  0.3613 -0.2239 -1.1347
  621TIP3   OH223277   6.093   1.499   0.022  0.5566  0.2026  0.0926
  621TIP3    H123278   6.030   1.566   0.047  1.0197 -0.3803  2.9529
  621TIP3    H223279   6.043   1.439  -0.034 -0.9934  0.6181  0.9969
  622TIP3   OH223280   0.267   0.075   4.562  0.3190  0.2210  0.3084
  622TIP3    H123281   0.262   0.165   4.528 -1.0201  0.3536  0.8231
  622TIP3    H223282   0.341   0.077   4.623  0.2639  0.9910  0.3575
  623TIP3   OH223283   3.018   0.747  11.288  0.2232  0.2178 -0.4273
  623TIP3    H123284   3.097   0.693  11.291 -0.6051 -0.9437  1.0242
  623TIP3    H223285   2.991   0.755  11.380 -1.6233  0.1795 -0.9507
  624TIP3   OH223286   1.477   5.470   1.619  0.3804  0.0852 -0.0932
  624TIP3    H123287   1.505   5.453   1.709 -1.0022 -0.2604  0.2880
  624TIP3    H223288   1.513   5.556   1.598 -0.6639  0.9009  1.3701
  625TIP3   OH223289   3.026   2.153  13.246 -0.0321  0.3298  0.0053
  625TIP3    H123290   3.101   2.159  13.305  1.8012 -0.8704 -2.1099
  625TIP3    H223291   3.038   2.226  13.185  0.7907 -1.3123 -1.8316
  626TIP3   OH223292   5.845   2.750   5.152  0.3248  0.7815  0.1986
  626TIP3    H123293   5.770   2.753   5.211  0.8262 -2.2341  1.1031
  626TIP3    H223294   5.812   2.783   5.068 -1.7199  0.4849  0.8781
  627TIP3   OH223295   2.107   0.008   4.626  0.2526  0.0625  0.4756
  627TIP3    H123296   2.015   0.029   4.607 -0.1266 -1.3020  0.7398
  627TIP3    H223297   2.110  -0.088   4.623  0.8676 -0.0939  4.1120
  628TIP3   OH223298   4.568   1.615   2.373 -0.4902  0.0178  0.4818
  628TIP3    H123299   4.510   1.544   2.345 -0.2344 -0.0167  0.0436
  628TIP3    H223300   4.580   1.669   2.295 -0.3513  0.3128  0.7070
  629TIP3   OH223301   2.038   4.709   4.830  0.0993 -0.3166 -0.3059
  629TIP3    H123302   2.059   4.707   4.923 -0.2825  1.3863 -0.1694
  629TIP3    H223303   2.120   4.685   4.786  1.0567  1.5677  0.3897
  630TIP3   OH223304   2.257   6.383   4.239 -0.6059 -0.5482  0.2530
  630TIP3    H123305   2.321   6.340   4.181  0.4514 -1.1213  1.8121
  630TIP3    H223306   2.255   6.327   4.317 -1.9040  0.2936  0.8292
  631TIP3   OH223307   5.137   4.178  14.665  0.1972 -0.0289 -0.4170
  631TIP3    H123308   5.120   4.239  14.737 -1.0731 -0.1340 -0.6211
  631TIP3    H223309   5.226   4.147  14.681  0.4668  1.0671  0.2846
  632TIP3   OH223310   2.032   5.997  14.969  0.5074  0.0773 -0.4415
  632TIP3    H123311   2.096   6.064  14.945 -0.5686  1.1933 -0.2505
  632TIP3    H223312   1.952   6.025  14.925 -0.4405 -0.0518  1.2014
  633TIP3   OH223313   3.801   2.852  13.370 -0.3710  0.0097  0.0072
  633TIP3    H123314   3.744   2.911  13.420 -0.2975 -0.2791  0.4383
  633TIP3    H223315   3.744   2.814  13.304 -0.3384  0.8425 -0.5160
  634TIP3   OH223316   5.447   2.606  12.780  0.1541 -0.1034  0.3676
  634TIP3    H123317   5.390   2.589  12.854  1.0943 -1.1992  0.8513
  634TIP3    H223318   5.516   2.540  12.786  1.6427  1.3748 -0.0333
  635TIP3   OH223319   1.190   2.411   6.016 -0.4527  0.1711  0.0424
  635TIP3    H123320   1.276   2.377   6.041 -1.7730 -1.2218  2.9021
  635TIP3    H223321   1.186   2.498   6.056  0.3023  1.0200 -1.6567
  636TIP3   OH223322   5.367   2.638   2.520  0.8014 -0.1601  0.4435
  636TIP3    H123323   5.411   2.697   2.459  0.6688 -1.7795 -1.2595
  636TIP3    H223324   5.281   2.679   2.535  1.4712  1.1204  0.9178
  637TIP3   OH223325   6.157   3.295  12.266 -0.0125  0.6237 -0.3886
  637TIP3    H123326   6.070   3.336  12.263 -0.4611 -0.2732  0.2217
  637TIP3    H223327   6.167   3.252  12.181 -0.0269  1.0027 -0.5838
  638TIP3   OH223328   0.871   4.358   0.188  0.0630  0.3553  0.8995
  638TIP3    H123329   0.924   4.437   0.200 -0.1714  0.3291  2.1336
  638TIP3    H223330   0.780   4.389   0.190 -0.0007  0.3299 -0.7100
  639TIP3   OH223331   0.950   5.215   1.608  0.0755 -0.2561 -0.0383
  639TIP3    H123332   0.929   5.132   1.564 -1.7572  0.3600 -0.3655
  639TIP3    H223333   0.931   5.282   1.542  0.7583  0.4701  0.5042
  640TIP3   OH223334   6.637   3.441   5.341  0.1789 -0.2784 -0.2026
  640TIP3    H123335   6.584   3.363   5.325 -0.9564  0.1291  1.4214
  640TIP3    H223336   6.725   3.416   5.313 -0.1499 -2.1717  0.3493
  641TIP3   OH223337   1.485   0.267   1.314  0.0748  0.3632 -0.0559
  641TIP3    H123338   1.445   0.224   1.389 -0.3044  0.3575 -0.2605
  641TIP3    H223339   1.533   0.341   1.352  0.2384  0.1060  0.2338
  642TIP3   OH223340   4.193   5.619  11.341 -0.5997 -0.1611 -0.3893
  642TIP3    H123341   4.110   5.573  11.330 -0.5734 -0.0600 -1.0158
  642TIP3    H223342   4.168   5.710  11.356 -0.5931 -0.0885 -0.8205
  643TIP3   OH223343   4.601   5.806  14.262  0.5803  0.8107 -0.6787
  643TIP3    H123344   4.603   5.901  14.252 -0.9076  0.9555  0.2297
  643TIP3    H223345   4.553   5.775  14.185 -0.1889  0.9203 -0.2475
  644TIP3   OH223346   6.070   2.192  17.171  0.4301 -0.5502 -0.3791
  644TIP3    H123347   6.112   2.269  17.211 -0.3967 -0.2409 -0.0878
  644TIP3    H223348   6.123   2.118  17.200 -0.1129 -0.3241  1.2507
  645TIP3   OH223349   4.440   6.523  12.458  0.0293  0.7417 -0.0309
  645TIP3    H123350   4.402   6.593  12.513  1.1071  0.6109  0.8915
  645TIP3    H223351   4.378   6.514  12.385 -1.6408  0.6393  1.3709
  646TIP3   OH223352   4.374   3.177   3.134 -0.0786  0.0172  0.2019
  646TIP3    H123353   4.312   3.249   3.144 -0.5912 -0.4653  0.4733
  646TIP3    H223354   4.460   3.219   3.141 -0.3748  0.2958  2.6358
  647TIP3   OH223355   1.056   3.948  12.898 -0.2886  0.3712 -0.0297
  647TIP3    H123356   1.109   3.898  12.959  2.4524  0.7230 -2.0055
  647TIP3    H223357   0.989   3.887  12.869  1.5056 -1.4269 -0.5209
  648TIP3   OH223358   1.813   1.074  17.218 -0.7591  0.6562 -0.3744
  648TIP3    H123359   1.759   1.003  17.183 -1.2344  0.1263  1.3844
  648TIP3    H223360   1.901   1.056  17.187 -1.2665  0.5224 -1.7614
  649TIP3   OH223361   1.648   4.043   3.075 -0.1967  0.0569 -0.3748
  649TIP3    H123362   1.571   4.083   3.115  0.1453 -0.3122  0.6809
  649TIP3    H223363   1.619   4.018   2.987 -1.2912 -0.1057  0.0200
  650TIP3   OH223364   6.554   5.516  11.023  0.4174 -0.3064  0.0591
  650TIP3    H123365   6.575   5.427  10.996  3.1023  0.7020 -1.4523
  650TIP3    H223366   6.609   5.532  11.100  1.4290  0.6570 -0.8387
  651TIP3   OH223367   1.073   2.851  12.607 -0.2290 -0.1447  0.1672
  651TIP3    H123368   1.119   2.931  12.631  1.9394 -0.7902 -1.6891
  651TIP3    H223369   1.056   2.807  12.690 -1.3852  2.1538  1.2107
  652TIP3   OH223370   0.445   6.748   2.982 -0.5585  0.2100  0.6585
  652TIP3    H123371   0.487   6.690   3.045 -3.5426 -0.7582  1.7997
  652TIP3    H223372   0.435   6.832   3.028 -0.5251  0.2327  0.6249
  653TIP3   OH223373   1.673   3.802  11.782  0.2269  0.1401  0.2528
  653TIP3    H123374   1.691   3.896  11.787  0.3446  0.1578 -0.4062
  653TIP3    H223375   1.730   3.771  11.712 -0.0147 -0.3774  0.2845
  654TIP3   OH223376   0.048   1.918  13.714 -0.1041  0.0570  0.3940
  654TIP3    H123377   0.107   1.846  13.736  1.4077  1.1357 -0.0108
  654TIP3    H223378  -0.016   1.920  13.785  0.9031 -0.5499  1.3269
  655TIP3   OH223379   4.909   1.647   2.834  0.2677  0.0950  0.0667
  655TIP3    H123380   4.842   1.597   2.881  0.4602 -1.9933 -1.7951
  655TIP3    H223381   4.970   1.676   2.902 -0.0026 -1.9837  1.2210
  656TIP3   OH223382   2.284   5.050  13.739 -0.0194  0.0681 -0.0233
  656TIP3    H123383   2.328   5.064  13.656 -1.8546  1.2902 -0.8278
  656TIP3    H223384   2.236   4.968  13.728  0.5991 -0.3306  0.2215
  657TIP3   OH223385   4.370   1.622   5.407 -0.0347  0.0245 -0.0759
  657TIP3    H123386   4.447   1.650   5.357 -0.0786 -1.2678 -0.9010
  657TIP3    H223387   4.385   1.529   5.422 -0.8572  0.0407  0.8355
  658TIP3   OH223388   3.747   3.142   1.399 -0.2178 -0.2624  0.3637
  658TIP3    H123389   3.652   3.141   1.385 -0.3855  0.5622  1.3675
  658TIP3    H223390   3.770   3.235   1.403  0.8750 -0.4286 -1.3501
  659TIP3   OH223391   6.628   4.801   0.624 -0.0862  0.2244  0.0081
  659TIP3    H123392   6.539   4.768   0.634  0.1007 -0.3426 -0.1832
  659TIP3    H223393   6.620   4.896   0.638 -0.6292  0.1067  0.4993
  660TIP3   OH223394   0.948   6.010   2.333  0.0354  0.1330 -0.2763
  660TIP3    H123395   0.916   5.996   2.243 -0.9124  1.1945 -0.1184
  660TIP3    H223396   0.869   6.034   2.383  0.8646  1.5752  0.3889
  661TIP3   OH223397   6.484   0.503   5.208 -0.2493 -0.1652 -0.0595
  661TIP3    H123398   6.540   0.489   5.284  0.3046 -0.1655 -0.4685
  661TIP3    H223399   6.397   0.475   5.237  0.1553 -1.0876  0.2679
  662TIP3   OH223400   0.779   2.994  15.666  0.1835 -0.3334  0.7962
  662TIP3    H123401   0.745   2.979  15.754  2.7337  0.0009  1.8811
  662TIP3    H223402   0.870   2.964  15.670  1.3996  2.9480 -0.7188
  663TIP3   OH223403   4.168   1.788  11.710 -0.0075 -0.5719  0.1757
  663TIP3    H123404   4.207   1.867  11.674 -0.6444 -0.6049 -0.6184
  663TIP3    H223405   4.207   1.716  11.660 -0.0918 -0.6977  0.2887
  664TIP3   OH223406   1.048   4.644   5.590  0.1731  0.3191  0.1589
  664TIP3    H123407   1.089   4.723   5.557  0.7687 -1.1937 -2.9422
  664TIP3    H223408   1.121   4.585   5.610 -0.3073 -1.1621 -2.2033
  665TIP3   OH223409   5.762   5.661   3.064 -0.5258  0.3400  0.7832
  665TIP3    H123410   5.723   5.737   3.108 -1.7233 -1.2678  2.6170
  665TIP3    H223411   5.836   5.637   3.120  1.1908  1.4603 -0.9772
  666TIP3   OH223412   4.539   3.935   4.851 -0.1412 -0.0359 -0.8206
  666TIP3    H123413   4.460   3.887   4.826  0.6982 -1.6359 -0.4830
  666TIP3    H223414   4.564   3.897   4.935  2.3405 -1.2607 -2.0550
  667TIP3   OH223415   6.255   6.745   0.300  0.1540 -0.1883 -0.0129
  667TIP3    H123416   6.255   6.821   0.359  0.2254  0.5400 -0.9386
  667TIP3    H223417   6.167   6.745   0.261 -1.1719 -2.8164  2.7907
  668TIP3   OH223418   1.445   4.518   3.299 -0.2854 -0.1586 -0.0736
  668TIP3    H123419   1.475   4.590   3.242 -1.8804 -0.8289 -1.8295
  668TIP3    H223420   1.349   4.521   3.291 -0.5164 -0.5328  2.3019
  669TIP3   OH223421   0.170   4.329   5.764  0.1513  0.5710  0.3083
  669TIP3    H123422   0.187   4.255   5.706 -0.7596  0.3641  0.2906
  669TIP3    H223423   0.209   4.303   5.848  1.7862  1.0232 -0.2990
  670TIP3   OH223424   5.689   4.644   5.812 -0.5133 -0.5581  0.0821
  670TIP3    H123425   5.697   4.739   5.804 -0.8596 -0.5160  0.2090
  670TIP3    H223426   5.756   4.620   5.875  0.4107 -0.5558 -0.8878
  671TIP3   OH223427   1.418   3.018   2.923 -0.1700  0.1724  0.2340
  671TIP3    H123428   1.339   3.016   2.869 -0.6004  0.5890  0.8262
  671TIP3    H223429   1.486   3.051   2.865 -0.3749 -0.4469 -0.3605
  672TIP3   OH223430   4.460   5.338   3.231 -0.1187  0.4478 -0.1601
  672TIP3    H123431   4.394   5.407   3.243  2.3177  2.4236  2.5913
  672TIP3    H223432   4.464   5.325   3.136 -3.7467  0.9366 -0.4595
  673TIP3   OH223433   2.067   4.637  12.777 -0.1608  0.1772  0.4739
  673TIP3    H123434   2.104   4.561  12.823 -0.3906  0.2184  0.7289
  673TIP3    H223435   1.976   4.612  12.759 -0.1358  0.2529  0.2460
  674TIP3   OH223436   0.300   2.433  15.340 -0.7360 -0.0387 -0.3205
  674TIP3    H123437   0.390   2.465  15.339 -0.6672 -0.0553  1.6554
  674TIP3    H223438   0.308   2.337  15.336 -0.6323 -0.0517  0.1046
  675TIP3   OH223439   5.481   2.982  11.229 -0.4763 -0.4249  0.6473
  675TIP3    H123440   5.436   2.994  11.145 -0.6895  0.2286  0.8526
  675TIP3    H223441   5.463   3.062  11.277  1.7949  0.3335  0.3228
  676TIP3   OH223442   5.234   3.498   4.210 -0.3331  0.2628  0.1619
  676TIP3    H123443   5.171   3.505   4.138 -1.7102  1.9670  1.5044
  676TIP3    H223444   5.300   3.564   4.189 -2.4329  3.0650  2.0779
  677TIP3   OH223445   0.031   0.278   4.746  0.5702  0.1945  0.0333
  677TIP3    H123446   0.021   0.369   4.771 -1.4204  0.3914 -1.3798
  677TIP3    H223447   0.092   0.279   4.672  0.1169  0.4402 -0.3366
  678TIP3   OH223448   4.624   2.124   5.609  0.4298 -0.1110 -0.1106
  678TIP3    H123449   4.537   2.091   5.634  0.1368  0.5912 -0.1906
  678TIP3    H223450   4.675   2.045   5.589 -0.0044 -0.5635  0.5320
  679TIP3   OH223451   5.932   3.246  16.557  0.2877  0.1719  0.0188
  679TIP3    H123452   5.997   3.288  16.613  0.8286  0.9941 -1.2108
  679TIP3    H223453   5.939   3.291  16.473 -2.1745  0.5617 -0.0142
  680TIP3   OH223454   1.370   6.520   4.820 -0.0091  0.0562  0.2483
  680TIP3    H123455   1.433   6.581   4.859  0.0590  1.1758 -1.5543
  680TIP3    H223456   1.317   6.491   4.894  2.4943 -0.8011  1.7831
  681TIP3   OH223457   6.593   2.132   3.139  0.0404 -0.1262  0.2693
  681TIP3    H123458   6.615   2.101   3.051  1.5274 -0.6719  0.8183
  681TIP3    H223459   6.508   2.175   3.129  0.5843  0.5351 -1.5803
  682TIP3   OH223460   6.742   6.772  11.708 -0.3411  0.2774  0.2944
  682TIP3    H123461   6.657   6.786  11.666 -0.5241 -4.8359 -1.3740
  682TIP3    H223462   6.745   6.678  11.726  4.2668  0.5888  1.8740
  683TIP3   OH223463   5.460   1.157  16.630  0.0761 -0.1996 -0.0362
  683TIP3    H123464   5.454   1.229  16.693  0.8309 -0.9769  0.9345
  683TIP3    H223465   5.519   1.190  16.562 -0.5200  0.5419 -0.1856
  684TIP3   OH223466   4.625   5.028   0.371 -0.3429 -0.1009 -0.2799
  684TIP3    H123467   4.650   5.029   0.279 -0.7148  0.3138 -0.3781
  684TIP3    H223468   4.596   4.938   0.387  0.5273 -0.3929 -0.3485
  685TIP3   OH223469   2.697   5.490  16.797 -0.0587  0.0918 -0.2870
  685TIP3    H123470   2.755   5.558  16.763  0.2011 -0.8093 -1.7115
  685TIP3    H223471   2.674   5.519  16.885  2.0600  0.7516  0.0616
  686TIP3   OH223472   0.336   2.818  15.693  0.2226  0.0498  0.0870
  686TIP3    H123473   0.416   2.794  15.645  0.3435  1.1998 -0.2904
  686TIP3    H223474   0.267   2.767  15.650  0.7270 -0.8313  0.3152
  687TIP3   OH223475   3.114   3.572  13.859  0.5354  0.2600  0.2132
  687TIP3    H123476   3.168   3.566  13.780  1.4818  0.5998  0.8162
  687TIP3    H223477   3.146   3.502  13.915 -0.2922 -0.1264  0.2094
  688TIP3   OH223478   3.368   6.605   2.540 -0.4002  0.0184  0.1452
  688TIP3    H123479   3.300   6.608   2.473  0.4148  1.7878 -0.6408
  688TIP3    H223480   3.342   6.670   2.604 -0.2180 -0.3595  0.6097
  689TIP3   OH223481   4.470   1.343   3.147 -0.3424  0.0776 -0.7770
  689TIP3    H123482   4.548   1.294   3.174 -0.4935  0.9435  1.3862
  689TIP3    H223483   4.409   1.332   3.221 -1.7688  0.4803 -1.8737
  690TIP3   OH223484   3.186   6.432   1.599  0.4462 -0.1071  0.7951
  690TIP3    H123485   3.091   6.417   1.603  0.4856 -0.2033  1.3134
  690TIP3    H223486   3.194   6.523   1.569  0.2089 -0.8197 -1.5558
  691TIP3   OH223487   2.902   3.736   4.147  0.4402 -0.2246  0.0734
  691TIP3    H123488   2.953   3.721   4.227  0.0308 -2.5460 -0.0940
  691TIP3    H223489   2.950   3.806   4.102  1.7458 -0.2226  1.4042
  692TIP3   OH223490   3.126   2.266   3.333  0.4341  0.1856  0.3543
  692TIP3    H123491   3.056   2.332   3.329 -0.4841 -0.7626  0.7018
  692TIP3    H223492   3.135   2.246   3.426  3.4743  2.7280  0.6942
  693TIP3   OH223493   0.607   1.590   2.704  0.4390  0.0390  0.0525
  693TIP3    H123494   0.516   1.574   2.679  0.5472  1.5828 -1.4083
  693TIP3    H223495   0.633   1.510   2.750 -0.3158 -2.2420 -3.2583
  694TIP3   OH223496   5.876   4.111  11.413 -0.0139 -0.4956  0.3591
  694TIP3    H123497   5.798   4.068  11.447 -0.4202 -0.3329 -0.3599
  694TIP3    H223498   5.875   4.092  11.319 -0.5709  1.6027 -0.1024
  695TIP3   OH223499   6.299   2.777  14.356 -0.2066  0.2945 -0.2234
  695TIP3    H123500   6.372   2.728  14.395 -0.1673 -0.0717 -0.7491
  695TIP3    H223501   6.259   2.715  14.295  1.6269  1.7630 -3.0632
  696TIP3   OH223502   4.948   4.894   1.415  0.5911  0.3625 -0.1048
  696TIP3    H123503   4.880   4.938   1.465  0.6662  0.7493 -0.3378
  696TIP3    H223504   5.001   4.848   1.480  0.2292  0.2281  0.0929
  697TIP3   OH223505   0.846   4.831   5.325 -0.1679 -0.1925  0.0389
  697TIP3    H123506   0.864   4.739   5.344 -0.7665 -0.6082 -1.3573
  697TIP3    H223507   0.779   4.856   5.389 -2.2274 -1.6019 -1.5121
  698TIP3   OH223508   0.589   5.660   3.947 -0.2431 -0.0258  0.0649
  698TIP3    H123509   0.662   5.647   3.887  0.2623  0.8637  0.4792
  698TIP3    H223510   0.590   5.583   4.004  0.4174  0.0193  0.1169
  699TIP3   OH223511   3.038   2.707  13.139 -0.1454  0.3026  0.0647
  699TIP3    H123512   3.011   2.647  13.069  0.2522 -0.7323  0.7768
  699TIP3    H223513   3.009   2.793  13.110 -0.5124 -0.2053 -1.0957
  700TIP3   OH223514   2.517   5.975   5.353 -0.1231  0.1914 -0.2342
  700TIP3    H123515   2.539   5.944   5.265 -3.2811  1.9626 -1.7489
  700TIP3    H223516   2.489   6.066   5.340  0.1830  0.7504  2.7445
  701TIP3   OH223517   4.215   2.716  13.284  0.3717 -0.3053  0.4384
  701TIP3    H123518   4.197   2.650  13.218 -0.3833  0.1344  0.2051
  701TIP3    H223519   4.310   2.727  13.282  0.2424  0.5411 -1.3792
  702TIP3   OH223520   4.893   3.519  15.423  0.1510  0.1124 -0.0728
  702TIP3    H123521   4.985   3.534  15.403 -0.3153  1.8104 -1.0878
  702TIP3    H223522   4.877   3.572  15.502 -0.1227  0.3856 -0.3114
  703TIP3   OH223523   1.529   0.482   3.761  0.1806  0.2760 -0.3482
  703TIP3    H123524   1.591   0.408   3.762 -0.1241  0.0197 -0.0289
  703TIP3    H223525   1.583   0.558   3.740  0.0500 -0.4302 -3.4928
  704TIP3   OH223526   4.106   2.618  16.289 -0.7583 -0.5476 -0.3714
  704TIP3    H123527   4.094   2.547  16.226  2.0275 -1.3695 -0.0471
  704TIP3    H223528   4.159   2.682  16.243 -0.2316 -0.3243  0.5445
  705TIP3   OH223529   1.336   6.288  16.803  0.0775 -0.1531  0.1454
  705TIP3    H123530   1.245   6.298  16.776 -0.0763  0.9340  1.0061
  705TIP3    H223531   1.337   6.209  16.857  0.0030 -1.1872 -1.3592
  706TIP3   OH223532   0.281   5.687  15.406  0.6044  0.3869  0.1354
  706TIP3    H123533   0.223   5.746  15.358 -0.8677 -0.9132  0.2537
  706TIP3    H223534   0.230   5.664  15.484  0.6978 -1.8583 -0.4342
  707TIP3   OH223535   1.129   3.289   2.232 -0.0714  0.1926  0.2186
  707TIP3    H123536   1.207   3.336   2.264 -0.6880  0.8685  0.7359
  707TIP3    H223537   1.144   3.280   2.137 -0.3662  2.2423 -0.0334
  708TIP3   OH223538   2.252   3.867  16.053  0.0411  0.4315  0.2204
  708TIP3    H123539   2.264   3.792  16.111 -0.8729  1.3071  1.5457
  708TIP3    H223540   2.327   3.924  16.072 -0.1718  0.6443  0.4148
  709TIP3   OH223541   4.926   6.066  15.683  0.0407 -0.0899  0.2291
  709TIP3    H123542   5.015   6.056  15.649  0.2645 -1.7716  1.2790
  709TIP3    H223543   4.873   6.090  15.606  1.7040  2.8536 -0.0626
  710TIP3   OH223544   3.667   2.569  14.417 -0.1508  0.2752  0.6789
  710TIP3    H123545   3.635   2.594  14.503  0.0231 -1.5502  1.3031
  710TIP3    H223546   3.604   2.503  14.387 -0.1684  0.8423 -0.5545
  711TIP3   OH223547   5.356   6.623  13.042 -0.0978  0.2537  0.5310
  711TIP3    H123548   5.437   6.572  13.048 -0.5890 -1.0473 -2.7805
  711TIP3    H223549   5.383   6.712  13.062  1.5753 -0.5989  2.3355
  712TIP3   OH223550   3.448   2.415  13.378 -0.0382 -0.6826  0.1461
  712TIP3    H123551   3.466   2.366  13.458 -2.4137  1.5659  2.1225
  712TIP3    H223552   3.471   2.505  13.399  0.9213 -0.2927 -2.3024
  713TIP3   OH223553   4.044   6.523  12.200  0.2679 -0.1324  0.3314
  713TIP3    H123554   3.998   6.483  12.274 -0.8543  0.2672 -0.1403
  713TIP3    H223555   4.050   6.454  12.134  0.0589 -0.0830  0.2616
  714TIP3   OH223556   1.779   6.288   0.093  0.3942  0.1514 -0.3152
  714TIP3    H123557   1.875   6.296   0.093  0.5944 -1.9432 -0.6023
  714TIP3    H223558   1.755   6.287   0.001  0.1242  0.2135 -0.2466
  715TIP3   OH223559   6.533   1.239   5.717  0.3401 -0.3579 -0.0665
  715TIP3    H123560   6.512   1.256   5.625  0.0392  0.2736  0.1183
  715TIP3    H223561   6.568   1.150   5.717  1.0478 -0.0847 -0.9004
  716TIP3   OH223562   2.073   3.465  13.470 -0.2241 -0.1107 -0.1321
  716TIP3    H123563   2.166   3.450  13.454 -0.7445  0.0099 -3.7448
  716TIP3    H223564   2.063   3.560  13.463 -0.3261  0.0691  2.1857
  717TIP3   OH223565   2.172   3.956  16.944  0.0279 -0.0420 -0.8487
  717TIP3    H123566   2.152   4.039  16.988 -0.7229 -0.7777  0.1869
  717TIP3    H223567   2.267   3.957  16.933  0.4026 -0.4866  2.0598
  718TIP3   OH223568   4.708   0.241  16.396 -0.2853  0.1220 -0.0768
  718TIP3    H123569   4.686   0.165  16.451  0.9884 -0.7802 -0.7869
  718TIP3    H223570   4.679   0.316  16.447 -0.4886 -0.7805  1.1701
  719TIP3   OH223571   2.083   0.666  11.615  0.5470 -0.0112  0.0983
  719TIP3    H123572   2.040   0.606  11.677 -1.2183  1.2572  0.1332
  719TIP3    H223573   2.034   0.656  11.534  2.2523 -0.9424 -0.8482
  720TIP3   OH223574   1.819   5.958  10.888 -0.6210  0.2149 -0.4660
  720TIP3    H123575   1.834   5.883  10.831  1.1147  0.4926 -0.3962
  720TIP3    H223576   1.775   6.022  10.833  0.3280  0.1792 -1.2719
  721TIP3   OH223577   4.753   6.240  13.951  0.1225 -0.6224  0.0373
  721TIP3    H123578   4.726   6.279  13.868 -0.5890 -0.6525  0.2502
  721TIP3    H223579   4.774   6.315  14.007 -1.1421 -0.5306  0.4102
  722TIP3   OH223580   2.910   3.453   4.041  0.3516 -0.4919  0.0654
  722TIP3    H123581   2.908   3.548   4.047  0.0997 -0.4471 -0.6188
  722TIP3    H223582   2.904   3.435   3.947  0.1477 -1.1856  0.2069
  723TIP3   OH223583   6.100   3.322  14.081  0.0966 -0.2679  0.4336
  723TIP3    H123584   6.087   3.285  14.169  1.6302 -0.8245  0.4322
  723TIP3    H223585   6.136   3.251  14.029  0.7872  0.5372 -0.2086
  724TIP3   OH223586   5.896   4.397  11.097  0.0053  0.1384  0.7874
  724TIP3    H123587   5.947   4.320  11.120  0.2608 -0.4937 -1.7755
  724TIP3    H223588   5.954   4.471  11.114  0.5129 -0.3643  1.2322
  725TIP3   OH223589   1.227   0.767  14.504  0.5251 -0.1662 -0.5030
  725TIP3    H123590   1.290   0.838  14.510  0.8611 -0.5710  0.8250
  725TIP3    H223591   1.233   0.722  14.588 -2.0237  0.2155 -0.0629
  726TIP3   OH223592   5.230   5.427   0.389 -0.2838  0.1955  0.1808
  726TIP3    H123593   5.326   5.430   0.391 -0.3068  0.9468  0.4414
  726TIP3    H223594   5.208   5.400   0.300  0.2375 -3.1603  1.0145
  727TIP3   OH223595   0.316   6.360   1.288 -0.0484 -0.4094  0.0027
  727TIP3    H123596   0.289   6.330   1.375  1.3306 -1.2762  0.1406
  727TIP3    H223597   0.393   6.414   1.303  0.3779 -0.8121 -0.6992
  728TIP3   OH223598   5.712   4.228  14.371  0.4982 -0.2750 -0.2937
  728TIP3    H123599   5.672   4.151  14.332  0.6513 -0.8179  0.6171
  728TIP3    H223600   5.780   4.194  14.429  1.0953  0.5700 -0.4799
  729TIP3   OH223601   4.983   0.058   6.464 -0.7308 -0.3811  0.6683
  729TIP3    H123602   4.920   0.127   6.486  0.1738  0.6661  0.0456
  729TIP3    H223603   5.028   0.091   6.386 -1.5648 -2.5152 -0.7666
  730TIP3   OH223604   5.313   4.903   3.214  0.1178  0.4156  0.1681
  730TIP3    H123605   5.292   4.884   3.123 -1.5299 -0.2650  0.6535
  730TIP3    H223606   5.285   4.994   3.227 -1.8394 -0.2182  0.5827
  731TIP3   OH223607   4.837   5.336   4.218 -0.3082 -0.5226  0.5816
  731TIP3    H123608   4.781   5.323   4.142  0.3857  1.4388 -0.3042
  731TIP3    H223609   4.925   5.348   4.181  0.1398 -0.1851  1.7335
  732TIP3   OH223610   2.213   5.907   1.070 -0.2765 -0.2472 -0.2099
  732TIP3    H123611   2.171   5.892   0.985  0.1310 -0.0155 -0.4543
  732TIP3    H223612   2.151   5.871   1.134 -0.6084 -0.3774 -0.6001
  733TIP3   OH223613   5.931   1.124   4.153 -0.3906 -0.1869 -0.5077
  733TIP3    H123614   5.941   1.083   4.067  0.6140 -1.1749  0.0736
  733TIP3    H223615   5.836   1.133   4.165 -0.5483 -0.4523 -1.5178
  734TIP3   OH223616   0.866   5.593  15.664  0.0950  0.3163  0.3183
  734TIP3    H123617   0.864   5.527  15.733  1.0113 -0.4841 -0.3947
  734TIP3    H223618   0.851   5.676  15.710 -1.8382 -0.4535  1.1132
  735TIP3   OH223619   6.195   1.837   5.497  0.0995  0.1301  0.2079
  735TIP3    H123620   6.253   1.899   5.453 -0.3360 -1.6719 -3.1316
  735TIP3    H223621   6.253   1.785   5.552  1.2996  0.0395 -1.1031
  736TIP3   OH223622   2.088   6.732   5.253  0.2381  0.0516 -0.0876
  736TIP3    H123623   2.052   6.649   5.222  0.8863 -0.3123  0.1254
  736TIP3    H223624   2.015   6.774   5.299 -0.0000 -0.5405  0.0843
  737TIP3   OH223625   5.801   1.956  13.642 -0.0225 -0.3517  0.0703
  737TIP3    H123626   5.883   1.958  13.593 -1.0742 -1.0099 -1.7595
  737TIP3    H223627   5.807   1.877  13.696 -0.2818 -1.5074 -1.5599
  738TIP3   OH223628   1.304   0.025  11.488 -0.0202 -0.0081  0.1335
  738TIP3    H123629   1.308  -0.012  11.400  0.0611 -3.6740  1.5721
  738TIP3    H223630   1.371   0.093  11.489  0.2244 -0.1687 -2.5175
  739TIP3   OH223631   0.643   1.136   3.536  0.5393  0.2045 -0.1755
  739TIP3    H123632   0.560   1.092   3.518  0.8662 -0.4054 -0.1845
  739TIP3    H223633   0.703   1.101   3.471  1.5113 -1.3879  1.5234
  740TIP3   OH223634   5.431   0.073  16.361  0.1347  0.4209 -0.2334
  740TIP3    H123635   5.477   0.103  16.440 -2.2193  0.4867  1.1829
  740TIP3    H223636   5.364   0.013  16.395 -0.3089 -0.2699 -2.2980
  741TIP3   OH223637   3.186   6.244   2.716  0.8581  0.5601  0.2245
  741TIP3    H123638   3.129   6.321   2.716  0.3170  0.1952 -1.9191
  741TIP3    H223639   3.267   6.275   2.677  1.1369  0.3902  0.6722
  742TIP3   OH223640   2.415   0.581  17.065 -0.5473 -0.1626  0.0676
  742TIP3    H123641   2.427   0.539  17.150 -1.7216 -0.3219  0.1568
  742TIP3    H223642   2.358   0.522  17.016 -1.1946  0.7109 -0.2529
  743TIP3   OH223643   5.000   6.109  13.962  0.4057  0.0292 -0.8028
  743TIP3    H123644   4.915   6.151  13.947  0.1951 -0.6601 -1.6154
  743TIP3    H223645   5.015   6.117  14.056 -0.2334  0.7713 -0.7580
  744TIP3   OH223646   3.319   4.672  16.592  0.1059 -0.2896 -0.1012
  744TIP3    H123647   3.334   4.588  16.549 -0.2352 -0.6116  0.4019
  744TIP3    H223648   3.238   4.660  16.641 -1.5668  1.2394 -2.3524
  745TIP3   OH223649   1.821   3.459   5.408  0.1323 -0.5430 -0.2735
  745TIP3    H123650   1.905   3.412   5.414  0.9420  1.0141  1.0536
  745TIP3    H223651   1.797   3.454   5.316 -0.2714 -4.3081 -0.0522
  746TIP3   OH223652   0.326   2.291  11.473 -0.0517 -0.5938  0.4345
  746TIP3    H123653   0.343   2.209  11.426 -0.4379 -1.3537  1.6051
  746TIP3    H223654   0.362   2.359  11.415 -2.5178 -1.3033 -2.0363
  747TIP3   OH223655   2.495   0.983  11.372  0.2058  0.6179  0.1493
  747TIP3    H123656   2.403   1.006  11.381 -0.0054  0.2604 -1.0557
  747TIP3    H223657   2.542   1.055  11.414 -0.5524  1.8572 -1.1064
  748TIP3   OH223658   1.693   3.862   5.330 -0.4688 -0.8456  0.3237
  748TIP3    H123659   1.699   3.835   5.422  1.7175  3.2647  1.5499
  748TIP3    H223660   1.605   3.899   5.321 -0.2518 -0.0898  1.1857
  749TIP3   OH223661   0.828   2.929   3.124 -0.3855  0.6532 -0.4287
  749TIP3    H123662   0.771   2.916   3.199  0.6975 -0.3911  0.2299
  749TIP3    H223663   0.805   2.858   3.064 -0.7691  1.0815 -0.7965
  750TIP3   OH223664   6.282   5.862  10.378 -0.9045  0.2988 -0.8798
  750TIP3    H123665   6.365   5.906  10.393 -1.1529  1.2237 -2.1672
  750TIP3    H223666   6.222   5.899  10.443 -0.6477  0.5457 -0.7864
  751TIP3   OH223667   2.426   2.331   0.309 -0.0562  0.4919 -0.2661
  751TIP3    H123668   2.426   2.412   0.257 -1.7812  0.9832  0.4727
  751TIP3    H223669   2.518   2.318   0.332  0.5059  1.1806 -2.0314
  752TIP3   OH223670   5.741   6.274   4.911 -0.1371 -0.9935  0.3432
  752TIP3    H123671   5.787   6.224   4.843  0.7096  1.0723 -0.6756
  752TIP3    H223672   5.680   6.330   4.862  1.0194  1.0733  1.1955
  753TIP3   OH223673   2.594   1.883  14.452  0.2301  0.4752  0.0314
  753TIP3    H123674   2.641   1.894  14.534  0.8550 -1.5534 -0.0301
  753TIP3    H223675   2.519   1.943  14.459  0.2192  0.2633  2.1187
  754TIP3   OH223676   5.888   2.471   0.038  0.4166  0.3357 -0.3411
  754TIP3    H123677   5.967   2.505   0.081  1.0557 -1.0292 -0.3959
  754TIP3    H223678   5.921   2.430  -0.042 -0.3975  0.0670 -0.5387
  755TIP3   OH223679   4.490   6.760   4.397  0.4650  0.1705  0.5099
  755TIP3    H123680   4.416   6.752   4.338  0.0503  1.4844  0.8256
  755TIP3    H223681   4.476   6.692   4.463 -1.1717  1.2404  1.3048
  756TIP3   OH223682   3.130   5.411  15.401 -0.0113 -0.5628  0.3435
  756TIP3    H123683   3.141   5.383  15.492  0.1133 -1.3732  0.0813
  756TIP3    H223684   3.175   5.495  15.396 -0.3867 -0.3139  1.1386
  757TIP3   OH223685   6.584   1.855   4.556  0.0569 -0.2995 -0.6367
  757TIP3    H123686   6.545   1.786   4.609 -0.3273 -0.4771 -1.1445
  757TIP3    H223687   6.623   1.915   4.619  1.6510 -1.7199 -0.2328
  758TIP3   OH223688   4.420   6.192   6.631 -0.3709  0.3040 -0.4638
  758TIP3    H123689   4.399   6.163   6.719 -1.2311 -0.9414 -1.0639
  758TIP3    H223690   4.470   6.120   6.593  3.1245  2.2832  0.1787
  759TIP3   OH223691   2.244   5.630  14.516  0.3132  0.6708  0.3962
  759TIP3    H123692   2.257   5.687  14.592  1.5955 -0.2344  0.8709
  759TIP3    H223693   2.206   5.687  14.449  0.9621  1.9270  1.0890
  760TIP3   OH223694   1.894   3.338  14.436  0.0784  0.0851  0.4570
  760TIP3    H123695   1.983   3.303  14.443  0.8308  1.8950  0.1011
  760TIP3    H223696   1.839   3.261  14.423  1.5866 -1.0544  0.7239
  761TIP3   OH223697   2.437   2.038   4.338  0.3325 -0.4797  0.2073
  761TIP3    H123698   2.416   2.005   4.250 -0.0692 -1.0161  0.4958
  761TIP3    H223699   2.364   2.095   4.360  0.2598 -0.6182  0.3288
  762TIP3   OH223700   4.584   0.301  16.167  0.2769  0.1292 -0.2219
  762TIP3    H123701   4.628   0.286  16.251  1.7410 -1.1040 -1.1730
  762TIP3    H223702   4.535   0.220  16.151 -1.2650  0.9772  0.1915
  763TIP3   OH223703   5.108   5.834   1.190 -0.0786  0.2094 -0.2368
  763TIP3    H123704   5.185   5.877   1.227 -0.0458  0.8957 -1.0847
  763TIP3    H223705   5.143   5.754   1.149 -0.0099 -0.1551  0.5210
  764TIP3   OH223706   5.480   4.346  14.537 -0.0596  0.7553 -0.0810
  764TIP3    H123707   5.508   4.325  14.447 -1.6295  0.6324 -0.5608
  764TIP3    H223708   5.442   4.264  14.570  0.1040  0.9272  0.5285
  765TIP3   OH223709   2.291   4.709  13.063  0.5295 -0.0953 -0.4436
  765TIP3    H123710   2.244   4.779  13.019 -0.8665  0.0187  1.1572
  765TIP3    H223711   2.317   4.649  12.993 -0.7867  0.5519 -1.5091
  766TIP3   OH223712   0.177   4.999  14.371  0.0679 -0.0576 -0.4530
  766TIP3    H123713   0.132   5.000  14.455  0.7693 -0.6730 -0.0710
  766TIP3    H223714   0.146   5.078  14.326 -0.8547 -0.1159  0.0896
  767TIP3   OH223715   0.675   2.708  11.422  0.0945  0.2507  0.5803
  767TIP3    H123716   0.689   2.760  11.343  0.1841 -1.4193 -0.5214
  767TIP3    H223717   0.743   2.641  11.418 -2.8498 -2.7631 -0.4043
  768TIP3   OH223718   5.436   2.653   3.852  0.6021 -0.4071 -0.1496
  768TIP3    H123719   5.454   2.692   3.767 -1.2515 -0.0033 -0.3797
  768TIP3    H223720   5.502   2.691   3.910 -0.8461  2.7680 -0.4731
  769TIP3   OH223721   4.236   2.204  11.826 -0.1293  0.0765  0.6579
  769TIP3    H123722   4.243   2.126  11.881 -1.6761  0.2338  1.0790
  769TIP3    H223723   4.144   2.228  11.828 -0.0691  0.5875 -1.3169
  770TIP3   OH223724   0.328   6.659  11.094  0.6272  0.2258 -0.2818
  770TIP3    H123725   0.385   6.735  11.103  0.3296  0.2556  1.5776
  770TIP3    H223726   0.312   6.651  11.000  1.0476  2.1688 -0.5235
  771TIP3   OH223727   0.428   6.553   5.036 -0.2427 -0.2878  0.0542
  771TIP3    H123728   0.382   6.469   5.042  1.6944 -1.4129 -0.4679
  771TIP3    H223729   0.496   6.547   5.103  0.6207  0.4146 -0.7524
  772TIP3   OH223730   3.322   3.956  12.149 -0.3270 -0.2393  0.0548
  772TIP3    H123731   3.363   3.989  12.229  0.5036 -0.4794 -0.2746
  772TIP3    H223732   3.317   3.861  12.161 -0.1156 -0.2862 -0.2162
  773TIP3   OH223733   5.897   0.285   4.679  0.3838  0.5783 -0.5479
  773TIP3    H123734   5.913   0.313   4.589 -0.0461  1.2351 -0.4230
  773TIP3    H223735   5.869   0.364   4.725  2.3314  0.6371  0.6103
  774TIP3   OH223736   3.990   5.464   1.760  0.3586 -0.0753  0.0168
  774TIP3    H123737   4.066   5.460   1.702  2.4782 -0.9276  2.7498
  774TIP3    H223738   4.028   5.474   1.848 -2.7261  0.4299  1.3359
  775TIP3   OH223739   2.790   4.898  15.655 -0.2274  0.1046  0.4933
  775TIP3    H123740   2.879   4.933  15.660 -0.6009  1.3962 -1.3454
  775TIP3    H223741   2.797   4.808  15.687  1.9910 -0.2470 -0.9318
  776TIP3   OH223742   3.135   2.152  16.275 -0.4050  0.0818  0.2234
  776TIP3    H123743   3.109   2.079  16.331 -0.6054 -0.0372 -0.0224
  776TIP3    H223744   3.223   2.175  16.305 -0.7619  0.4465  1.0297
  777TIP3   OH223745   4.377   1.586   0.337 -0.4695  0.1767 -0.1655
  777TIP3    H123746   4.450   1.648   0.324 -0.0740 -0.0822  0.7627
  777TIP3    H223747   4.356   1.594   0.430 -1.0564 -0.3837 -0.2511
  778TIP3   OH223748   4.089   2.230  12.434  0.1599  0.1822  0.9745
  778TIP3    H123749   4.005   2.275  12.433  0.4500  0.7403  1.0573
  778TIP3    H223750   4.097   2.190  12.347 -0.1541  0.1970  0.9411
  779TIP3   OH223751   6.514   1.919   0.365  0.3437 -0.6651 -0.7142
  779TIP3    H123752   6.568   1.959   0.434 -2.7466  1.5255  0.5641
  779TIP3    H223753   6.504   1.989   0.300 -1.4555 -0.7963 -0.6003
  780TIP3   OH223754   4.372   0.680   1.928 -0.1620  0.2154  0.0029
  780TIP3    H123755   4.402   0.593   1.952 -0.4958  0.1860  0.3232
  780TIP3    H223756   4.379   0.683   1.832  0.4720  0.0720  0.0484
  781TIP3   OH223757   3.990   4.752  12.590 -0.3081  0.4434 -0.6933
  781TIP3    H123758   3.933   4.806  12.537 -0.8749  0.9538  0.4104
  781TIP3    H223759   4.074   4.798  12.589 -0.1521  0.1489 -1.5998
  782TIP3   OH223760   4.611   6.073   5.125  0.1437  0.1539 -0.2028
  782TIP3    H123761   4.606   6.025   5.042  0.3138 -0.7334  0.2848
  782TIP3    H223762   4.669   6.019   5.179 -2.4761 -0.9733  1.5827
  783TIP3   OH223763   1.491   0.388  10.545 -0.3291 -0.1074 -0.2064
  783TIP3    H123764   1.571   0.343  10.518  0.5377 -0.0104  2.1441
  783TIP3    H223765   1.441   0.321  10.592 -0.1104  0.7195  1.2352
  784TIP3   OH223766   1.859   0.221  14.589  0.1897  0.4808 -0.5909
  784TIP3    H123767   1.887   0.179  14.508 -0.9236 -0.8882 -0.2846
  784TIP3    H223768   1.902   0.171  14.658  0.6907  1.2937 -0.3117
  785TIP3   OH223769   0.869   4.306   4.752  0.4155  0.7030 -0.3744
  785TIP3    H123770   0.939   4.264   4.703 -0.4899 -0.6874 -0.5275
  785TIP3    H223771   0.803   4.327   4.686 -0.3321 -0.1748  0.0795
  786TIP3   OH223772   3.337   2.741  12.398 -0.2180  0.1371 -0.1643
  786TIP3    H123773   3.375   2.824  12.369  0.9876 -0.0889  0.7175
  786TIP3    H223774   3.330   2.751  12.494 -0.8298 -0.4745 -0.1399
  787TIP3   OH223775   6.166   2.488   1.771 -0.5319 -0.2256 -0.1742
  787TIP3    H123776   6.254   2.500   1.806 -1.3724 -0.5614  2.1876
  787TIP3    H223777   6.177   2.435   1.692  1.4333  0.4098 -0.3394
  788TIP3   OH223778   3.245   1.139   4.702 -0.2609 -0.3609  0.1071
  788TIP3    H123779   3.172   1.166   4.758 -0.0026  1.2193 -0.3068
  788TIP3    H223780   3.236   1.192   4.623  0.5623 -1.1200 -0.5128
  789TIP3   OH223781   5.031   3.508   2.931 -0.2142  0.4077  0.4846
  789TIP3    H123782   5.002   3.439   2.872 -1.2239 -0.2668  1.7520
  789TIP3    H223783   4.951   3.549   2.963  0.3832  2.6909 -0.8229
  790TIP3   OH223784   2.611   3.539  11.508  0.8694  0.6745 -0.3836
  790TIP3    H123785   2.556   3.617  11.497 -0.0639  0.3803  1.9263
  790TIP3    H223786   2.647   3.523  11.421 -1.4134  1.8435 -1.6085
  791TIP3   OH223787   4.155   5.433  13.024  0.1607  0.6201  0.1912
  791TIP3    H123788   4.184   5.522  13.043 -0.7813  0.4595  2.4506
  791TIP3    H223789   4.082   5.444  12.963  0.5552  1.3304 -0.1692
  792TIP3   OH223790   0.744   4.786  11.758  0.3405  0.3923  0.5695
  792TIP3    H123791   0.838   4.791  11.744  0.1743  0.0896 -0.6509
  792TIP3    H223792   0.709   4.865  11.716 -0.0084  0.2117  0.5154
  793TIP3   OH223793   2.754   1.942  13.652 -0.3375 -0.2592  0.3405
  793TIP3    H123794   2.806   2.022  13.657 -1.2206  0.3377  0.1754
  793TIP3    H223795   2.682   1.964  13.593 -0.7522 -1.0777  0.5372
  794TIP3   OH223796   4.016   1.512   4.876  0.0687 -0.0675  0.2959
  794TIP3    H123797   4.050   1.601   4.873 -1.1941  0.3802 -1.1859
  794TIP3    H223798   4.093   1.458   4.893  1.2970  1.0437 -1.6233
  795TIP3   OH223799   5.873   2.027  15.396 -0.2446  0.4922 -0.5125
  795TIP3    H123800   5.892   1.942  15.434  1.0744  0.5633 -1.0080
  795TIP3    H223801   5.780   2.042  15.416 -0.2617 -0.6720  0.3040
  796TIP3   OH223802   3.097   0.870  14.982 -0.1091  0.0755  0.0980
  796TIP3    H123803   3.106   0.886  14.888  1.3220  1.6458  0.4715
  796TIP3    H223804   3.157   0.797  14.999 -0.3435 -0.1885 -0.1878
  797TIP3   OH223805   5.918   3.512   1.492 -0.4504 -0.4799 -0.3438
  797TIP3    H123806   5.996   3.483   1.445 -0.4106  0.7774 -1.0877
  797TIP3    H223807   5.868   3.561   1.427 -0.8463  0.4975  0.6663
  798TIP3   OH223808   6.571   0.110  14.375 -0.0725  0.1287  0.3383
  798TIP3    H123809   6.617   0.163  14.310  2.2841 -2.6616 -0.4035
  798TIP3    H223810   6.641   0.080  14.434 -1.3197 -2.1289  0.7108
  799TIP3   OH223811   4.365   2.370   5.588  0.7899  0.1937  0.1362
  799TIP3    H123812   4.296   2.367   5.654  0.2431 -0.3380 -0.4474
  799TIP3    H223813   4.442   2.335   5.631 -0.0826 -2.1382 -0.1166
  800TIP3   OH223814   6.105   1.592   1.641  0.4041 -0.3493  0.3398
  800TIP3    H123815   6.116   1.629   1.554  0.6018  0.1687  0.5847
  800TIP3    H223816   6.110   1.497   1.628  1.5636 -0.2369 -0.0466
  801TIP3   OH223817   0.893   1.100   4.959 -0.6282  0.0769 -0.2673
  801TIP3    H123818   0.835   1.153   5.013 -1.5862 -1.1166 -0.1078
  801TIP3    H223819   0.865   1.117   4.869 -0.3719  0.4970 -0.2684
  802TIP3   OH223820   5.860   3.902   3.763 -0.1858  0.0634  0.3380
  802TIP3    H123821   5.927   3.970   3.770 -0.5999  0.4022  1.0212
  802TIP3    H223822   5.782   3.941   3.802 -0.8917 -0.1819 -0.8085
  803TIP3   OH223823   5.496   2.860  15.329  0.5565 -0.7373 -0.9115
  803TIP3    H123824   5.465   2.789  15.385 -0.4671 -0.2059 -0.7933
  803TIP3    H223825   5.424   2.877  15.268  0.5751  0.5449 -0.5964
  804TIP3   OH223826   2.313   5.677   3.764  0.0702  0.2385  0.5619
  804TIP3    H123827   2.327   5.685   3.670  0.4463 -0.8001  0.5363
  804TIP3    H223828   2.232   5.627   3.772 -0.9548  1.8657  0.7813
  805TIP3   OH223829   4.105   1.325   1.342  0.9156  0.2869 -0.2702
  805TIP3    H123830   4.085   1.325   1.436  2.6894 -0.3106  0.1374
  805TIP3    H223831   4.201   1.334   1.339  0.8225  0.7200 -2.0368
  806TIP3   OH223832   2.862   1.103   4.223  0.5607  0.2276  0.3473
  806TIP3    H123833   2.843   1.187   4.265  1.6574  1.5509 -1.6936
  806TIP3    H223834   2.934   1.066   4.274 -0.2132  0.3158  1.5158
  807TIP3   OH223835   5.371   3.846  16.038  0.4341  0.0504  0.2534
  807TIP3    H123836   5.346   3.755  16.052 -1.7394  0.5956  0.1265
  807TIP3    H223837   5.427   3.868  16.113  1.4034 -1.5108  0.0089
  808TIP3   OH223838   4.501   4.875   2.520 -0.2496 -0.5014 -0.4157
  808TIP3    H123839   4.487   4.955   2.570 -0.1154 -0.4041 -0.5329
  808TIP3    H223840   4.586   4.843   2.548 -1.5023 -2.1041  1.6681
  809TIP3   OH223841   3.159   0.330   1.763  0.7945  0.2435  0.5121
  809TIP3    H123842   3.215   0.308   1.688 -1.6253 -1.2924 -0.9029
  809TIP3    H223843   3.153   0.425   1.762 -1.7182  0.1264 -3.1793
  810TIP3   OH223844   5.108   3.977  15.836 -0.0881  0.3060  0.2192
  810TIP3    H123845   5.093   4.002  15.927  1.8181  2.9686 -0.1596
  810TIP3    H223846   5.098   3.882  15.836 -0.4894  0.3021  3.1181
  811TIP3   OH223847   6.408   4.504   1.770 -0.6573 -0.5762  0.1253
  811TIP3    H123848   6.459   4.442   1.823  0.7670  0.4300 -0.0277
  811TIP3    H223849   6.359   4.555   1.834  1.2993  0.8429  0.5264
  812TIP3   OH223850   3.964   6.354  12.652 -0.0431 -0.1804  0.4158
  812TIP3    H123851   4.006   6.356  12.738  0.3745  3.0158  0.2008
  812TIP3    H223852   4.034   6.328  12.592  0.0925 -0.7663  0.8239
  813TIP3   OH223853   3.902   3.373   3.218  0.2969  0.4647 -0.4407
  813TIP3    H123854   3.817   3.336   3.245  0.9460 -1.7893 -1.3169
  813TIP3    H223855   3.883   3.417   3.135  0.1210 -0.7194 -1.0397
  814TIP3   OH223856   3.901   3.430  14.345  0.2889  0.2813 -0.1076
  814TIP3    H123857   3.893   3.518  14.308  0.3385  0.9486  1.4592
  814TIP3    H223858   3.811   3.404  14.365  0.2246 -0.2394 -1.0249
  815TIP3   OH223859   3.463   2.067  14.758  0.1049  0.0161  0.5188
  815TIP3    H123860   3.515   2.043  14.836  0.8458  2.0731  0.6776
  815TIP3    H223861   3.451   1.984  14.712  3.9572 -0.4979  0.2311
  816TIP3   OH223862   5.518   2.374  16.157 -0.0705 -0.2130 -0.8058
  816TIP3    H123863   5.557   2.325  16.229 -1.3020 -0.0040  0.0359
  816TIP3    H223864   5.507   2.310  16.087  0.9530 -0.4681 -0.7367
  817TIP3   OH223865   6.439   5.209  13.643  0.0606  0.1855  0.4639
  817TIP3    H123866   6.470   5.189  13.732 -0.4682 -0.4633  0.5048
  817TIP3    H223867   6.511   5.259  13.604 -0.3037  1.7462  1.7415
  818TIP3   OH223868   3.904   4.371  13.240 -0.0923 -0.3760 -0.6061
  818TIP3    H123869   3.929   4.457  13.206 -2.4117  0.0381 -1.3130
  818TIP3    H223870   3.859   4.328  13.167 -1.7075 -0.9821  0.7088
  819TIP3   OH223871   3.348   5.710  17.213  0.0537 -0.2111 -0.2058
  819TIP3    H123872   3.292   5.664  17.151 -1.4602  1.8803 -0.4156
  819TIP3    H223873   3.315   5.683  17.299  0.2397 -0.7926 -0.3141
  820TIP3   OH223874   6.564   5.935  10.451 -0.2995  0.0358 -0.3534
  820TIP3    H123875   6.645   5.941  10.501  0.5112 -1.1197 -1.4919
  820TIP3    H223876   6.566   6.011  10.393 -0.1387  0.1320 -0.2221
  821TIP3   OH223877   1.610   0.356   4.898 -0.5430  0.2571  0.2707
  821TIP3    H123878   1.647   0.282   4.947 -1.8181  0.3266  1.3519
  821TIP3    H223879   1.564   0.408   4.964 -0.1510  1.7166 -0.5776
  822TIP3   OH223880   4.649   6.028  15.479  0.0969 -0.0112  0.1777
  822TIP3    H123881   4.662   5.934  15.469 -0.6961 -0.1386  0.3176
  822TIP3    H223882   4.698   6.068  15.407  2.5450 -0.3872  1.5670
  823TIP3   OH223883   4.547   2.186  15.537 -0.2080  0.4870  0.0304
  823TIP3    H123884   4.605   2.227  15.472  2.2893 -1.0065  1.2336
  823TIP3    H223885   4.519   2.104  15.495 -2.1098  1.5747 -0.8599
  824TIP3   OH223886   5.898   2.973  15.448  0.3650 -0.3231  0.1555
  824TIP3    H123887   5.986   2.948  15.475  0.6394  0.0811 -0.3659
  824TIP3    H223888   5.840   2.919  15.502  0.9215 -0.1257  0.9498
  825TIP3   OH223889   5.279   3.508   1.029  0.0517 -0.2610 -0.1221
  825TIP3    H123890   5.281   3.530   0.936 -0.4443  0.8350  0.1128
  825TIP3    H223891   5.187   3.513   1.054  0.1227 -1.0616  0.3144
  826TIP3   OH223892   6.318   2.819   5.338 -0.0730 -0.0818 -0.3749
  826TIP3    H123893   6.233   2.861   5.323  1.0596  2.0043 -1.0407
  826TIP3    H223894   6.351   2.799   5.250  0.2736 -0.6414 -0.1237
  827TIP3   OH223895   1.286   5.784  13.471  0.2721 -0.3222 -0.8665
  827TIP3    H123896   1.264   5.698  13.435  0.4599 -1.1168  0.8845
  827TIP3    H223897   1.344   5.765  13.545 -2.1892  1.0865  1.4993
  828TIP3   OH223898   2.143   1.642  16.836 -0.3251  0.1743 -0.0235
  828TIP3    H123899   2.199   1.698  16.782  1.1417 -0.8896  0.3706
  828TIP3    H223900   2.119   1.697  16.910 -1.5771  1.3390 -1.2419
  829TIP3   OH223901   4.216   5.054  11.403  0.3824  0.0646 -0.1300
  829TIP3    H123902   4.287   5.052  11.467  1.1156  0.9834 -0.8902
  829TIP3    H223903   4.175   4.968  11.409  2.3507 -0.9293 -0.5451
  830TIP3   OH223904   2.389   2.350  15.626 -0.3284 -0.4164 -0.2495
  830TIP3    H123905   2.324   2.413  15.595  0.3691  0.2332 -0.3780
  830TIP3    H223906   2.386   2.279  15.561 -1.0174 -0.4678 -0.1688
  831TIP3   OH223907   5.524   0.314  11.806  0.0397 -0.0791  0.3230
  831TIP3    H123908   5.433   0.284  11.796 -0.4798  1.1440  1.2417
  831TIP3    H223909   5.529   0.393  11.752  0.9818 -0.9575 -0.9032
  832TIP3   OH223910   2.587   4.870   3.738  0.2378 -0.5361  0.0106
  832TIP3    H123911   2.658   4.845   3.677 -0.1612 -0.4535 -0.4932
  832TIP3    H223912   2.540   4.939   3.691 -0.8033 -1.3160 -0.0931
  833TIP3   OH223913   2.251   0.371   2.819 -0.3627 -0.0812 -0.1899
  833TIP3    H123914   2.343   0.383   2.793 -0.7258  0.6036 -1.1766
  833TIP3    H223915   2.205   0.443   2.777 -1.5424 -1.0900 -0.6463
  834TIP3   OH223916   2.632   2.629   4.612 -0.8492 -0.0063  0.4587
  834TIP3    H123917   2.664   2.540   4.624 -0.2556  0.3071  1.2161
  834TIP3    H223918   2.557   2.636   4.671 -1.7603 -0.4387 -0.6226
  835TIP3   OH223919   4.456   4.302  10.729  0.0815 -0.4735 -0.0563
  835TIP3    H123920   4.519   4.363  10.690  0.3221 -0.1939  0.7666
  835TIP3    H223921   4.371   4.342  10.711  0.1450 -0.6729 -0.8541
  836TIP3   OH223922   2.299   6.141   1.169  0.1398 -0.5762 -0.0943
  836TIP3    H123923   2.266   6.217   1.121  1.7839 -0.2102 -0.6783
  836TIP3    H223924   2.272   6.066   1.117 -0.7940 -0.3558  0.0601
  837TIP3   OH223925   1.219   2.794   3.637  0.3984  0.4946 -0.0624
  837TIP3    H123926   1.153   2.767   3.702 -0.0824  0.7326 -0.4450
  837TIP3    H223927   1.170   2.848   3.575  0.7159 -0.2759 -1.0006
  838TIP3   OH223928   4.074   5.243   2.956  0.2752  0.9449 -0.3032
  838TIP3    H123929   4.030   5.261   2.872  0.8068 -0.4463 -0.8988
  838TIP3    H223930   4.161   5.282   2.945  0.8921 -0.5803 -1.0133
  839TIP3   OH223931   5.777   5.973  11.986  0.1273  0.3704  0.6089
  839TIP3    H123932   5.689   5.934  11.977  0.4193 -0.1846  0.0888
  839TIP3    H223933   5.762   6.067  11.979 -0.5272  0.3217  1.3267
  840TIP3   OH223934   5.743   2.030  11.504  0.1251 -0.0197 -0.0754
  840TIP3    H123935   5.666   1.973  11.499 -0.6051  0.9709 -0.1522
  840TIP3    H223936   5.763   2.036  11.597 -0.0481 -0.0696 -0.0349
  841TIP3   OH223937   0.460   3.026   5.758  0.4766 -0.0491  0.2920
  841TIP3    H123938   0.479   3.044   5.850 -1.6673  0.2418  0.7149
  841TIP3    H223939   0.374   2.983   5.759  0.9349 -1.0754 -1.4897
  842TIP3   OH223940   5.385   3.269  16.691 -0.0480  0.6360  0.2999
  842TIP3    H123941   5.319   3.243  16.756 -1.3590  1.2965 -0.7218
  842TIP3    H223942   5.389   3.365  16.699  0.4432  0.6346  0.0302
  843TIP3   OH223943   3.997   0.064  14.840 -0.3637 -0.1642 -0.4503
  843TIP3    H123944   3.979  -0.030  14.849 -2.3263  0.1761 -0.7263
  843TIP3    H223945   3.978   0.083  14.748  0.2621  0.4775 -0.4511
  844TIP3   OH223946   3.194   5.324  15.884  0.2588 -0.2064 -0.2106
  844TIP3    H123947   3.218   5.301  15.794 -0.2733 -0.8097 -0.2029
  844TIP3    H223948   3.243   5.263  15.938  2.7356  1.9553  0.0513
  845TIP3   OH223949   2.776   4.084  15.760 -0.0329 -0.5698 -0.3240
  845TIP3    H123950   2.827   4.061  15.838  0.7443 -1.4250 -1.0835
  845TIP3    H223951   2.776   4.180  15.760  0.1147 -0.5600  0.6261
  846TIP3   OH223952   6.664   3.827   3.930  0.0969 -0.0157 -0.2158
  846TIP3    H123953   6.712   3.862   4.005 -1.0998 -0.6086  0.8507
  846TIP3    H223954   6.616   3.901   3.895  0.1932  0.1348 -0.0310
  847TIP3   OH223955   4.107   3.406   6.555  0.4104  0.0049  0.4774
  847TIP3    H123956   4.113   3.311   6.544  0.0113  0.0625 -0.2444
  847TIP3    H223957   4.191   3.440   6.526 -0.7991  0.2049 -3.0035
  848TIP3   OH223958   3.065   3.647   2.666  0.5026 -0.2746 -0.4234
  848TIP3    H123959   3.073   3.711   2.737  1.2780 -0.5683 -0.2392
  848TIP3    H223960   3.134   3.583   2.684 -0.5467 -1.3937 -0.3708
  849TIP3   OH223961   6.458   5.443  16.968 -0.3204 -0.2287  0.1344
  849TIP3    H123962   6.475   5.446  16.874 -0.3633  2.0442  0.1773
  849TIP3    H223963   6.362   5.449  16.975 -0.2018  1.7842  0.3660
  850TIP3   OH223964   4.637   5.682  17.178  0.4874 -0.0464  0.4164
  850TIP3    H123965   4.654   5.594  17.211  0.7028 -0.5163 -0.9208
  850TIP3    H223966   4.722   5.713  17.148  0.2812  0.3669  0.2542
  851TIP3   OH223967   0.780   5.301  11.402 -0.4164 -0.0771  0.8202
  851TIP3    H123968   0.821   5.311  11.488  0.5587 -0.6658  0.4208
  851TIP3    H223969   0.734   5.217  11.407 -0.5939  0.0201  0.8527
  852TIP3   OH223970   4.496   4.255  11.451  0.0950 -0.0169  0.1112
  852TIP3    H123971   4.579   4.207  11.456  0.1470 -0.0108 -0.6320
  852TIP3    H223972   4.520   4.346  11.467 -0.3216 -0.4904  3.9134
  853TIP3   OH223973   4.304   1.331  16.365 -0.5134 -0.5302  0.1116
  853TIP3    H123974   4.231   1.286  16.408  0.0026 -2.1976 -0.6788
  853TIP3    H223975   4.275   1.343  16.275  0.1287 -1.1361 -0.1871
  854TIP3   OH223976   6.649   4.595  13.916 -0.2856 -0.0620  0.2124
  854TIP3    H123977   6.646   4.564  13.826  0.6794 -0.2267  0.2322
  854TIP3    H223978   6.706   4.533  13.961  0.5360  0.9372  0.5652
  855TIP3   OH223979   1.168   4.845   5.455 -0.5398  0.1911 -0.7246
  855TIP3    H123980   1.116   4.884   5.384 -1.1851 -1.0797 -0.9670
  855TIP3    H223981   1.245   4.810   5.410 -1.6070 -1.8410 -1.0294
  856TIP3   OH223982   6.163   6.566   5.322 -0.2434 -0.2476  0.2444
  856TIP3    H123983   6.146   6.635   5.258  1.6885 -0.6731 -0.7307
  856TIP3    H223984   6.210   6.610   5.392 -0.9346 -0.1332  0.6469
  857TIP3   OH223985   5.153   2.717  16.495  0.6177  0.1219 -0.4672
  857TIP3    H123986   5.094   2.714  16.420  0.2913  0.5193 -0.2337
  857TIP3    H223987   5.202   2.634  16.491  0.8521  0.2999 -1.3121
  858TIP3   OH223988   5.785   5.169   5.486 -0.8583  0.5336  0.0416
  858TIP3    H123989   5.825   5.135   5.406  1.3505  0.3269  1.1836
  858TIP3    H223990   5.779   5.092   5.544  0.9885  1.3775  1.3999
  859TIP3   OH223991   3.840   1.757  16.812  0.9365  0.0344  0.1372
  859TIP3    H123992   3.926   1.800  16.816  1.1753 -0.3564 -0.6682
  859TIP3    H223993   3.777   1.828  16.822  1.3204  0.6808 -1.8335
  860TIP3   OH223994   0.589   6.506   4.503  0.0680 -1.0665  0.0304
  860TIP3    H123995   0.622   6.544   4.422 -1.9343  1.5789  0.3750
  860TIP3    H223996   0.595   6.412   4.490  1.6727 -0.6600 -2.3862
  861TIP3   OH223997   2.178   2.504  15.489  0.5533  0.7817 -0.3683
  861TIP3    H123998   2.096   2.465  15.459  0.7338  0.7318 -0.7987
  861TIP3    H223999   2.160   2.598  15.492 -0.2197  0.6093  1.7038
  862TIP3   OH224000   0.829   2.103   0.324  0.8564 -0.5956 -0.1074
  862TIP3    H124001   0.770   2.083   0.397  0.8567  0.6896  0.2613
  862TIP3    H224002   0.880   2.023   0.312 -0.0045 -1.2455  0.4870
  863TIP3   OH224003   3.977   6.649   0.208  0.1453  0.0747  0.0863
  863TIP3    H124004   3.994   6.596   0.285 -0.4370  0.7324  0.6756
  863TIP3    H224005   4.049   6.712   0.204  2.9340 -3.1232 -2.7609
  864TIP3   OH224006   4.451   5.493   5.658  0.3772 -0.4471  0.1175
  864TIP3    H124007   4.512   5.454   5.721 -1.0886  0.8860  2.4167
  864TIP3    H224008   4.371   5.442   5.667 -0.4090  0.8543  0.6226
  865TIP3   OH224009   1.406   4.501   3.595  0.2314  0.6029 -0.2881
  865TIP3    H124010   1.387   4.469   3.507  0.5920  0.1210 -0.1957
  865TIP3    H224011   1.467   4.436   3.631 -0.8083  0.1802  0.7286
  866TIP3   OH224012   6.765   3.221  12.566 -0.3311 -0.6887  0.0195
  866TIP3    H124013   6.810   3.290  12.614 -0.0950 -0.2908 -0.7630
  866TIP3    H224014   6.817   3.142  12.582 -1.3018 -0.9621  1.9433
  867TIP3   OH224015   6.210   4.145  16.482  0.3691 -0.2727  0.2696
  867TIP3    H124016   6.284   4.088  16.465  0.2738  0.1133 -1.5161
  867TIP3    H224017   6.134   4.097  16.449  0.0145  0.0029  0.6699
  868TIP3   OH224018   6.406   1.150   3.494 -0.5671 -0.5912  0.1676
  868TIP3    H124019   6.471   1.216   3.471 -0.9671  0.2176  1.3429
  868TIP3    H224020   6.344   1.196   3.550 -1.9132 -1.4659 -0.5697
  869TIP3   OH224021   4.442   0.766   0.656 -0.2613  0.6920 -0.3420
  869TIP3    H124022   4.525   0.754   0.610  0.6049  1.4658  0.9872
  869TIP3    H224023   4.427   0.682   0.700  0.5930  1.0298  0.6251
  870TIP3   OH224024   3.249   1.877   4.717  0.3592  0.0438 -0.4156
  870TIP3    H124025   3.309   1.933   4.766  0.6828  0.4070 -1.2045
  870TIP3    H224026   3.211   1.818   4.782  0.3707  0.8754  0.3487
  871TIP3   OH224027   2.134   2.968  13.079 -0.0549 -0.6465  0.1133
  871TIP3    H124028   2.052   2.943  13.036 -0.7170 -0.5874  1.3274
  871TIP3    H224029   2.159   3.050  13.036 -1.9312  0.6434  1.3831
  872TIP3   OH224030   2.118   2.251   1.336  0.0791  0.4390 -0.0273
  872TIP3    H124031   2.105   2.219   1.425  1.5353 -1.2638 -0.3858
  872TIP3    H224032   2.097   2.176   1.280 -2.8868  2.1195 -1.2500
  873TIP3   OH224033   1.248   1.326  15.297  0.1497  0.0335 -0.2697
  873TIP3    H124034   1.156   1.303  15.306  0.1500  0.0931 -0.1180
  873TIP3    H224035   1.295   1.243  15.309  0.1912  0.2277  0.9871
  874TIP3   OH224036   4.305   3.264  13.519  0.5411 -0.7093 -0.3885
  874TIP3    H124037   4.294   3.256  13.424  0.0770 -0.1590 -0.3834
  874TIP3    H224038   4.248   3.337  13.543  1.7795  0.1152  0.1002
  875TIP3   OH224039   5.314   2.525  10.840  0.0805  0.5777  0.6473
  875TIP3    H124040   5.408   2.515  10.856  0.3812  0.2058 -1.1546
  875TIP3    H224041   5.288   2.441  10.800 -0.2716  1.8665 -1.9610
  876TIP3   OH224042   6.163   0.080  16.049 -0.5948 -0.6700  0.2807
  876TIP3    H124043   6.152   0.033  16.132 -0.2317 -2.0646 -0.4458
  876TIP3    H224044   6.223   0.025  15.998  0.3195  0.8932 -0.3606
  877TIP3   OH224045   0.514   0.013   3.991 -0.2750  0.3777 -0.1891
  877TIP3    H124046   0.561   0.032   3.910  2.9444 -3.4720  0.5913
  877TIP3    H224047   0.422   0.006   3.964  0.5760  0.2920 -3.3066
  878TIP3   OH224048   2.849   2.103  17.132 -0.0722 -0.7767  0.1128
  878TIP3    H124049   2.892   2.017  17.134  0.4236 -0.4983  1.7632
  878TIP3    H224050   2.916   2.162  17.099  0.4553 -0.5598  1.5374
  879TIP3   OH224051   5.423   0.143  14.337  0.2726 -0.4268 -0.8054
  879TIP3    H124052   5.401   0.182  14.253 -0.4005 -0.7001 -0.7610
  879TIP3    H224053   5.358   0.179  14.398 -0.6293 -1.9199 -0.8549
  880TIP3   OH224054   5.002   3.766  12.589  0.6769 -0.0534  0.3514
  880TIP3    H124055   5.005   3.684  12.540  1.7003  0.2647 -0.1438
  880TIP3    H224056   4.963   3.829  12.528  2.3299  0.4397 -0.2298
  881TIP3   OH224057   1.902   2.420  12.201 -0.1866 -0.7479  0.4010
  881TIP3    H124058   1.910   2.369  12.120  0.2040 -1.5047  0.9237
  881TIP3    H224059   1.854   2.363  12.261  0.1559 -0.4580  0.9502
  882TIP3   OH224060   5.141   5.405   4.159 -0.1362 -0.5628 -0.4671
  882TIP3    H124061   5.192   5.468   4.108  1.1904 -1.3446 -0.1220
  882TIP3    H224062   5.145   5.324   4.109 -1.2273 -0.5728 -0.5442
  883TIP3   OH224063   0.700   4.585   4.613 -0.4889 -0.5575  0.0954
  883TIP3    H124064   0.782   4.612   4.655 -0.8915 -0.0598  0.5727
  883TIP3    H224065   0.720   4.588   4.519 -0.1822  0.2977  0.1781
  884TIP3   OH224066   3.797   4.218  16.209 -0.0873  0.1725  0.1837
  884TIP3    H124067   3.844   4.300  16.223  0.2097  0.0124  0.1331
  884TIP3    H224068   3.740   4.236  16.134  2.6271 -0.7534 -2.2182
  885TIP3   OH224069   4.368   2.882   6.167 -0.1221  0.1647  0.0248
  885TIP3    H124070   4.285   2.844   6.196 -0.2574 -0.0788 -0.6780
  885TIP3    H224071   4.360   2.975   6.186 -0.8942  0.2772 -0.8302
  886TIP3   OH224072   6.647   2.894   2.910  0.7856 -0.5154 -0.3249
  886TIP3    H124073   6.627   2.875   2.818  0.7339  0.6904 -0.5765
  886TIP3    H224074   6.570   2.940   2.943  0.8447 -0.8565  0.2921
  887TIP3   OH224075   2.306   3.874   1.103  0.5152  0.2404 -0.6386
  887TIP3    H124076   2.292   3.948   1.163 -0.2573  0.1319 -0.6757
  887TIP3    H224077   2.300   3.913   1.016 -0.3190  0.0618 -0.6620
  888TIP3   OH224078   3.570   2.371   5.286  0.1553 -0.9170 -0.9084
  888TIP3    H124079   3.645   2.380   5.345 -0.9413 -0.1379  0.4212
  888TIP3    H224080   3.556   2.277   5.281 -1.0169 -0.9601  1.8390
  889TIP3   OH224081   4.904   0.328  15.062  0.5669  1.0250 -0.4563
  889TIP3    H124082   4.869   0.289  15.142  0.9936  1.1098 -0.2260
  889TIP3    H224083   4.840   0.306  14.995  0.3908  0.6388 -0.1647
  890TIP3   OH224084   3.782   3.288  11.949  0.4396 -0.0645  0.3497
  890TIP3    H124085   3.756   3.220  12.010  1.0579 -0.9554 -0.3756
  890TIP3    H224086   3.864   3.257  11.911  0.9915  1.3126  0.3867
  891TIP3   OH224087   5.963   1.170  12.409 -0.0220  0.1233 -0.5240
  891TIP3    H124088   5.965   1.262  12.436 -0.3002  0.0566 -0.2758
  891TIP3    H224089   6.038   1.161  12.350  0.4181  0.3411 -0.0096
  892TIP3   OH224090   2.243   1.372  12.254  0.3773  0.2857 -0.4844
  892TIP3    H124091   2.193   1.382  12.173 -1.2267 -0.0432  0.4501
  892TIP3    H224092   2.180   1.390  12.324  0.7597 -3.1472  0.8311
  893TIP3   OH224093   0.410   3.874   4.140  0.1726 -0.1841 -0.1266
  893TIP3    H124094   0.380   3.890   4.050 -0.9241  0.1082  0.2998
  893TIP3    H224095   0.482   3.936   4.152 -2.0833  2.4122  0.4706
  894TIP3   OH224096   1.409   5.973  14.579  0.1265 -0.3344  0.0295
  894TIP3    H124097   1.347   5.977  14.652 -0.4030  0.7240 -0.4755
  894TIP3    H224098   1.362   5.929  14.509  0.0819  0.1048 -0.2188
  895TIP3   OH224099   5.773   3.680  12.808 -0.0695  0.1389 -0.3578
  895TIP3    H124100   5.710   3.670  12.736  1.4885  2.3512 -2.1231
  895TIP3    H224101   5.733   3.745  12.866 -0.4095 -0.1205 -0.3001
  896TIP3   OH224102   4.094   4.500  14.928  0.0610 -0.5970 -0.1099
  896TIP3    H124103   4.149   4.428  14.959  0.2455  0.6298  2.5855
  896TIP3    H224104   4.143   4.538  14.855  2.8682  0.4646  2.2243
  897TIP3   OH224105   4.082   2.484  14.173 -0.3707  0.3133 -0.0642
  897TIP3    H124106   4.079   2.554  14.107 -1.7152 -1.3891 -1.8877
  897TIP3    H224107   4.143   2.420  14.137 -0.7518 -0.4090  0.5600
  898TIP3   OH224108   3.658   2.708  13.154 -0.0408  0.1931 -0.4202
  898TIP3    H124109   3.653   2.758  13.072  0.1862  0.8699 -0.0298
  898TIP3    H224110   3.593   2.750  13.211 -0.3186 -0.3818 -0.3150
  899TIP3   OH224111   0.400   4.348   4.223  0.0466  0.4133  0.0283
  899TIP3    H124112   0.375   4.297   4.146 -1.9101 -0.8798  1.4589
  899TIP3    H224113   0.436   4.283   4.284  0.2688  1.2085  0.7640
  900TIP3   OH224114   3.048   0.420   4.677  0.2386  0.0989  0.2096
  900TIP3    H124115   3.118   0.482   4.660  0.6434 -0.4145 -0.0217
  900TIP3    H224116   3.069   0.382   4.762 -0.0234  0.2953  0.3648
  901TIP3   OH224117   1.507   4.244   5.838 -0.0433  0.1593 -0.3272
  901TIP3    H124118   1.447   4.200   5.779 -0.7343 -0.2072  0.6349
  901TIP3    H224119   1.552   4.172   5.884 -0.6049  0.4434  0.6782
  902TIP3   OH224120   6.416   0.543   1.012  0.7372 -0.0289  0.6431
  902TIP3    H124121   6.390   0.483   0.942  2.6475 -0.0507 -0.0764
  902TIP3    H224122   6.454   0.618   0.965  1.6693  0.1318  1.6517
  903TIP3   OH224123   2.562   4.236   3.108 -0.1551 -0.2138  1.0521
  903TIP3    H124124   2.560   4.308   3.045  0.9266  0.0427  1.2971
  903TIP3    H224125   2.616   4.268   3.180 -0.1640 -1.0504  1.4434
  904TIP3   OH224126   2.674   4.879  13.962 -0.0870 -0.0735  0.2725
  904TIP3    H124127   2.620   4.811  13.921 -1.4922  0.9561  0.3814
  904TIP3    H224128   2.743   4.895  13.898 -2.2732  1.5287 -1.7825
  905TIP3   OH224129   6.059   2.738  16.830 -0.5572  0.0001 -0.3638
  905TIP3    H124130   6.133   2.738  16.770  0.3496  2.0040  0.7232
  905TIP3    H224131   6.097   2.719  16.916 -1.6587 -1.4664 -0.1729
  906TIP3   OH224132   3.470   1.872   4.232 -0.4662  0.1144 -0.0337
  906TIP3    H124133   3.491   1.783   4.262  0.5234 -0.2459 -1.7514
  906TIP3    H224134   3.399   1.900   4.290 -1.1171 -1.9778  0.2411
  907TIP3   OH224135   0.604   0.078   3.456 -0.7217  0.5897  0.2168
  907TIP3    H124136   0.606  -0.007   3.501 -1.2880  0.4663  0.0126
  907TIP3    H224137   0.603   0.056   3.363 -0.5808  0.8280  0.1600
  908TIP3   OH224138   3.086   3.864  12.296  0.1350 -0.0270  0.0018
  908TIP3    H124139   3.141   3.793  12.262  1.2001  1.6271 -1.8631
  908TIP3    H224140   3.066   3.917  12.219  0.2695  2.2898  1.5169
  909TIP3   OH224141   1.211   1.970   1.393 -0.4216  0.5540  0.3177
  909TIP3    H124142   1.301   1.937   1.390 -1.2107 -1.6311 -0.3573
  909TIP3    H224143   1.183   1.951   1.483 -1.6905 -2.9727 -0.7632
  910TIP3   OH224144   6.110   5.431   0.869 -0.9030 -0.6993 -0.0993
  910TIP3    H124145   6.107   5.443   0.774 -0.6492 -0.0087 -0.0231
  910TIP3    H224146   6.191   5.474   0.896 -0.5522 -1.6233  0.3345
  911TIP3   OH224147   3.089   1.200   3.329  0.2038  0.0186 -0.5274
  911TIP3    H124148   2.995   1.207   3.314  0.3802  2.7241 -0.6261
  911TIP3    H224149   3.128   1.265   3.270  2.0210 -0.0579  0.5421
  912TIP3   OH224150   0.324   0.386   1.154  0.3563  0.0209 -0.2509
  912TIP3    H124151   0.275   0.361   1.076  0.3994  2.5766 -1.1681
  912TIP3    H224152   0.400   0.328   1.155  0.5102  0.1524 -2.3124
  913TIP3   OH224153   5.618   4.399   5.731  0.3701  0.0266 -0.3410
  913TIP3    H124154   5.668   4.353   5.798 -1.0054 -0.4035  0.4056
  913TIP3    H224155   5.632   4.492   5.750  0.0452 -0.0943  0.5035
  914TIP3   OH224156   2.161   0.142  11.264 -0.0665  0.1123 -0.3602
  914TIP3    H124157   2.188   0.100  11.346 -2.2701 -2.5568 -0.9348
  914TIP3    H224158   2.176   0.075  11.197 -1.3411  1.1155 -1.6606
  915TIP3   OH224159   4.606   4.450   4.939  0.5358  0.5304 -0.5656
  915TIP3    H124160   4.687   4.416   4.977  0.2687  0.7901  0.2520
  915TIP3    H224161   4.574   4.513   5.004  0.0603  0.9612 -1.2166
  916TIP3   OH224162   1.733   6.450   5.080  0.4964  0.0270 -0.1340
  916TIP3    H124163   1.773   6.436   4.994  1.8277  0.6770  0.3706
  916TIP3    H224164   1.716   6.362   5.113 -0.4119 -0.2178 -1.2399
  917TIP3   OH224165   6.433   4.006  13.059 -0.2120 -0.4492 -0.7643
  917TIP3    H124166   6.435   3.961  12.975  1.0518 -0.1734 -0.8909
  917TIP3    H224167   6.461   4.095  13.039 -0.2239 -0.2949 -0.1003
  918TIP3   OH224168   1.600   4.715  13.303  0.6298 -0.3751 -0.5104
  918TIP3    H124169   1.606   4.799  13.257 -0.5535  0.7828  1.3966
  918TIP3    H224170   1.545   4.661  13.246  0.0959  0.6730 -1.0025
  919TIP3   OH224171   1.803   6.680   5.867  0.5369 -0.0610  0.3600
  919TIP3    H124172   1.763   6.593   5.862 -0.1210  0.1524  1.5828
  919TIP3    H224173   1.893   6.663   5.897  0.4910 -0.3373  0.3463
  920TIP3   OH224174   3.173   6.066  12.802  0.3780 -0.1020  0.0292
  920TIP3    H124175   3.123   6.139  12.766  0.3371 -0.4148 -0.5540
  920TIP3    H224176   3.200   6.096  12.889 -0.8126  0.0718  0.3455
  921TIP3   OH224177   6.703   5.831   1.438  0.2454 -0.1809 -0.3225
  921TIP3    H124178   6.795   5.815   1.458 -0.0026 -2.5035 -0.9337
  921TIP3    H224179   6.702   5.852   1.345  0.1034 -0.7463 -0.4519
  922TIP3   OH224180   2.977   2.100   5.242  0.0516 -0.0457  0.4329
  922TIP3    H124181   2.951   2.035   5.308  1.3851  0.6436  1.6573
  922TIP3    H224182   2.902   2.159   5.236 -0.8275 -1.1808 -0.0579
  923TIP3   OH224183   0.659   4.849  15.957  0.4350 -0.0565 -0.0764
  923TIP3    H124184   0.706   4.932  15.958  1.0290 -0.3829 -0.6067
  923TIP3    H224185   0.594   4.859  15.888  0.2520  0.1088  0.1202
  924TIP3   OH224186   0.908   3.479  12.677 -0.0746 -0.7560  0.1195
  924TIP3    H124187   0.957   3.482  12.759 -0.7895  0.8775  0.5211
  924TIP3    H224188   0.954   3.415  12.623 -0.2607 -2.6754  2.1953
  925TIP3   OH224189   5.229   0.923   5.143  0.1381 -0.1643  0.1409
  925TIP3    H124190   5.186   0.949   5.062  0.2661 -0.4930 -0.0306
  925TIP3    H224191   5.189   0.979   5.210 -0.1528 -0.0771 -0.1059
  926TIP3   OH224192   6.186   6.169  11.313 -0.1370  0.2988 -0.0766
  926TIP3    H124193   6.170   6.088  11.264 -1.7893  2.1512 -2.7480
  926TIP3    H224194   6.112   6.176  11.373 -0.1453 -0.0221 -0.0479
  927TIP3   OH224195   2.662   1.489  14.442  0.0326  0.0672 -0.6463
  927TIP3    H124196   2.635   1.448  14.524  2.0208  1.8956  0.9895
  927TIP3    H224197   2.689   1.415  14.387  0.3518 -1.0704  0.9804
  928TIP3   OH224198   1.324   0.600   4.800  0.0227  0.2074 -1.1115
  928TIP3    H124199   1.312   0.671   4.863 -0.9269 -0.3571 -0.6307
  928TIP3    H224200   1.238   0.557   4.796  1.2050 -2.4516  0.5004
  929TIP3   OH224201   3.381   4.067  16.646  0.4482 -0.7387  0.0411
  929TIP3    H124202   3.405   3.998  16.707 -0.9246 -1.1292  0.1640
  929TIP3    H224203   3.289   4.050  16.625 -0.0903  1.3668  0.5260
  930TIP3   OH224204   1.797   4.080   1.015 -0.5555 -0.2135  0.4948
  930TIP3    H124205   1.743   4.017   1.062  1.8712 -0.7146  2.6872
  930TIP3    H224206   1.810   4.152   1.077 -0.2469  0.7668 -0.6787
  931TIP3   OH224207   0.017   3.136  11.797  0.3634  0.3204 -0.6317
  931TIP3    H124208  -0.055   3.103  11.743  0.3043  1.6640 -1.4213
  931TIP3    H224209   0.096   3.106  11.752  0.2956 -0.2646 -0.3534
  932TIP3   OH224210   1.601   2.254  13.063  1.0811  0.2232  0.1653
  932TIP3    H124211   1.577   2.285  12.976  1.9004  0.6922  0.0991
  932TIP3    H224212   1.527   2.276  13.119  0.4104 -0.3806 -0.4777
  933TIP3   OH224213   4.001   4.868  13.526  0.5410 -0.0798 -0.1025
  933TIP3    H124214   3.919   4.830  13.557  1.1820 -1.5038 -0.0698
  933TIP3    H224215   4.048   4.794  13.487  2.3458  0.4320  1.0462
  934TIP3   OH224216   3.168   3.976   0.886 -0.0892 -0.4321  0.4363
  934TIP3    H124217   3.116   3.916   0.939 -0.6455 -1.5314 -1.3244
  934TIP3    H224218   3.148   4.063   0.921 -2.5878 -0.8891  0.2082
  935TIP3   OH224219   3.577   5.631  16.313 -0.0001  0.2580 -0.1360
  935TIP3    H124220   3.625   5.570  16.370 -0.1124 -0.3774 -0.7151
  935TIP3    H224221   3.634   5.641  16.237 -0.2637  0.4079 -0.3132
  936TIP3   OH224222   3.224   1.323   5.760  0.1651  0.1517  0.4696
  936TIP3    H124223   3.229   1.239   5.713  0.6137  0.0363  0.7164
  936TIP3    H224224   3.237   1.389   5.693  0.0524  0.0158  0.3118
  937TIP3   OH224225   0.642   0.706  12.653  0.3437  0.1839  0.0730
  937TIP3    H124226   0.697   0.646  12.602 -0.2296 -0.7625  0.5570
  937TIP3    H224227   0.704   0.754  12.708  1.0327  1.6242 -1.8963
  938TIP3   OH224228   0.768   6.288   3.676 -0.0425  0.2907  0.4859
  938TIP3    H124229   0.807   6.295   3.764  0.5565 -0.2164  0.2626
  938TIP3    H224230   0.822   6.224   3.631  0.3711  1.4063 -0.6383
  939TIP3   OH224231   0.597   1.935   3.292  0.0589  0.3971  0.0707
  939TIP3    H124232   0.564   1.847   3.310 -1.7140  1.2790  1.2976
  939TIP3    H224233   0.631   1.929   3.203  0.4142 -1.6431  0.3024
  940TIP3   OH224234   5.773   4.281   4.357  0.0887 -0.2458 -0.8177
  940TIP3    H124235   5.857   4.326   4.350 -0.3808  0.6532 -0.7475
  940TIP3    H224236   5.709   4.345   4.326 -1.0362  0.6595  3.0179
  941TIP3   OH224237   0.069   2.256  11.864 -0.2839  0.2051 -0.0097
  941TIP3    H124238   0.108   2.323  11.807  0.3407 -2.3753 -2.7236
  941TIP3    H224239   0.138   2.237  11.928  0.3503  0.5852 -0.5645
  942TIP3   OH224240   0.267   4.427   1.664  0.6339  0.4018  0.1347
  942TIP3    H124241   0.237   4.375   1.738  1.1538 -0.9325 -0.5803
  942TIP3    H224242   0.320   4.367   1.612  2.1714  1.9360 -0.1261
  943TIP3   OH224243   3.401   3.931   0.776  0.1425  0.1141  0.2499
  943TIP3    H124244   3.368   3.864   0.715 -0.9019  0.6070  0.2689
  943TIP3    H224245   3.324   3.957   0.827  0.9359 -0.0185  1.5290
  944TIP3   OH224246   6.444   6.123   2.500 -0.2117 -0.2593 -0.3818
  944TIP3    H124247   6.484   6.188   2.442 -0.7522  0.4831  0.0776
  944TIP3    H224248   6.390   6.069   2.442 -4.2155  3.1157 -0.0362
  945TIP3   OH224249   2.746   6.696   4.155 -0.0601  0.2675 -0.1729
  945TIP3    H124250   2.733   6.770   4.214 -0.8379 -1.3043  1.7189
  945TIP3    H224251   2.841   6.680   4.158  0.2837  1.9311 -1.5717
  946TIP3   OH224252   6.453   5.777  16.804  0.0734 -0.0540  0.2663
  946TIP3    H124253   6.380   5.718  16.822  0.1325 -0.8952 -2.0818
  946TIP3    H224254   6.471   5.820  16.888 -3.0650  0.1308  0.8932
  947TIP3   OH224255   0.598   6.125   4.866 -0.5452 -0.5986  0.4542
  947TIP3    H124256   0.673   6.156   4.815 -1.3095  2.4387  1.0617
  947TIP3    H224257   0.521   6.161   4.821 -1.4903 -1.6429  1.2027
  948TIP3   OH224258   2.519   2.538   0.156 -0.2551 -0.4149 -0.1346
  948TIP3    H124259   2.545   2.500   0.073 -2.2888 -0.2148 -0.8759
  948TIP3    H224260   2.600   2.577   0.191  1.0145 -2.1368 -1.0943
  949TIP3   OH224261   4.956   3.178  12.236 -0.2758  0.6509 -0.2001
  949TIP3    H124262   4.905   3.225  12.169 -0.9392  0.8934  0.4741
  949TIP3    H224263   4.905   3.098  12.253  1.0672 -0.5511 -1.6629
  950TIP3   OH224264   5.401   0.163   3.758 -0.4406  0.5319  0.5526
  950TIP3    H124265   5.355   0.081   3.772 -1.1778  0.6608 -0.9599
  950TIP3    H224266   5.494   0.141   3.766 -0.5813 -0.6755 -0.9373
  951TIP3   OH224267   2.533   4.588  11.968  0.4871  0.5011 -0.2276
  951TIP3    H124268   2.530   4.679  11.938 -0.7755 -0.0134 -1.7727
  951TIP3    H224269   2.614   4.581  12.017  0.5528  2.4889 -0.0208
  952TIP3   OH224270   5.895   4.818  14.117  0.0123 -0.2732 -0.4171
  952TIP3    H124271   5.897   4.785  14.207  0.7851  1.3822  0.1803
  952TIP3    H224272   5.805   4.848  14.105  0.1465  0.3373  0.1062
  953TIP3   OH224273   4.307   5.274   0.072 -0.3382  0.5707  0.9133
  953TIP3    H124274   4.255   5.234   0.002  0.8466  0.8098 -0.1164
  953TIP3    H224275   4.303   5.368   0.055  1.0130  0.5487  0.3904
  954TIP3   OH224276   1.617   6.240  11.004 -0.1384  0.3946  0.2139
  954TIP3    H124277   1.619   6.185  11.083  0.7264 -0.1699 -0.1896
  954TIP3    H224278   1.674   6.194  10.942 -0.5430  1.0181 -0.6211
  955TIP3   OH224279   5.219   3.249   2.550 -0.1141 -0.0151 -0.2105
  955TIP3    H124280   5.172   3.250   2.467  0.5312 -0.5824 -0.5829
  955TIP3    H224281   5.276   3.325   2.547 -0.2041  0.0532 -0.2125
  956TIP3   OH224282   1.809   1.650   5.073 -0.4706  0.3305 -0.2800
  956TIP3    H124283   1.862   1.678   5.148  1.5931 -2.3032 -0.6694
  956TIP3    H224284   1.739   1.597   5.111  0.1194 -0.3532 -0.1341
  957TIP3   OH224285   5.536   1.890  14.262  0.0843  0.2879 -0.3817
  957TIP3    H124286   5.456   1.934  14.233  1.0920  2.8558  0.5290
  957TIP3    H224287   5.600   1.961  14.271  1.0966 -0.9761  3.6714
  958TIP3   OH224288   2.227   0.145  11.966  0.8762 -0.7402 -0.6483
  958TIP3    H124289   2.145   0.116  11.926  0.5850  0.7345 -1.1779
  958TIP3    H224290   2.259   0.069  12.014 -2.0464 -0.6158  1.6054
  959TIP3   OH224291   3.205   4.306  14.159 -0.4800  1.0694  0.5406
  959TIP3    H124292   3.216   4.361  14.081 -1.0761  1.3973  0.6798
  959TIP3    H224293   3.131   4.249  14.137  0.4436 -0.0261  0.2077
  960TIP3   OH224294   5.305   5.084   0.967 -0.1595 -0.2680  0.4878
  960TIP3    H124295   5.349   5.154   1.014  0.1579  0.9790 -1.5771
  960TIP3    H224296   5.219   5.120   0.944  0.6653  0.1550 -2.1284
  961TIP3   OH224297   4.810   5.922  11.245 -0.1043  0.3255 -0.0635
  961TIP3    H124298   4.828   5.889  11.157 -1.4998  0.3311 -0.3586
  961TIP3    H224299   4.894   5.915  11.291  0.1670 -1.5696 -0.7883
  962TIP3   OH224300   3.368   6.516  16.673  0.3391  0.1350  0.1554
  962TIP3    H124301   3.306   6.536  16.603 -0.7414 -0.5746  0.8889
  962TIP3    H224302   3.313   6.507  16.752  1.4873  0.4820  1.0009
  963TIP3   OH224303   4.111   0.342   1.899  0.1501 -0.0182 -0.4034
  963TIP3    H124304   4.089   0.249   1.906 -1.4088  0.4589  1.4136
  963TIP3    H224305   4.205   0.342   1.881  0.3788 -1.9304  0.5950
  964TIP3   OH224306   0.712   1.840  13.593  0.1702 -0.0258 -0.1871
  964TIP3    H124307   0.741   1.867  13.506  0.0980  1.5879  0.2735
  964TIP3    H224308   0.666   1.917  13.628 -1.3835 -1.2633  0.5543
  965TIP3   OH224309   1.796   5.572   4.304  0.4859  0.3810 -0.2157
  965TIP3    H124310   1.753   5.494   4.340  0.1071  0.6658 -0.0505
  965TIP3    H224311   1.728   5.615   4.253  0.8549  0.3034 -0.7707
  966TIP3   OH224312   6.620   3.462   6.231 -0.2948  0.1817 -0.4809
  966TIP3    H124313   6.592   3.371   6.217  0.4166  0.1329 -1.6881
  966TIP3    H224314   6.714   3.460   6.213  0.5499  0.3069  3.6492
  967TIP3   OH224315   2.816   1.433   0.851 -0.6753  0.1311  0.3504
  967TIP3    H124316   2.865   1.439   0.933  1.0765  1.1025 -0.7552
  967TIP3    H224317   2.818   1.340   0.829  1.8433  0.3303 -0.3684
  968TIP3   OH224318   1.427   4.539  12.800  0.5476  0.1655 -0.5799
  968TIP3    H124319   1.372   4.603  12.845 -0.0722  1.5042 -3.1010
  968TIP3    H224320   1.405   4.455  12.840 -0.7158  1.1634  0.8686
  969TIP3   OH224321   0.558   1.672   4.013  0.3649 -0.2106 -0.2192
  969TIP3    H124322   0.517   1.739   4.068 -1.5425 -0.4606 -1.2808
  969TIP3    H224323   0.511   1.591   4.036  0.4524 -0.5609 -1.2619
  970TIP3   OH224324   1.535   4.375  16.902 -0.1914 -0.0099  0.3892
  970TIP3    H124325   1.472   4.400  16.834  0.1032  0.2512  0.2126
  970TIP3    H224326   1.595   4.314  16.858 -1.5243 -1.8849  1.0906
  971TIP3   OH224327   3.650   0.456   4.139 -0.4986  0.3303  0.5976
  971TIP3    H124328   3.657   0.420   4.227 -1.7203  0.9099  0.9465
  971TIP3    H224329   3.556   0.454   4.120 -0.4848  2.4526  0.2497
  972TIP3   OH224330   6.689   0.531  10.825 -0.5514 -0.1324  0.2968
  972TIP3    H124331   6.749   0.540  10.899 -1.4212  1.3423  0.8344
  972TIP3    H224332   6.746   0.524  10.748  0.3416 -1.1164  1.0327
  973TIP3   OH224333   6.258   1.750  13.197  0.2245 -0.2324 -0.5087
  973TIP3    H124334   6.245   1.720  13.107 -1.3809  4.1522 -1.8769
  973TIP3    H224335   6.175   1.732  13.241 -0.4545  1.3024 -1.1097
  974TIP3   OH224336   2.985   4.166   2.697 -0.2568 -0.5444  0.5023
  974TIP3    H124337   3.036   4.101   2.745  0.5369  1.0805  1.9213
  974TIP3    H224338   3.005   4.149   2.605 -0.6005 -2.7177  0.8087
  975TIP3   OH224339   5.953   2.077  12.304  0.0955  1.0429 -0.5038
  975TIP3    H124340   6.032   2.023  12.306 -0.4033  0.3476  1.0758
  975TIP3    H224341   5.881   2.014  12.304 -0.4957  1.6959  1.0131
  976TIP3   OH224342   2.409   2.613  13.287 -0.0740  0.2769 -0.3952
  976TIP3    H124343   2.352   2.569  13.350 -0.8690  0.2328 -1.1235
  976TIP3    H224344   2.472   2.661  13.340  1.1845 -2.2003  0.4367
  977TIP3   OH224345   4.057   2.817   4.775  0.4798  0.6346 -0.0515
  977TIP3    H124346   4.001   2.890   4.802  0.2955  0.8796 -1.1079
  977TIP3    H224347   4.001   2.740   4.785  0.6397  0.6410  0.9595
  978TIP3   OH224348   5.442   0.671   6.228 -0.1413 -0.4549 -0.4113
  978TIP3    H124349   5.458   0.580   6.254 -1.6014 -0.3315  0.9543
  978TIP3    H224350   5.447   0.669   6.132  1.3347 -1.6740 -0.3404
  979TIP3   OH224351   1.938   6.195   3.966  0.3362  0.3406  0.0482
  979TIP3    H124352   1.995   6.141   4.021  1.5034  1.5833  0.1007
  979TIP3    H224353   1.991   6.216   3.889 -0.2834  0.9411 -0.2223
  980TIP3   OH224354   6.512   4.184   1.469  0.5071  0.6028  0.4682
  980TIP3    H124355   6.522   4.279   1.464 -0.4363  0.7142  0.5690
  980TIP3    H224356   6.429   4.171   1.516  0.1973 -0.2538 -0.3022
  981TIP3   OH224357   4.949   6.312   0.071  0.2602  0.0810  0.4934
  981TIP3    H124358   4.896   6.277   0.142  1.8506 -0.0353  1.6698
  981TIP3    H224359   4.893   6.309  -0.006 -1.2503 -0.4715  1.6047
  982TIP3   OH224360   5.761   5.110  15.577  0.3103 -0.6289 -0.5945
  982TIP3    H124361   5.702   5.038  15.597 -0.1480 -0.3934 -1.0874
  982TIP3    H224362   5.804   5.130  15.661 -1.8574  0.5877  0.2783
  983TIP3   OH224363   5.547   0.288   1.463 -0.0654 -0.0618  0.4305
  983TIP3    H124364   5.577   0.302   1.553  1.3639 -1.7800  0.2549
  983TIP3    H224365   5.566   0.196   1.446 -3.0361 -0.5461 -0.6360
  984TIP3   OH224366   5.812   1.656   3.563 -0.7448  0.3517 -0.1402
  984TIP3    H124367   5.889   1.675   3.509 -1.6034  1.0116 -1.1418
  984TIP3    H224368   5.792   1.738   3.607 -0.9048  0.1936  0.0839
  985TIP3   OH224369   4.982   1.343   2.256  0.2767  0.0919  0.2823
  985TIP3    H124370   5.010   1.251   2.261  0.2035  0.0465 -0.1152
  985TIP3    H224371   4.890   1.342   2.281  0.7442  0.3074  2.0782
  986TIP3   OH224372   1.493   2.187   3.360 -0.4576 -0.1878 -0.4987
  986TIP3    H124373   1.578   2.214   3.323 -0.7036 -0.8708 -1.5834
  986TIP3    H224374   1.508   2.100   3.395 -1.2171 -1.1661 -2.5425
  987TIP3   OH224375   0.795   3.581   1.724  0.1863 -0.3473  0.5762
  987TIP3    H124376   0.803   3.534   1.641 -0.1200  0.2407  0.2160
  987TIP3    H224377   0.885   3.594   1.753  0.3302  0.4897 -0.2460
  988TIP3   OH224378   2.698   0.188   5.018 -0.4549 -0.7361  0.5477
  988TIP3    H124379   2.611   0.208   5.050 -0.3937  1.6063 -0.6514
  988TIP3    H224380   2.748   0.269   5.031  0.7542 -1.1462 -1.3179
  989TIP3   OH224381   0.826   4.162  14.373  0.8702  0.0090 -0.1387
  989TIP3    H124382   0.737   4.198  14.372  0.9348  0.1818  0.4708
  989TIP3    H224383   0.813   4.068  14.386  0.8316  0.2002  1.1979
  990TIP3   OH224384   0.365   1.682   5.640  0.5867  0.0646 -0.1559
  990TIP3    H124385   0.395   1.749   5.579  2.4792  0.4434  1.1357
  990TIP3    H224386   0.408   1.704   5.723 -0.8230 -1.2466  0.9627
  991TIP3   OH224387   3.352   3.503  17.215  0.4429  0.2848  0.2201
  991TIP3    H124388   3.429   3.543  17.174  0.9978  0.4144  1.3868
  991TIP3    H224389   3.279   3.531  17.160  1.1568  0.5989 -0.5849
  992TIP3   OH224390   1.800   0.154  12.431 -0.2614 -0.1922  0.0099
  992TIP3    H124391   1.825   0.218  12.364 -0.0660  0.9600  1.1555
  992TIP3    H224392   1.727   0.106  12.393 -0.5076  0.8194 -0.8135
  993TIP3   OH224393   5.621   3.975  13.765  0.1965  0.2173 -0.3001
  993TIP3    H124394   5.543   4.028  13.749 -0.7815 -0.8928  0.6520
  993TIP3    H224395   5.638   3.930  13.682  0.2927  1.0576 -0.7391
  994TIP3   OH224396   4.101   0.841  16.350  0.0933  0.8746 -0.4366
  994TIP3    H124397   4.032   0.901  16.321 -0.2096  1.0278  0.5800
  994TIP3    H224398   4.062   0.792  16.422  0.9050  0.6619 -0.1317
  995TIP3   OH224399   6.120   1.545   0.385 -0.6185  0.4579  0.2357
  995TIP3    H124400   6.025   1.545   0.372 -0.6837  1.1160  0.6948
  995TIP3    H224401   6.131   1.568   0.477 -0.0469 -0.7363  0.4812
  996TIP3   OH224402   4.328   5.058  16.806  0.0108  1.4360  0.4102
  996TIP3    H124403   4.370   4.974  16.825 -4.3700 -1.0050 -0.0268
  996TIP3    H224404   4.352   5.078  16.715  0.9813  0.6193  0.4828
  997TIP3   OH224405   1.779   2.614   3.967 -0.1671 -0.0044  0.3725
  997TIP3    H124406   1.736   2.542   3.920  0.2593  0.4203 -0.6910
  997TIP3    H224407   1.753   2.602   4.058  0.0837 -1.6554  0.2479
  998TIP3   OH224408   6.018   4.828  16.470  0.0855 -0.5462 -0.4450
  998TIP3    H124409   5.999   4.735  16.477  0.3045 -0.4744  1.3367
  998TIP3    H224410   5.961   4.870  16.534  0.1746  0.5191 -1.0464
  999TIP3   OH224411   1.474   4.848  13.524  0.7463  0.1325  0.1160
  999TIP3    H124412   1.525   4.845  13.443  1.1071  0.1108  0.3409
  999TIP3    H224413   1.483   4.760  13.561  1.1061  0.3254  0.4944
 1000TIP3   OH224414   0.277   2.597   5.190 -0.3429  0.3862 -0.2051
 1000TIP3    H124415   0.348   2.621   5.249 -1.3699  2.6498  0.1927
 1000TIP3    H224416   0.305   2.515   5.149  1.8733  0.5522  0.9260
 1001TIP3   OH224417   5.102   4.521   2.417 -0.7473  0.8124 -0.3073
 1001TIP3    H124418   5.145   4.575   2.483 -2.2711  2.9118 -0.9802
 1001TIP3    H224419   5.173   4.473   2.375  0.2342 -0.7936  3.0021
 1002TIP3   OH224420   3.017   3.658  13.133 -0.1446 -0.3035 -0.2962
 1002TIP3    H124421   2.953   3.658  13.205 -1.1078 -0.5736 -1.1392
 1002TIP3    H224422   2.965   3.677  13.055  1.0807  1.1889 -0.7733
 1003TIP3   OH224423   0.263   3.310   5.486  0.3506 -0.3778 -0.0703
 1003TIP3    H124424   0.179   3.272   5.457  0.3855  0.0900 -0.8197
 1003TIP3    H224425   0.301   3.244   5.543 -0.7781 -0.3769  0.7133
 1004TIP3   OH224426   5.193   3.002  14.861 -1.1311 -1.1034 -0.1379
 1004TIP3    H124427   5.165   3.084  14.821  2.0143 -1.4393 -3.3036
 1004TIP3    H224428   5.177   2.936  14.793  1.8499 -2.1300  0.1040
 1005TIP3   OH224429   4.236   3.001  16.521 -0.0512  0.1557 -0.0150
 1005TIP3    H124430   4.280   2.996  16.436 -0.5928 -0.4378 -0.2673
 1005TIP3    H224431   4.287   3.065  16.570  1.7295 -1.3158  0.0815
 1006TIP3   OH224432   4.945   1.000   0.211  0.4482 -0.6411 -0.0317
 1006TIP3    H124433   4.866   1.044   0.180  2.2692  1.5419 -1.8018
 1006TIP3    H224434   4.992   1.067   0.260  2.3815 -1.1458 -1.1439
 1007TIP3   OH224435   0.944   0.769  15.572  0.3779 -0.2110 -0.1091
 1007TIP3    H124436   0.970   0.838  15.510 -0.0370 -0.4099 -0.5070
 1007TIP3    H224437   0.906   0.701  15.517  0.8157 -0.7724  0.2886
 1008TIP3   OH224438   2.768   0.627  15.776  0.1716 -0.2946  0.0136
 1008TIP3    H124439   2.734   0.693  15.715  0.4755 -0.1591 -0.0073
 1008TIP3    H224440   2.723   0.546  15.751 -0.6781  0.0336  0.4420
 1009TIP3   OH224441   3.215   3.365   0.691 -0.0393  0.5423  0.1281
 1009TIP3    H124442   3.156   3.312   0.744  0.1127  0.8068  0.5668
 1009TIP3    H224443   3.295   3.371   0.743  0.0466  0.9618 -0.0466
 1010TIP3   OH224444   0.644   5.864  15.153  0.2570  0.2816  0.2994
 1010TIP3    H124445   0.646   5.799  15.083 -1.8522 -1.7536  2.0595
 1010TIP3    H224446   0.553   5.892  15.158  0.7447  1.8365  1.0048
 1011TIP3   OH224447   1.901   4.177  15.223 -0.1664 -0.3106  0.2649
 1011TIP3    H124448   1.902   4.087  15.190  1.0702 -0.9963  2.0447
 1011TIP3    H224449   1.910   4.167  15.318 -0.1113  1.6910  0.4866
 1012TIP3   OH224450   4.654   2.240  12.554  0.0828  0.0128 -0.0556
 1012TIP3    H124451   4.651   2.221  12.647 -1.4090  0.7456  0.0633
 1012TIP3    H224452   4.713   2.174  12.517  0.2881 -0.5810  1.3218
 1013TIP3   OH224453   3.429   3.536   3.336 -0.3588 -0.2695 -1.1355
 1013TIP3    H124454   3.364   3.466   3.339 -1.4065  0.7527  1.1574
 1013TIP3    H224455   3.428   3.574   3.424  0.6779  2.1855 -2.1288
 1014TIP3   OH224456   5.962   4.127   3.207  0.2579  0.1072 -0.5032
 1014TIP3    H124457   6.041   4.078   3.230  1.3125  2.1560  0.3444
 1014TIP3    H224458   5.972   4.147   3.114  0.5872  0.1266 -0.4627
 1015TIP3   OH224459   0.159   0.004  14.118  0.2526  0.1505 -0.8133
 1015TIP3    H124460   0.188  -0.064  14.057 -1.8249 -1.5739  0.0321
 1015TIP3    H224461   0.194  -0.024  14.203  0.1273  0.6135 -0.6078
 1016TIP3   OH224462   0.581   5.294   1.654  0.5192  0.6984 -0.0379
 1016TIP3    H124463   0.634   5.217   1.634  1.3173  1.4247 -0.7454
 1016TIP3    H224464   0.509   5.292   1.591  0.3094  0.3297  0.2045
 1017TIP3   OH224465   0.206   3.208  12.988 -0.5267  0.0813  0.7501
 1017TIP3    H124466   0.230   3.119  12.961 -0.6314  0.6145 -1.2470
 1017TIP3    H224467   0.169   3.247  12.909  2.0439  2.7839  0.7626
 1018TIP3   OH224468   0.201   0.161  11.189  0.1904  0.0736  0.1539
 1018TIP3    H124469   0.109   0.183  11.180  0.6022  2.0053  0.4054
 1018TIP3    H224470   0.210   0.126  11.278 -0.1766  0.5426  0.3745
 1019TIP3   OH224471   6.025   1.317  13.332  0.4605 -0.3243  0.1275
 1019TIP3    H124472   5.952   1.257  13.350 -0.2218  0.0464 -1.3109
 1019TIP3    H224473   6.039   1.309  13.238 -1.8118  4.1494 -0.7497
 1020TIP3   OH224474   0.782   1.555  12.247 -0.3221  0.3754  0.3864
 1020TIP3    H124475   0.770   1.521  12.335  1.3032 -1.1661  0.0414
 1020TIP3    H224476   0.855   1.616  12.254  1.5357 -1.7016 -0.3429
 1021TIP3   OH224477   1.762   3.771  11.081 -0.1882  0.2639 -0.0124
 1021TIP3    H124478   1.771   3.830  11.007  0.5521 -1.7029 -1.5376
 1021TIP3    H224479   1.687   3.715  11.058 -1.7171  1.4141  2.0016
 1022TIP3   OH224480   0.835   0.915  13.770 -0.3309 -0.1102 -0.1981
 1022TIP3    H124481   0.746   0.934  13.800 -0.3424 -0.8820  0.2738
 1022TIP3    H224482   0.868   0.851  13.833  0.7460  0.5601 -0.0736
 1023TIP3   OH224483   1.097   3.197   5.539  0.3718  0.2465 -0.1010
 1023TIP3    H124484   1.140   3.264   5.592 -4.2451  1.7025  2.0179
 1023TIP3    H224485   1.067   3.132   5.603 -1.4135 -0.2300 -1.3993
 1024TIP3   OH224486   3.754   5.226   2.778 -0.1287 -0.3703 -0.4939
 1024TIP3    H124487   3.760   5.253   2.686  1.7757 -0.3523 -0.3829
 1024TIP3    H224488   3.797   5.296   2.826 -2.3180  0.2988  0.5880
 1025TIP3   OH224489   3.459   1.144  16.310  0.0067 -0.1589  0.0636
 1025TIP3    H124490   3.398   1.218  16.301 -1.0177 -0.9916  0.0523
 1025TIP3    H224491   3.465   1.129  16.404  0.7747  0.3861  0.1082
 1026TIP3   OH224492   3.248   5.639   0.239  0.0757 -0.1437  0.2794
 1026TIP3    H124493   3.259   5.683   0.323 -2.1421  0.6768  0.1626
 1026TIP3    H224494   3.156   5.650   0.218  0.3425 -1.4217 -1.6778
 1027TIP3   OH224495   1.994   2.843  11.063  0.4249 -0.0310  0.0408
 1027TIP3    H124496   1.999   2.867  10.970  0.2235  2.4908  0.6458
 1027TIP3    H224497   1.906   2.871  11.090  0.6214 -0.4125  1.0945
 1028TIP3   OH224498   2.997   5.534   1.163 -0.0838 -0.2676 -0.5133
 1028TIP3    H124499   2.986   5.558   1.071  0.1146 -0.0980 -0.4936
 1028TIP3    H224500   3.054   5.602   1.199 -1.8610  0.8710  0.2538
 1029TIP3   OH224501   5.027   2.179   1.409 -0.3552  0.4859 -0.2153
 1029TIP3    H124502   5.005   2.132   1.489 -1.8646  0.8168 -0.4337
 1029TIP3    H224503   5.064   2.262   1.440 -2.1255  1.1605  0.1566
 1030TIP3   OH224504   3.493   0.014  14.471 -0.2377 -0.8385 -0.1965
 1030TIP3    H124505   3.537  -0.058  14.515  0.4380 -1.4177 -1.7573
 1030TIP3    H224506   3.496  -0.009  14.378 -0.0436  1.1715 -0.7307
 1031TIP3   OH224507   2.689   4.447   1.573 -0.5229  0.5578  0.6055
 1031TIP3    H124508   2.736   4.363   1.566 -1.6975 -0.1620  1.2970
 1031TIP3    H224509   2.749   4.511   1.533  0.2385 -0.6578 -0.2302
 1032TIP3   OH224510   6.124   4.909   5.095 -0.2026 -0.1654  0.0524
 1032TIP3    H124511   6.074   4.921   5.014  0.6160  2.0405 -0.1729
 1032TIP3    H224512   6.209   4.876   5.067 -0.0859  0.1436  0.0335
 1033TIP3   OH224513   5.493   2.865  10.963  0.0014 -0.4403 -0.1391
 1033TIP3    H124514   5.549   2.839  10.890 -1.9609 -2.2423 -1.0606
 1033TIP3    H224515   5.410   2.889  10.922 -0.4785  0.5152  1.3428
 1034TIP3   OH224516   6.206   1.286   4.245 -0.0926 -0.2338  0.6648
 1034TIP3    H124517   6.253   1.346   4.304 -0.3810  0.0425  0.6184
 1034TIP3    H224518   6.133   1.339   4.212  0.3718 -0.2252 -0.3505
 1035TIP3   OH224519   0.892   4.002  12.138  0.0526  0.3678  0.3289
 1035TIP3    H124520   0.815   4.052  12.162 -0.5063  0.0898 -0.8598
 1035TIP3    H224521   0.880   3.981  12.046  0.4056 -1.6972  0.7210
 1036TIP3   OH224522   0.517   6.400  16.864 -0.0080  0.1907 -0.2923
 1036TIP3    H124523   0.517   6.310  16.832  1.2012 -0.1783  0.6805
 1036TIP3    H224524   0.501   6.392  16.958  1.0570  0.9025 -0.0349
 1037TIP3   OH224525   3.077   6.514   4.978  0.2238 -0.0878 -0.0116
 1037TIP3    H124526   3.144   6.491   5.042 -0.0771  0.0602  0.3602
 1037TIP3    H224527   3.010   6.561   5.029  0.4481  0.8991 -0.6186
 1038TIP3   OH224528   5.645   3.724  12.062  0.7312  0.3676 -0.3644
 1038TIP3    H124529   5.558   3.722  12.023 -0.7920 -1.4379  2.8155
 1038TIP3    H224530   5.691   3.649  12.024  0.9774  1.4258 -2.1719
 1039TIP3   OH224531   1.214   3.722  15.159  0.9160  0.5008  0.1862
 1039TIP3    H124532   1.187   3.796  15.213 -1.1088  0.8542 -1.2781
 1039TIP3    H224533   1.266   3.667  15.218 -1.4994  0.7056  2.5991
 1040TIP3   OH224534   2.688   0.331  12.732 -0.4209 -0.0721 -0.3249
 1040TIP3    H124535   2.696   0.312  12.639 -1.2247  0.4232 -0.4989
 1040TIP3    H224536   2.603   0.296  12.757 -0.1579 -0.3057  0.2539
 1041TIP3   OH224537   2.837   3.339  11.766  0.3385  0.4346  0.0814
 1041TIP3    H124538   2.822   3.405  11.699  0.3603 -0.5509 -0.8970
 1041TIP3    H224539   2.783   3.367  11.840 -1.7281  0.0947 -1.2882
 1042TIP3   OH224540   2.646   0.237  14.071 -0.3393 -0.0026 -0.0646
 1042TIP3    H124541   2.700   0.213  13.996  0.7856 -0.8570  0.9905
 1042TIP3    H224542   2.607   0.155  14.100 -0.8666  0.3404  0.1978
 1043TIP3   OH224543   2.020   4.576   0.856 -0.2891 -0.5899 -0.1197
 1043TIP3    H124544   2.060   4.646   0.803  0.5569 -2.6537 -2.3050
 1043TIP3    H224545   2.092   4.545   0.912 -0.7089  0.3618  0.9732
 1044TIP3   OH224546   6.774   5.323  11.500  0.2724 -0.5746  0.0006
 1044TIP3    H124547   6.705   5.299  11.563  1.4755  0.9238  1.9583
 1044TIP3    H224548   6.796   5.240  11.458 -0.8913 -1.5558  1.2325
 1045TIP3   OH224549   4.437   3.924   1.863  0.5364  0.4290  0.6348
 1045TIP3    H124550   4.520   3.876   1.865  0.3100  0.0214  0.2961
 1045TIP3    H224551   4.459   4.010   1.899  0.4435 -0.6840  3.5287
 1046TIP3   OH224552   0.718   3.932  13.336  0.4876  0.1235  0.8417
 1046TIP3    H124553   0.729   3.978  13.252 -1.3286  1.5232  1.3484
 1046TIP3    H224554   0.685   3.845  13.311  0.0018  0.5107  0.0905
 1047TIP3   OH224555   3.733   2.151   4.359 -0.1506  0.1879  0.4454
 1047TIP3    H124556   3.804   2.203   4.396  0.9762 -2.1477  1.6745
 1047TIP3    H224557   3.762   2.130   4.270  0.8774 -1.0349  1.0555
 1048TIP3   OH224558   1.825   1.696  15.040  0.2855 -0.3378 -0.5013
 1048TIP3    H124559   1.730   1.697  15.054  0.3770  0.6523  0.1356
 1048TIP3    H224560   1.861   1.672  15.125  0.6370  0.3183 -0.4552
 1049TIP3   OH224561   2.534   0.761   2.587  0.4656  0.0761 -0.4362
 1049TIP3    H124562   2.473   0.811   2.532  1.7104  1.1163 -0.9055
 1049TIP3    H224563   2.603   0.733   2.527 -0.9345 -3.5114 -0.4698
 1050TIP3   OH224564   1.648   1.932  15.891  0.0306 -0.0779  0.1812
 1050TIP3    H124565   1.588   1.861  15.914 -0.6236  0.4270  0.0521
 1050TIP3    H224566   1.591   2.001  15.857  0.5198  1.0442  1.5666
 1051TIP3   OH224567   2.121   1.926  14.147  0.0872 -0.5979 -0.3799
 1051TIP3    H124568   2.165   1.969  14.073 -0.3367 -1.7442 -1.3042
 1051TIP3    H224569   2.168   1.843  14.158  0.5767 -0.1438  1.0787
 1052TIP3   OH224570   3.518   4.020  12.781  0.8813 -0.1677 -0.0228
 1052TIP3    H124571   3.487   4.058  12.863  0.6223 -0.5870  0.0743
 1052TIP3    H224572   3.538   4.096  12.725 -2.1970  0.1310 -0.8051
 1053TIP3   OH224573   0.241   1.577  16.780 -0.5057  0.5351  0.0561
 1053TIP3    H124574   0.156   1.596  16.741 -0.2945  1.6280  0.1368
 1053TIP3    H224575   0.243   1.481  16.786 -0.5964  0.3363 -2.4878
 1054TIP3   OH224576   0.355   1.345  16.437 -0.3539  0.1857  0.1877
 1054TIP3    H124577   0.425   1.409  16.424 -0.6614  0.6756  0.9065
 1054TIP3    H224578   0.346   1.301  16.352  0.6678  0.2775  0.0300
 1055TIP3   OH224579   1.655   3.571   3.419  0.4924  0.3337 -0.2951
 1055TIP3    H124580   1.683   3.636   3.484 -2.3160  2.5032 -1.1234
 1055TIP3    H224581   1.561   3.559   3.438  0.0497 -0.3456 -2.7967
 1056TIP3   OH224582   6.255   0.363   1.669  0.2254 -0.7840 -0.0919
 1056TIP3    H124583   6.338   0.325   1.700 -1.0951 -2.2439  1.7987
 1056TIP3    H224584   6.225   0.417   1.742 -0.8287 -0.8291 -0.4802
 1057TIP3   OH224585   0.653   6.115   3.261 -0.2116  0.3062  0.3003
 1057TIP3    H124586   0.678   6.199   3.300  0.9477  0.3825 -0.5828
 1057TIP3    H224587   0.708   6.107   3.184  0.3911 -1.7334  0.9052
 1058TIP3   OH224588   6.632   2.701  13.906  0.3901 -0.1920 -0.0847
 1058TIP3    H124589   6.667   2.675  13.991 -1.7796  0.5297  1.0656
 1058TIP3    H224590   6.557   2.642  13.892 -0.3309  0.8477 -0.6621
 1059TIP3   OH224591   4.647   0.322  12.845 -0.3276 -0.9362 -0.0844
 1059TIP3    H124592   4.736   0.286  12.837  0.7204  1.1304  1.8839
 1059TIP3    H224593   4.656   0.414  12.822 -1.8891 -0.6084  0.5531
 1060TIP3   OH224594   2.023   0.034  11.809  0.1320  0.1438 -0.0797
 1060TIP3    H124595   2.069   0.038  11.725 -1.3534 -2.4777 -1.0505
 1060TIP3    H224596   1.933   0.059  11.789 -0.3507 -0.9845  0.6469
 1061TIP3   OH224597   4.941   2.255   3.711 -0.0647 -0.5992  0.3211
 1061TIP3    H124598   4.868   2.295   3.663  0.0659 -1.2233 -0.3915
 1061TIP3    H224599   4.919   2.271   3.803  0.1411  1.3969  0.0478
 1062TIP3   OH224600   5.754   1.886  13.328 -0.1489  0.0134 -0.5904
 1062TIP3    H124601   5.666   1.900  13.294  0.1752  1.5938 -0.8158
 1062TIP3    H224602   5.750   1.800  13.371 -1.7238 -0.0281 -0.7993
 1063TIP3   OH224603   4.685   2.921   6.033 -0.4052  0.1464 -0.2174
 1063TIP3    H124604   4.698   3.015   6.019  2.9990 -0.4554 -1.3646
 1063TIP3    H224605   4.708   2.907   6.125 -0.2142  0.2956 -0.2430
 1064TIP3   OH224606   5.196   5.002  13.038  0.3375  0.1067 -0.0030
 1064TIP3    H124607   5.137   5.036  12.971  1.5324  0.0189 -1.1135
 1064TIP3    H224608   5.248   5.077  13.066  2.6820 -0.6604 -2.1542
 1065TIP3   OH224609   0.804   6.119  15.950  0.1879 -0.2721  0.0302
 1065TIP3    H124610   0.776   6.041  15.902 -0.7189 -1.5903  2.5652
 1065TIP3    H224611   0.726   6.175  15.952 -0.1998 -0.8313  1.0979
 1066TIP3   OH224612   1.439   5.319  16.275 -0.4835 -0.0859  0.2870
 1066TIP3    H124613   1.474   5.370  16.202  1.2007 -0.6839  0.6531
 1066TIP3    H224614   1.416   5.235  16.237  0.9767 -0.6183  0.5328
 1067TIP3   OH224615   1.276   2.611   6.231  0.6658  0.7270 -0.0983
 1067TIP3    H124616   1.284   2.697   6.189  1.4578  1.0710  0.7411
 1067TIP3    H224617   1.280   2.630   6.325  0.4544 -0.1953  0.1008
 1068TIP3   OH224618   1.615   5.208  13.407 -1.1412 -0.3754 -0.1497
 1068TIP3    H124619   1.585   5.188  13.318 -1.8202 -0.2273  0.0455
 1068TIP3    H224620   1.536   5.237  13.453 -0.5134  1.0051  0.0810
 1069TIP3   OH224621   4.087   2.548   3.549 -0.3322 -0.6573 -0.2884
 1069TIP3    H124622   4.107   2.639   3.572  0.8533 -1.4222  1.9377
 1069TIP3    H224623   3.995   2.537   3.573 -0.9209  0.3398 -1.9724
 1070TIP3   OH224624   0.854   0.866  16.623  0.3545  0.0046 -1.1799
 1070TIP3    H124625   0.818   0.848  16.710  2.0515 -0.3604 -0.5461
 1070TIP3    H224626   0.792   0.824  16.563 -0.5050 -0.2514 -0.1255
 1071TIP3   OH224627   4.682   1.366   1.007 -0.6019 -0.1281  0.4335
 1071TIP3    H124628   4.717   1.452   1.028  0.1820 -0.7474  1.6959
 1071TIP3    H224629   4.589   1.372   1.029 -0.2097 -0.1216  2.1508
 1072TIP3   OH224630   3.537   5.499  11.856 -0.0842  0.8669  0.3353
 1072TIP3    H124631   3.515   5.543  11.774 -1.7134  0.0562  0.3157
 1072TIP3    H224632   3.482   5.542  11.921  0.8066  1.1336  0.9295
 1073TIP3   OH224633   1.981   2.234  10.954 -0.2402 -0.0231  0.5305
 1073TIP3    H124634   1.981   2.151  11.002 -0.6922 -1.2141 -1.5044
 1073TIP3    H224635   2.044   2.220  10.883 -2.4257  0.3743 -1.5135
 1074TIP3   OH224636   1.685   6.449   5.765 -1.0705 -0.1208  0.0834
 1074TIP3    H124637   1.634   6.384   5.717  0.9643 -0.4993 -1.5993
 1074TIP3    H224638   1.757   6.400   5.804 -0.5956  0.8041  0.4038
 1075TIP3   OH224639   1.718   4.298  14.142  0.7191  0.0561  0.0572
 1075TIP3    H124640   1.632   4.299  14.102  0.1302 -1.6117  1.2199
 1075TIP3    H224641   1.775   4.340  14.078 -0.2163 -2.2913 -2.4140
 1076TIP3   OH224642   0.916   1.705   4.593  0.0433  0.1534  0.6552
 1076TIP3    H124643   0.959   1.757   4.661  2.1536 -2.5013  1.4495
 1076TIP3    H224644   0.973   1.711   4.517  1.0569 -2.0697  1.1994
 1077TIP3   OH224645   3.861   4.364  12.428 -0.6651  0.1472 -0.0539
 1077TIP3    H124646   3.932   4.428  12.430 -2.2129  1.8846  0.2708
 1077TIP3    H224647   3.856   4.338  12.336  0.3004  0.0903 -0.1014
 1078TIP3   OH224648   6.527   6.554  11.392 -0.0692 -0.7587 -0.2665
 1078TIP3    H124649   6.569   6.512  11.317 -0.5341 -1.4541 -0.1437
 1078TIP3    H224650   6.445   6.589  11.358  0.5627  0.5225 -0.4852
 1079TIP3   OH224651   4.555   2.255   3.256 -0.2118 -0.1093 -0.2753
 1079TIP3    H124652   4.640   2.239   3.215  0.0623 -1.6680  0.8395
 1079TIP3    H224653   4.569   2.332   3.312 -0.1374  0.9842 -1.7861
 1080TIP3   OH224654   1.986   6.147  15.928  0.9266  0.5417 -0.1343
 1080TIP3    H124655   1.895   6.126  15.906  1.3471 -2.5953  0.8835
 1080TIP3    H224656   1.985   6.158  16.023  1.6271  0.4338 -0.1174
 1081TIP3   OH224657   4.385   0.563   0.309  0.5725  0.3177  0.1286
 1081TIP3    H124658   4.439   0.569   0.230 -0.8402  0.1675 -0.8822
 1081TIP3    H224659   4.435   0.508   0.368  2.0256  1.0931 -0.3528
 1082TIP3   OH224660   4.291   3.502   5.258  0.3702 -0.3630  0.2931
 1082TIP3    H124661   4.340   3.580   5.231 -0.3506 -0.5546 -1.6224
 1082TIP3    H224662   4.256   3.466   5.177 -0.3956 -1.9618  1.3062
 1083TIP3   OH224663   1.668   2.758  15.867  0.4755 -0.1733  0.3641
 1083TIP3    H124664   1.625   2.842  15.881  0.5167 -0.1781  0.5333
 1083TIP3    H224665   1.638   2.703  15.940  0.4763 -0.2945  0.2737
 1084TIP3   OH224666   6.345   0.465  12.885  0.6020 -0.5225  0.6979
 1084TIP3    H124667   6.390   0.493  12.964 -0.6302  0.8255  0.9380
 1084TIP3    H224668   6.403   0.492  12.813  0.4857  0.6104  1.0303
 1085TIP3   OH224669   0.433   5.181  13.782  0.0750 -0.3025 -0.1853
 1085TIP3    H124670   0.388   5.130  13.849 -0.1966 -0.8103 -0.7484
 1085TIP3    H224671   0.525   5.182  13.810  0.2624 -1.9544 -0.6908
 1086TIP3   OH224672   0.664   1.316  11.507  0.2597  0.3345  0.2542
 1086TIP3    H124673   0.667   1.364  11.424 -2.3740 -0.5526 -0.4204
 1086TIP3    H224674   0.598   1.363  11.558 -1.4309 -1.7579  0.0680
 1087TIP3   OH224675   3.036   1.492  15.387  0.2574 -0.2820  0.6407
 1087TIP3    H124676   2.979   1.424  15.350 -0.9482  0.9803  0.1588
 1087TIP3    H224677   3.065   1.543  15.311  0.9219 -0.0710  1.0331
 1088TIP3   OH224678   3.703   5.254   1.035  0.0293 -0.3146  0.3910
 1088TIP3    H124679   3.663   5.288   1.116 -0.9562  0.3789 -0.3696
 1088TIP3    H224680   3.690   5.324   0.971  1.7594 -0.4291 -0.0913
 1089TIP3   OH224681   6.775   5.600   3.607  0.3168 -0.1938  0.3733
 1089TIP3    H124682   6.729   5.683   3.595  1.2960  0.4335  0.8766
 1089TIP3    H224683   6.860   5.614   3.566  0.8878 -0.5762  1.4087
 1090TIP3   OH224684   0.948   0.934  12.013  0.2995 -0.1462 -0.3559
 1090TIP3    H124685   0.998   0.865  12.055  0.2541  0.5866  0.9169
 1090TIP3    H224686   0.912   0.986  12.085  0.5870  1.3911 -1.2925
 1091TIP3   OH224687   6.360   5.486   0.561  0.5613 -0.6136  0.4956
 1091TIP3    H124688   6.395   5.403   0.591  0.4916 -0.2379  1.6455
 1091TIP3    H224689   6.265   5.472   0.557  0.5241 -0.4997  0.9776
 1092TIP3   OH224690   4.633   5.418   4.804  0.3475  0.5249 -0.4951
 1092TIP3    H124691   4.712   5.466   4.826  1.5700 -1.5027 -0.2986
 1092TIP3    H224692   4.661   5.354   4.738 -1.6165  1.2809 -2.1286
 1093TIP3   OH224693   5.041   0.344   5.281 -0.3680 -0.1359 -0.0442
 1093TIP3    H124694   5.123   0.378   5.246  1.7458 -2.2612  2.6778
 1093TIP3    H224695   5.040   0.252   5.253 -1.2215 -0.4558  1.0183
 1094TIP3   OH224696   1.674   5.320   0.517  0.6084  0.1402  0.0144
 1094TIP3    H124697   1.728   5.263   0.462  0.3676 -0.6325  0.5697
 1094TIP3    H224698   1.593   5.330   0.468 -0.5404 -2.4921  1.2723
 1095TIP3   OH224699   3.969   1.170  13.147 -0.1495  0.1294  0.4969
 1095TIP3    H124700   4.050   1.201  13.188  0.7702  1.3961 -2.1720
 1095TIP3    H224701   3.998   1.127  13.066 -2.0945  0.1927 -0.2596
 1096TIP3   OH224702   1.469   1.539  12.680  0.6917  0.2915 -0.0901
 1096TIP3    H124703   1.452   1.446  12.694  2.2134  0.0347  0.1716
 1096TIP3    H224704   1.410   1.584  12.739  1.3039 -0.5687  1.1924
 1097TIP3   OH224705   5.036   5.303  15.419  0.3713  0.3972  0.3894
 1097TIP3    H124706   4.990   5.384  15.441  0.4117  0.4989  0.0996
 1097TIP3    H224707   5.129   5.327  15.423  0.4100  0.1537  1.1333
 1098TIP3   OH224708   6.237   0.406  17.151 -0.0654 -0.0192  0.2852
 1098TIP3    H124709   6.232   0.498  17.178 -2.2596 -0.3776  1.2658
 1098TIP3    H224710   6.183   0.402  17.072 -1.4368 -0.7842  1.2466
 1099TIP3   OH224711   4.509   2.776   5.753  0.4694 -0.1831  0.2527
 1099TIP3    H124712   4.546   2.719   5.686  0.8023 -1.7927  1.7734
 1099TIP3    H224713   4.415   2.771   5.741  0.5667  0.2958 -0.7060
 1100TIP3   OH224714   2.393   1.587  13.593 -0.0817  0.2739 -0.5323
 1100TIP3    H124715   2.328   1.585  13.522  1.1440  1.3931 -1.7046
 1100TIP3    H224716   2.356   1.529  13.660 -3.5000  2.8256 -0.0892
 1101TIP3   OH224717   3.603   4.346  16.026  0.2977  0.0913 -0.1541
 1101TIP3    H124718   3.665   4.414  16.051 -0.3082 -0.1792  2.1409
 1101TIP3    H224719   3.517   4.385  16.040 -0.0517 -0.5089 -0.6002
 1102TIP3   OH224720   6.415   2.235   3.819 -0.6713 -0.3646 -0.3534
 1102TIP3    H124721   6.398   2.314   3.767 -2.1412  0.5188  1.3895
 1102TIP3    H224722   6.369   2.165   3.772  0.9071 -0.2726 -2.0789
 1103TIP3   OH224723   3.143   1.480   2.208 -0.7137 -0.1176  0.2954
 1103TIP3    H124724   3.206   1.531   2.157 -1.9533  1.7145  0.5424
 1103TIP3    H224725   3.171   1.489   2.299 -1.0521  0.2934  0.3592
 1104TIP3   OH224726   1.591   0.725  11.982 -0.3402 -0.4282 -0.1774
 1104TIP3    H124727   1.501   0.692  11.978 -1.1476  1.4488  1.5389
 1104TIP3    H224728   1.636   0.663  12.040 -0.7208 -0.9287 -0.4039
 1105TIP3   OH224729   4.676   4.516   6.642  0.2774 -0.2993 -0.4181
 1105TIP3    H124730   4.635   4.600   6.621 -0.3447 -0.3381  0.6230
 1105TIP3    H224731   4.625   4.452   6.594  0.1160 -0.1908 -0.3896
 1106TIP3   OH224732   6.716   0.114  13.254 -0.2690  0.0092 -0.1857
 1106TIP3    H124733   6.790   0.085  13.202 -0.5469  0.2421 -0.7146
 1106TIP3    H224734   6.754   0.168  13.323  0.1720 -0.9009  0.2992
 1107TIP3   OH224735   3.873   6.700  16.201  0.0923 -0.1412  0.1400
 1107TIP3    H124736   3.839   6.621  16.243 -0.2440 -0.8111 -1.3330
 1107TIP3    H224737   3.933   6.667  16.134  0.0433  0.8540 -0.4021
 1108TIP3   OH224738   2.806   4.589  14.026 -0.5857  0.2905 -0.4106
 1108TIP3    H124739   2.719   4.604  13.987 -1.0336  0.8201  0.7590
 1108TIP3    H224740   2.801   4.630  14.112  0.0067 -1.8445  0.6898
 1109TIP3   OH224741   5.372   1.853   1.750 -1.3534  0.3470 -0.0950
 1109TIP3    H124742   5.361   1.942   1.783 -1.0002 -0.2817  1.7590
 1109TIP3    H224743   5.334   1.797   1.817 -0.7184 -0.9578 -0.7934
 1110TIP3   OH224744   1.130   0.831   4.404  0.1033  0.0364 -0.0954
 1110TIP3    H124745   1.215   0.850   4.444 -0.1973 -0.6900  0.9091
 1110TIP3    H224746   1.069   0.891   4.447 -0.4180 -1.5005  1.3570
 1111TIP3   OH224747   5.443   4.111   2.696  0.1322 -0.1832  0.3207
 1111TIP3    H124748   5.437   4.094   2.602  0.6435 -0.3367  0.3141
 1111TIP3    H224749   5.534   4.137   2.710 -0.0401  0.2252  0.7118
 1112TIP3   OH224750   3.251   2.518   2.982 -0.3465 -0.3596 -0.2815
 1112TIP3    H124751   3.301   2.587   2.938 -0.5887  0.8380  1.2824
 1112TIP3    H224752   3.312   2.479   3.044 -0.6391 -0.5469 -0.1074
 1113TIP3   OH224753   6.630   2.600  14.701  0.1087 -0.4315 -0.4621
 1113TIP3    H124754   6.638   2.666  14.632 -0.9678 -0.3648 -0.5377
 1113TIP3    H224755   6.548   2.622  14.745  1.2888  0.1616  1.5091
 1114TIP3   OH224756   3.938   0.503  16.899 -0.1039  0.8215 -0.1582
 1114TIP3    H124757   4.021   0.456  16.890  0.1016  1.1333  0.1109
 1114TIP3    H224758   3.916   0.497  16.992 -0.6686  0.2661 -0.3180
 1115TIP3   OH224759   1.947   2.380  15.446 -0.1251  0.2310  0.1188
 1115TIP3    H124760   1.852   2.388  15.445 -0.0843  0.8320  0.6827
 1115TIP3    H224761   1.964   2.298  15.493 -0.4204 -0.9514 -1.8137
 1116TIP3   OH224762   0.174   1.319  15.458  0.2553 -0.0653  0.0153
 1116TIP3    H124763   0.105   1.374  15.421  2.5386  2.8074 -0.1917
 1116TIP3    H224764   0.129   1.265  15.523 -2.3151  1.1777 -0.6590
 1117TIP3   OH224765   4.276   4.596  16.779  1.0049  0.1464 -0.2075
 1117TIP3    H124766   4.180   4.591  16.778  0.8445  2.7540 -0.8514
 1117TIP3    H224767   4.303   4.556  16.697  0.3703  0.6669 -0.6818
 1118TIP3   OH224768   4.173   4.002   0.922 -0.3703  0.9573 -0.4166
 1118TIP3    H124769   4.177   3.942   0.847  0.2643 -1.0031  1.1236
 1118TIP3    H224770   4.265   4.018   0.944 -0.5282 -0.6957  1.6071
 1119TIP3   OH224771   0.780   4.131   5.228  0.0194  0.1974  0.0196
 1119TIP3    H124772   0.827   4.104   5.307 -1.2994 -2.0961  0.0523
 1119TIP3    H224773   0.825   4.211   5.200 -0.5967  2.0861  4.0600
 1120TIP3   OH224774   4.157   6.455   4.749  0.6991  0.0809  0.1563
 1120TIP3    H124775   4.138   6.390   4.816  2.1379  0.3768  0.8675
 1120TIP3    H224776   4.224   6.511   4.787  0.7966  0.8817 -1.1395
 1121TIP3   OH224777   0.689   2.063  16.792  0.0225 -0.0596 -0.2661
 1121TIP3    H124778   0.706   2.157  16.786  0.6191 -0.1491  0.0734
 1121TIP3    H224779   0.715   2.039  16.880 -0.6471 -0.4428 -0.1640
 1122TIP3   OH224780   4.061   5.837  12.690 -0.3492  0.0195 -0.3094
 1122TIP3    H124781   4.004   5.838  12.767 -1.5362  1.6623 -1.1765
 1122TIP3    H224782   4.007   5.799  12.621  0.5303 -0.9440 -0.4687
 1123TIP3   OH224783   3.263   4.071  12.420 -0.0381  0.1788  0.2165
 1123TIP3    H124784   3.184   4.126  12.425 -0.2636 -0.1810  0.6585
 1123TIP3    H224785   3.229   3.981  12.423  0.2554  0.0014 -1.6030
 1124TIP3   OH224786   3.228   1.991   1.750 -0.1098 -0.0368 -0.0471
 1124TIP3    H124787   3.281   1.932   1.804 -0.4493 -1.1018 -0.8763
 1124TIP3    H224788   3.281   2.071   1.743  0.4966 -0.3525  0.7933
 1125TIP3   OH224789   3.048   3.050  12.478  0.2498 -0.2490 -0.1447
 1125TIP3    H124790   3.002   2.969  12.458 -0.8175 -0.1486  1.7219
 1125TIP3    H224791   3.003   3.117  12.426 -0.5943 -0.4343  0.3376
 1126TIP3   OH224792   6.573   0.728  11.463  0.2398  0.1351 -0.0930
 1126TIP3    H124793   6.614   0.647  11.433 -0.4980 -0.0587 -0.6049
 1126TIP3    H224794   6.642   0.774  11.510  1.5879  0.6572 -2.4775
 1127TIP3   OH224795   5.482   5.653   3.050 -0.5078  0.2224  0.3557
 1127TIP3    H124796   5.458   5.726   3.107  1.5820 -0.0155  1.5707
 1127TIP3    H224797   5.577   5.644   3.059 -0.4767 -1.4697 -1.1897
 1128TIP3   OH224798   4.176   2.897  11.541  0.2389  0.1424  0.4767
 1128TIP3    H124799   4.141   2.958  11.476  0.2058 -0.2603  0.1185
 1128TIP3    H224800   4.119   2.908  11.617 -0.7348 -0.5750 -0.1352
 1129TIP3   OH224801   2.896   6.174  12.323  0.3146  0.4787 -0.1978
 1129TIP3    H124802   2.863   6.163  12.413 -0.9607  0.1978 -0.6812
 1129TIP3    H224803   2.912   6.084  12.293  2.6582  0.6656  0.4265
 1130TIP3   OH224804   6.734   4.495   0.317  0.8088  0.1456  0.0321
 1130TIP3    H124805   6.818   4.464   0.352  0.7571 -1.1838 -0.9459
 1130TIP3    H224806   6.744   4.590   0.310  1.0448  0.3561  2.9545
 1131TIP3   OH224807   2.029   4.785   3.540 -0.1632  0.1881 -0.1870
 1131TIP3    H124808   1.991   4.834   3.613  1.0319 -3.4901  3.0961
 1131TIP3    H224809   2.123   4.796   3.550  0.0221 -0.7641 -0.8406
 1132TIP3   OH224810   0.350   5.247   1.839  0.0168 -0.0165  0.1488
 1132TIP3    H124811   0.360   5.213   1.750 -0.2802  0.8028 -0.2069
 1132TIP3    H224812   0.289   5.187   1.881  1.4637 -1.3938  0.3400
 1133TIP3   OH224813   2.446   6.203  15.481 -0.1279 -0.4636  0.3513
 1133TIP3    H124814   2.520   6.173  15.534  0.4218  0.0676 -0.0960
 1133TIP3    H224815   2.469   6.176  15.392  0.5320  1.5003 -0.1207
 1134TIP3   OH224816   2.660   2.449  17.132 -0.2828  0.1256 -0.3232
 1134TIP3    H124817   2.741   2.499  17.125 -0.5239  0.7856  1.4543
 1134TIP3    H224818   2.601   2.491  17.069 -0.0883  1.2977  0.2646
 1135TIP3   OH224819   0.997   1.255  15.724 -0.3834  0.3880 -0.0923
 1135TIP3    H124820   1.025   1.207  15.646  0.4364  1.7097 -0.6407
 1135TIP3    H224821   0.916   1.213  15.751 -0.3158 -0.5165 -1.2625
 1136TIP3   OH224822   1.093   2.398  10.716  0.3549 -0.1503 -0.2604
 1136TIP3    H124823   1.160   2.436  10.659  0.5984  0.3116  0.3292
 1136TIP3    H224824   1.012   2.440  10.689  0.8860  2.1352  1.5697
 1137TIP3   OH224825   2.663   1.437  14.745  0.5056  0.0340 -0.7112
 1137TIP3    H124826   2.707   1.474  14.822 -0.4573  1.0044 -0.6081
 1137TIP3    H224827   2.580   1.404  14.779  0.6012 -0.6296 -1.1213
 1138TIP3   OH224828   6.684   4.030   0.147  0.2242 -0.1608  0.3602
 1138TIP3    H124829   6.637   3.995   0.071 -0.5707  0.6287  0.4792
 1138TIP3    H224830   6.721   4.113   0.115 -1.7219  1.1379  1.3486
 1139TIP3   OH224831   3.607   0.324   1.870 -0.0792 -0.1703 -0.3809
 1139TIP3    H124832   3.629   0.310   1.778  1.2867  1.6263 -0.3420
 1139TIP3    H224833   3.539   0.391   1.869 -0.5258 -0.6166 -0.1093
 1140TIP3   OH224834   2.954   3.821  11.186 -0.3465  0.6155 -0.5121
 1140TIP3    H124835   3.039   3.846  11.151 -0.1279 -1.8245 -1.8716
 1140TIP3    H224836   2.934   3.737  11.144 -2.2347 -0.1354  1.7199
 1141TIP3   OH224837   3.248   1.748   2.512 -0.1523  0.1271 -0.6244
 1141TIP3    H124838   3.338   1.762   2.482  0.3471 -0.1998  0.7125
 1141TIP3    H224839   3.218   1.835   2.541  0.8103 -0.3243  1.8286
 1142TIP3   OH224840   3.085   4.496  11.014 -0.1410 -0.4342 -0.1930
 1142TIP3    H124841   3.065   4.414  11.060 -0.6991 -0.1021  0.1705
 1142TIP3    H224842   3.159   4.532  11.062  1.2432 -1.5893 -1.4430
 1143TIP3   OH224843   2.962   6.256  16.077 -0.3021  0.4018 -0.0881
 1143TIP3    H124844   3.042   6.272  16.127 -0.8342  0.5076  0.7317
 1143TIP3    H224845   2.975   6.171  16.036  0.8785  1.1022 -1.2162
 1144TIP3   OH224846   6.546   0.325   1.537 -0.3508 -0.2675 -0.6746
 1144TIP3    H124847   6.564   0.335   1.443 -1.5134 -0.9066 -0.9811
 1144TIP3    H224848   6.506   0.408   1.563 -0.5178 -0.2874 -0.8673
 1145TIP3   OH224849   0.940   6.584  17.144 -0.0615 -0.3222 -0.3167
 1145TIP3    H124850   0.918   6.507  17.197 -0.7997  0.2768  0.2835
 1145TIP3    H224851   0.869   6.646  17.164 -1.4282 -0.7869 -3.5060
 1146TIP3   OH224852   4.796   0.278   4.907 -0.3887 -0.1566 -0.3121
 1146TIP3    H124853   4.790   0.192   4.950  0.5903  0.0478  0.2387
 1146TIP3    H224854   4.805   0.340   4.979 -0.9118  0.3956 -0.7243
 1147TIP3   OH224855   1.309   3.156   0.862 -0.3621  0.5314 -0.4809
 1147TIP3    H124856   1.392   3.181   0.901 -0.0691  1.1201 -1.4619
 1147TIP3    H224857   1.261   3.114   0.933  0.6709  0.4104  0.1581
 1148TIP3   OH224858   5.582   2.086  15.440 -0.1301  0.3698 -0.1513
 1148TIP3    H124859   5.525   2.047  15.374  0.8945  0.5176 -1.1462
 1148TIP3    H224860   5.526   2.101  15.516 -0.6454 -2.7405  0.1426
 1149TIP3   OH224861   2.156   3.595   2.303  0.1566  0.0161  1.2177
 1149TIP3    H124862   2.094   3.563   2.369 -2.8428  0.0709 -1.4922
 1149TIP3    H224863   2.174   3.518   2.249  0.2741  0.6760  0.3202
 1150TIP3   OH224864   4.534   3.840  12.185  0.2740  0.4430  0.1203
 1150TIP3    H124865   4.554   3.755  12.148  1.8204  0.4445  0.8985
 1150TIP3    H224866   4.502   3.892  12.111  3.1360  0.3994 -1.2250
 1151TIP3   OH224867   5.989   6.444   3.944  0.1830  0.1379  0.1018
 1151TIP3    H124868   6.029   6.464   4.029 -2.0782  2.3215  0.7185
 1151TIP3    H224869   5.998   6.524   3.893  0.8440 -0.9148 -1.4712
 1152TIP3   OH224870   0.595   5.022   1.647  0.3775 -0.0647 -0.3320
 1152TIP3    H124871   0.508   5.050   1.619  0.8671  1.2578 -0.5324
 1152TIP3    H224872   0.584   4.928   1.666 -1.2323  0.2177  0.2459
 1153TIP3   OH224873   2.826   4.877  11.702 -0.5062  0.6489 -0.3110
 1153TIP3    H124874   2.743   4.896  11.746 -1.5944 -0.9859 -1.6193
 1153TIP3    H224875   2.841   4.952  11.645 -1.1724  0.8605 -0.2101
 1154TIP3   OH224876   3.337   4.326   0.297  0.3525  0.2189 -0.0544
 1154TIP3    H124877   3.340   4.232   0.313 -1.7713  0.3021  0.9824
 1154TIP3    H224878   3.400   4.364   0.358  0.2709 -0.4133  0.4163
 1155TIP3   OH224879   3.234   0.275  13.180  0.0861  0.6752 -0.0257
 1155TIP3    H124880   3.283   0.260  13.100 -0.3109 -0.5368 -0.0530
 1155TIP3    H224881   3.298   0.309  13.243  0.9014 -0.6700 -0.1276
 1156TIP3   OH224882   6.511   0.263   3.784  0.2586  0.5001 -0.4131
 1156TIP3    H124883   6.491   0.244   3.876 -0.0086  1.8021 -0.1933
 1156TIP3    H224884   6.459   0.200   3.735  0.5689 -0.3478  0.3353
 1157TIP3   OH224885   4.130   0.079   0.235  0.2008  0.2901 -0.4114
 1157TIP3    H124886   4.145   0.085   0.329 -2.5835  0.9889  0.0570
 1157TIP3    H224887   4.127   0.170   0.206 -1.3315  0.1580 -0.7187
 1158TIP3   OH224888   4.539   5.321   0.326  0.2234  0.0099  0.5554
 1158TIP3    H124889   4.533   5.411   0.292 -1.2847 -0.3641 -0.2105
 1158TIP3    H224890   4.567   5.269   0.251  1.1346 -0.1641  1.0105
 1159TIP3   OH224891   6.477   1.888  12.877  0.0765  0.2453 -0.8012
 1159TIP3    H124892   6.411   1.925  12.818 -0.4933  0.2790 -0.1578
 1159TIP3    H224893   6.561   1.912  12.839 -0.2884  0.1656 -1.6585
 1160TIP3   OH224894   6.623   0.752   1.245 -0.2482  0.2876 -0.0786
 1160TIP3    H124895   6.619   0.802   1.327 -0.7806 -0.0667  0.1129
 1160TIP3    H224896   6.650   0.817   1.179 -0.3453  0.6951  0.2785
 1161TIP3   OH224897   1.388   6.649  15.821  0.2199 -0.2136 -0.1094
 1161TIP3    H124898   1.302   6.621  15.852  0.3556 -0.5344 -0.0235
 1161TIP3    H224899   1.387   6.745  15.831 -0.6720 -0.0632 -1.5299
 1162TIP3   OH224900   5.696   1.160  12.130 -0.2156  0.4814 -0.3551
 1162TIP3    H124901   5.730   1.157  12.040 -1.9139 -0.1935 -1.0058
 1162TIP3    H224902   5.602   1.177  12.119 -0.1311  2.1509  1.3686
 1163TIP3   OH224903   4.174   0.237  12.469 -0.5038 -0.1894 -0.2268
 1163TIP3    H124904   4.227   0.278  12.402 -0.5742  1.5067  0.7208
 1163TIP3    H224905   4.083   0.255  12.444 -0.5826 -0.9460 -0.5203
 1164TIP3   OH224906   2.170   5.493  16.125  0.3181 -0.1676 -0.6403
 1164TIP3    H124907   2.223   5.527  16.053  1.6381 -1.0114 -0.0733
 1164TIP3    H224908   2.159   5.568  16.183 -1.0483  0.6094 -1.8791
 1165TIP3   OH224909   3.505   1.805   0.485 -0.3574  0.5453  0.3280
 1165TIP3    H124910   3.490   1.710   0.493 -1.2518  0.7163  0.7705
 1165TIP3    H224911   3.527   1.833   0.574  2.7234  0.2966 -0.3199
 1166TIP3   OH224912   0.632   1.017  15.459 -0.6166  0.0893 -0.0155
 1166TIP3    H124913   0.580   0.938  15.470  0.4488 -0.7198 -0.7198
 1166TIP3    H224914   0.675   1.006  15.374  1.2064  0.4462  0.8387
 1167TIP3   OH224915   6.015   4.338  11.447  0.1161 -1.1018  0.5050
 1167TIP3    H124916   5.956   4.263  11.441  0.8212 -1.6329  0.1167
 1167TIP3    H224917   6.070   4.331  11.369  1.2941 -1.1270  1.3349
 1168TIP3   OH224918   3.030   4.214  11.350  0.1577  0.0804  0.4409
 1168TIP3    H124919   3.075   4.192  11.269 -1.4310  0.7971 -0.6643
 1168TIP3    H224920   3.025   4.310  11.350 -0.2234  0.0659  1.1645
 1169TIP3   OH224921   1.032   1.772   0.198  0.1031 -0.0501  0.1251
 1169TIP3    H124922   1.097   1.748   0.263  0.3668  0.2301 -0.0369
 1169TIP3    H224923   1.080   1.820   0.131 -0.5015  1.3786  0.6832
 1170TIP3   OH224924   5.470   1.640  12.710  0.1689  0.5733 -0.0036
 1170TIP3    H124925   5.553   1.667  12.671  0.0540  0.5769 -0.2422
 1170TIP3    H224926   5.495   1.576  12.777  0.2850 -0.1843 -0.7621
 1171TIP3   OH224927   1.373   1.497   2.874 -0.4457 -0.4610  0.0359
 1171TIP3    H124928   1.354   1.513   2.967 -1.0850 -1.0975  0.0152
 1171TIP3    H224929   1.357   1.582   2.832 -0.8189 -0.3516  0.3986
 1172TIP3   OH224930   1.224   2.160  14.107  0.1267 -0.0215  0.0925
 1172TIP3    H124931   1.269   2.090  14.060  0.1527 -0.3892  0.6620
 1172TIP3    H224932   1.273   2.170  14.188 -0.0277  0.4891  0.1257
 1173TIP3   OH224933   4.727   3.930  15.643 -0.3250  0.6217  0.0933
 1173TIP3    H124934   4.815   3.951  15.612 -0.4386  1.0291  0.0497
 1173TIP3    H224935   4.668   3.978  15.585 -0.5621  0.7022  0.3997
 1174TIP3   OH224936   5.083   2.347   0.765  0.5380 -0.2254 -0.3591
 1174TIP3    H124937   5.148   2.286   0.798 -0.3801 -1.1369 -0.2064
 1174TIP3    H224938   5.124   2.388   0.689  1.1214 -1.1121 -0.5239
 1175TIP3   OH224939   5.537   1.216  16.189  0.1952 -0.1855  0.2636
 1175TIP3    H124940   5.512   1.195  16.099  0.3161  0.6308  0.0341
 1175TIP3    H224941   5.552   1.311  16.189 -1.1363  0.0404  1.4652
 1176TIP3   OH224942   4.385   0.734   3.755 -0.4262  0.5325  0.0286
 1176TIP3    H124943   4.377   0.710   3.663  1.8277  1.9160 -0.5721
 1176TIP3    H224944   4.329   0.811   3.765  1.4972  2.1062 -0.9127
 1177TIP3   OH224945   3.837   0.486   5.019  0.1839  0.7727  0.3103
 1177TIP3    H124946   3.769   0.544   5.055 -1.6216 -0.9759 -0.1551
 1177TIP3    H224947   3.864   0.431   5.092  0.5260  0.9240  0.2990
 1178TIP3   OH224948   4.532   0.034  14.616 -0.6740 -0.2847 -0.3581
 1178TIP3    H124949   4.452  -0.016  14.596  0.1065 -2.6982  2.2611
 1178TIP3    H224950   4.506   0.094  14.686 -0.6559  0.3592 -0.8930
 1179TIP3   OH224951   4.229   1.221   2.894 -0.3333 -0.4634  0.8904
 1179TIP3    H124952   4.320   1.244   2.873 -0.8337  0.3743 -0.4044
 1179TIP3    H224953   4.237   1.141   2.947  1.1848 -0.0291  1.3595
 1180TIP3   OH224954   2.161   3.216   0.310  0.1586 -0.6180 -0.0073
 1180TIP3    H124955   2.212   3.194   0.388  0.0124 -1.9323 -0.2828
 1180TIP3    H224956   2.077   3.174   0.324 -0.4192  0.4651 -0.1621
 1181TIP3   OH224957   5.116   1.329  14.868 -0.4201  0.0462 -0.4590
 1181TIP3    H124958   5.177   1.316  14.795  0.2563  0.3596  0.0500
 1181TIP3    H224959   5.089   1.421  14.861  0.0262  0.2093 -0.0159
 1182TIP3   OH224960   3.048   3.280   1.676 -0.0535 -0.6180 -0.4212
 1182TIP3    H124961   2.977   3.342   1.691 -1.2959 -1.8322 -1.0649
 1182TIP3    H224962   3.076   3.297   1.586  0.2314 -0.3726 -0.2859
 1183TIP3   OH224963   1.153   5.799  13.147  0.1339  0.6170  0.3537
 1183TIP3    H124964   1.125   5.836  13.231 -0.1743 -0.7837  0.8808
 1183TIP3    H224965   1.131   5.706  13.153  4.4757 -0.5368  0.6513
 1184TIP3   OH224966   4.060   1.418  14.423 -1.2061  0.1432 -0.5108
 1184TIP3    H124967   4.029   1.508  14.425 -3.1518 -0.4382 -2.4635
 1184TIP3    H224968   4.008   1.373  14.489 -0.1641  0.4425  0.5349
 1185TIP3   OH224969   4.226   2.278  15.602 -0.0553 -0.4863 -0.3149
 1185TIP3    H124970   4.202   2.260  15.511  0.0026  1.2680 -0.7021
 1185TIP3    H224971   4.279   2.358  15.598  1.2072 -1.2061  1.1129
 1186TIP3   OH224972   6.642   4.442  13.026 -0.5213  0.2712  0.1759
 1186TIP3    H124973   6.676   4.357  12.998  1.4893  1.2666 -0.4592
 1186TIP3    H224974   6.620   4.430  13.119 -0.2476 -0.9298  0.0840
 1187TIP3   OH224975   4.397   0.421  12.361 -0.1486 -0.5259  0.4043
 1187TIP3    H124976   4.476   0.397  12.313 -0.5027  1.3029 -1.1403
 1187TIP3    H224977   4.429   0.466  12.439  0.3654 -1.3571  0.6774
 1188TIP3   OH224978   0.435   2.778  12.158  0.5402  0.7054 -0.2833
 1188TIP3    H124979   0.422   2.819  12.243 -1.1229  0.7489 -0.5426
 1188TIP3    H224980   0.389   2.694  12.165  1.3905  0.2004 -0.7443
 1189TIP3   OH224981   0.299   5.886   1.907 -0.5168  0.3243 -0.1123
 1189TIP3    H124982   0.287   5.904   2.001 -0.3304 -1.1065  0.1947
 1189TIP3    H224983   0.226   5.931   1.865 -1.0969  0.2471  0.7970
 1190TIP3   OH224984   5.539   5.485  13.857  0.0155 -0.7616  0.3356
 1190TIP3    H124985   5.549   5.435  13.776 -1.3230  0.8679 -0.8723
 1190TIP3    H224986   5.628   5.505  13.884  0.4670  2.2607 -3.0361
 1191TIP3   OH224987   3.846   0.520   2.993 -0.3779  0.1537  0.3967
 1191TIP3    H124988   3.902   0.484   2.925 -0.5387 -0.4829  0.5994
 1191TIP3    H224989   3.905   0.541   3.065 -0.5064 -1.2824  0.9247
 1192TIP3   OH224990   2.816   3.580  12.046 -0.2934  0.0842  0.0268
 1192TIP3    H124991   2.744   3.558  11.987  0.1909 -0.5835 -0.3192
 1192TIP3    H224992   2.779   3.570  12.134 -0.9657  0.9105 -0.1589
 1193TIP3   OH224993   2.018   6.501  13.728  0.0996  0.4436  0.3204
 1193TIP3    H124994   2.019   6.439  13.801 -0.6755 -0.6178 -0.5451
 1193TIP3    H224995   1.996   6.447  13.652  2.3846  1.2501 -0.9614
 1194TIP3   OH224996   6.560   1.644  13.555 -0.2507 -0.1809 -0.0053
 1194TIP3    H124997   6.551   1.739  13.569 -0.9552 -0.1366 -0.7115
 1194TIP3    H224998   6.496   1.624  13.487 -0.1452 -1.1819  0.1879
 1195TIP3   OH224999   2.093   5.504   5.824  0.1636  0.9816 -0.4327
 1195TIP3    H125000   2.177   5.548   5.839  0.8143 -0.8920  1.7416
 1195TIP3    H225001   2.116   5.412   5.811 -1.5962  0.3463  0.7741
 1196TIP3   OH225002   4.385   1.504  12.831 -0.3600  0.2656 -0.3519
 1196TIP3    H125003   4.319   1.476  12.894 -0.1817  0.6681  0.0121
 1196TIP3    H225004   4.349   1.583  12.791  1.3868  2.5111  2.3147
 1197TIP3   OH225005   2.102   6.032  13.547  0.2667 -0.1551  0.3439
 1197TIP3    H125006   2.145   5.966  13.492 -0.7871 -1.2046  0.7678
 1197TIP3    H225007   2.169   6.056  13.610  0.5658 -1.0582  0.3867
 1198TIP3   OH225008   2.746   6.739   3.550  0.1231 -0.0872  0.2118
 1198TIP3    H125009   2.769   6.674   3.617 -0.2619 -0.8644 -0.3964
 1198TIP3    H225010   2.678   6.696   3.498 -1.3231  1.4566  0.8188
 1199TIP3   OH225011   1.618   3.079  13.684  0.3989  0.0480 -0.0611
 1199TIP3    H125012   1.570   3.162  13.675  1.5506  0.5091 -2.3831
 1199TIP3    H225013   1.682   3.081  13.612  1.2482 -2.3168  0.6028
 1200TIP3   OH225014   0.352   6.212   2.930 -0.6290 -0.1196 -0.3201
 1200TIP3    H125015   0.283   6.188   2.868 -0.7723  1.3023 -0.7288
 1200TIP3    H225016   0.306   6.226   3.013 -0.6621 -0.4068 -0.2903
 1201TIP3   OH225017   6.229   0.955  13.022  0.5032  0.7088 -0.0400
 1201TIP3    H125018   6.317   0.982  12.996  0.7194 -1.1831 -1.3560
 1201TIP3    H225019   6.200   0.896  12.952 -1.3011  0.2817  1.0302
 1202TIP3   OH225020   6.607   6.767   3.455  0.4141 -0.1436  0.0798
 1202TIP3    H125021   6.525   6.769   3.405  0.1829  3.5795  0.4658
 1202TIP3    H225022   6.675   6.757   3.389 -0.2300 -2.8693 -0.2757
 1203TIP3   OH225023   1.908   1.565  17.050  0.1310  0.4193  0.0677
 1203TIP3    H125024   1.915   1.603  16.962  0.2974  0.6942  0.2024
 1203TIP3    H225025   1.899   1.641  17.108  0.5290  0.2551  0.3417
 1204TIP3   OH225026   0.718   6.754   3.221  0.2166  0.0336 -0.0114
 1204TIP3    H125027   0.740   6.706   3.141 -0.2024 -0.7301  0.3300
 1204TIP3    H225028   0.803   6.788   3.252  0.2536  1.1408 -1.2791
 1205TIP3   OH225029   1.925   0.884   2.714 -0.1028  0.1238 -0.0200
 1205TIP3    H125030   1.970   0.860   2.795 -1.5707 -0.0356  0.7724
 1205TIP3    H225031   1.984   0.947   2.672  0.5511  0.4232  1.3063
 1206TIP3   OH225032   3.532   0.297  15.628 -0.0691  0.3476 -0.0178
 1206TIP3    H125033   3.588   0.220  15.619 -1.4783 -0.6434 -0.4250
 1206TIP3    H225034   3.573   0.349  15.697  1.0195 -0.6504  0.0956
 1207TIP3   OH225035   1.219   4.161   2.800  0.1507  0.3650  0.1479
 1207TIP3    H125036   1.236   4.154   2.894  0.7906 -2.2544 -0.1245
 1207TIP3    H225037   1.166   4.084   2.780 -2.5275  2.4265 -1.1282
 1208TIP3   OH225038   1.078   4.027   2.560  0.0967  0.2247 -0.2465
 1208TIP3    H125039   1.161   4.067   2.533  0.8030 -0.1835  1.2941
 1208TIP3    H225040   1.091   3.933   2.547 -0.9544  0.3215 -2.2033
 1209TIP3   OH225041   0.522   5.619  13.310 -0.1227  0.2423 -0.2962
 1209TIP3    H125042   0.533   5.710  13.335 -0.4172  0.3719 -0.6329
 1209TIP3    H225043   0.452   5.586  13.366  0.7572 -0.1018  0.6290
 1210TIP3   OH225044   2.290   3.756  14.149 -0.0102  0.5579  0.0924
 1210TIP3    H125045   2.254   3.671  14.175 -0.1179  0.5852  0.0308
 1210TIP3    H225046   2.268   3.814  14.222  3.4874 -0.3506  1.9833
 1211TIP3   OH225047   5.109   3.832   2.833  0.8349  0.3789 -0.4722
 1211TIP3    H125048   5.117   3.762   2.897 -0.2650  0.8504  0.1854
 1211TIP3    H225049   5.158   3.905   2.870  0.5193  0.5284 -0.3524
 1212TIP3   OH225050   2.436   0.121  15.426 -0.5984  0.1355 -0.3157
 1212TIP3    H125051   2.524   0.111  15.461 -0.6140  2.3679  0.4586
 1212TIP3    H225052   2.447   0.123  15.331 -0.0280 -1.2513 -0.2925
 1213TIP3   OH225053   1.183   2.252  16.564 -0.7894  0.0002  0.1184
 1213TIP3    H125054   1.258   2.310  16.547 -0.2631 -0.7506 -0.1482
 1213TIP3    H225055   1.128   2.262  16.486 -1.7898  1.7909  1.0223
 1214TIP3   OH225056   0.114   4.841   2.833  0.0515  0.5603  0.4499
 1214TIP3    H125057   0.049   4.771   2.824  0.2260  0.1524  2.2444
 1214TIP3    H225058   0.062   4.920   2.845 -0.1675  0.9394 -2.6449
 1215TIP3   OH225059   1.487   3.603  15.022 -0.8093  0.1361  0.3746
 1215TIP3    H125060   1.408   3.656  15.007 -0.0524  0.9003 -1.0555
 1215TIP3    H225061   1.513   3.574  14.934  0.4356 -0.1925  0.8447
 1216TIP3   OH225062   3.357   3.657  12.601 -0.0974 -0.0116  0.1324
 1216TIP3    H125063   3.274   3.693  12.631 -0.1012  0.4050 -0.3670
 1216TIP3    H225064   3.419   3.677  12.671 -0.4563 -0.4913  0.5887
 1217TIP3   OH225065   1.450   2.153   0.799  0.6203 -0.3630  0.1177
 1217TIP3    H125066   1.535   2.171   0.760  1.5748 -0.8841  1.8790
 1217TIP3    H225067   1.467   2.084   0.864 -1.4471 -1.6655 -0.6755
 1218TIP3   OH225068   6.765   0.995  16.270 -0.2177 -0.0064 -0.2855
 1218TIP3    H125069   6.816   0.914  16.276 -1.4332 -0.6987  0.9963
 1218TIP3    H225070   6.821   1.061  16.311  1.0288 -0.0365 -1.8573
 1219TIP3   OH225071   5.565   1.857  11.271  0.3113  0.6350  0.0874
 1219TIP3    H125072   5.654   1.845  11.237  0.3051  0.7103  0.0441
 1219TIP3    H225073   5.555   1.952  11.278 -0.4071  0.6952 -1.6141
 1220TIP3   OH225074   4.206   5.191  15.467  0.2481  0.2204  0.2663
 1220TIP3    H125075   4.286   5.243  15.458  0.6784 -0.3195  0.9112
 1220TIP3    H225076   4.234   5.101  15.450 -0.5642  0.2287 -1.2066
 1221TIP3   OH225077   1.085   6.621  16.254  1.0788  0.1995 -0.1932
 1221TIP3    H125078   1.044   6.699  16.293 -2.3718 -0.8162 -1.6290
 1221TIP3    H225079   1.118   6.651  16.169  1.2827  0.4918 -0.0119
 1222TIP3   OH225080   1.001   3.353   6.638 -0.2203 -1.3525 -0.5066
 1222TIP3    H125081   0.988   3.307   6.556  0.7241 -0.6083 -1.0831
 1222TIP3    H225082   1.032   3.440   6.612 -0.7704 -0.8166  0.6007
 1223TIP3   OH225083   3.953   3.896   5.294 -0.0689 -0.2038  0.0649
 1223TIP3    H125084   3.859   3.908   5.281 -0.4680 -2.4508  0.6963
 1223TIP3    H225085   3.993   3.926   5.213 -1.2208  1.9541  0.2679
 1224TIP3   OH225086   2.249   3.942   4.705  0.0756 -0.0151 -0.3109
 1224TIP3    H125087   2.253   3.947   4.609  1.2365  0.6405 -0.2441
 1224TIP3    H225088   2.185   3.873   4.723  0.2225 -0.4981 -1.5670
 1225TIP3   OH225089   1.587   1.148   2.985  0.1080  0.1105 -0.2328
 1225TIP3    H125090   1.654   1.185   3.043 -1.3352 -2.3041  3.0718
 1225TIP3    H225091   1.636   1.087   2.929  0.8547 -1.0924  1.6701
 1226TIP3   OH225092   2.644   6.432  14.909 -0.0224 -0.3795 -0.1934
 1226TIP3    H125093   2.635   6.364  14.975 -1.2794 -0.7198 -0.6841
 1226TIP3    H225094   2.738   6.442  14.896  0.2189 -0.7698  1.1592
 1227TIP3   OH225095   4.416   1.648  16.663  0.4343 -0.3298 -0.3126
 1227TIP3    H125096   4.349   1.646  16.731  1.4322  1.5914  0.7745
 1227TIP3    H225097   4.436   1.556  16.647 -1.3312 -0.8728  0.4579
 1228TIP3   OH225098   2.090   5.394   1.909  0.1796 -0.0461  0.0595
 1228TIP3    H125099   2.116   5.484   1.928  0.8054 -0.0511 -0.7585
 1228TIP3    H225100   2.153   5.365   1.843 -0.4784 -0.8389 -0.2128
 1229TIP3   OH225101   6.204   4.862  11.634  0.4804  0.2236  0.6912
 1229TIP3    H125102   6.269   4.796  11.611  0.6422  0.5545  0.1849
 1229TIP3    H225103   6.158   4.879  11.552 -0.3266 -0.0999  1.0773
 1230TIP3   OH225104   1.654   2.780  10.425 -0.2277 -0.1321 -0.7493
 1230TIP3    H125105   1.732   2.746  10.468 -0.8341 -1.1055 -0.3857
 1230TIP3    H225106   1.630   2.712  10.362 -0.2600  0.5702 -1.4985
 1231TIP3   OH225107   4.180   6.257  12.520 -0.2085  0.0481  0.1394
 1231TIP3    H125108   4.266   6.293  12.543 -0.2448 -0.7514  1.5372
 1231TIP3    H225109   4.197   6.165  12.501 -0.7463 -0.0880  0.3184
 1232TIP3   OH225110   6.542   3.279   1.626  0.2519  0.7915 -0.0510
 1232TIP3    H125111   6.463   3.305   1.672  0.0235 -0.1475  0.1102
 1232TIP3    H225112   6.564   3.353   1.570 -0.9382  0.9274 -0.3478
 1233TIP3   OH225113   5.375   3.446   3.339 -0.1040  0.0984  0.3831
 1233TIP3    H125114   5.394   3.538   3.321 -0.0986  0.3755  1.7600
 1233TIP3    H225115   5.309   3.422   3.275  0.5852  0.7888 -0.6046
 1234TIP3   OH225116   1.344   4.136  10.410  0.0900 -0.2352  0.0600
 1234TIP3    H125117   1.367   4.155  10.319  0.1716  1.1845  0.3729
 1234TIP3    H225118   1.422   4.159  10.460 -0.5065  0.4801  0.6606
 1235TIP3   OH225119   6.213   1.754   0.212  0.1203  0.0020  0.1062
 1235TIP3    H125120   6.176   1.676   0.254 -0.2111  0.1207  0.0357
 1235TIP3    H225121   6.276   1.788   0.275 -1.6514  1.1917  1.2401
 1236TIP3   OH225122   6.081   3.723   2.142  0.0033  0.0685 -0.1979
 1236TIP3    H125123   6.064   3.773   2.062 -1.1616 -0.8221 -0.5194
 1236TIP3    H225124   6.110   3.788   2.205  0.9546  0.7850 -1.3429
 1237TIP3   OH225125   0.327   0.913   4.239  0.7491  0.1635 -0.0048
 1237TIP3    H125126   0.242   0.873   4.219 -0.4545  1.3089  2.5340
 1237TIP3    H225127   0.389   0.840   4.237 -0.6146 -1.0080 -0.0593
 1238TIP3   OH225128   4.822   5.044  13.881  0.2053  0.3792 -0.1978
 1238TIP3    H125129   4.793   5.050  13.972 -1.7196 -2.1737 -0.5937
 1238TIP3    H225130   4.878   5.121  13.869 -2.8606  3.1073  1.9308
 1239TIP3   OH225131   2.982   4.988  16.360 -0.2771 -0.5736 -0.2108
 1239TIP3    H125132   2.991   4.972  16.453  0.7962  0.0746 -0.1945
 1239TIP3    H225133   3.066   5.026  16.333 -1.2713  1.1482 -1.0287
 1240TIP3   OH225134   5.764   2.053   5.744  0.2230  0.1366 -0.1328
 1240TIP3    H125135   5.820   2.029   5.670  0.6509 -0.8285  0.4959
 1240TIP3    H225136   5.727   1.970   5.773 -2.3957  0.8736 -1.2149
 1241TIP3   OH225137   1.672   1.025   2.287  0.6315 -0.1710 -0.3494
 1241TIP3    H125138   1.643   0.937   2.264 -0.7191 -0.0434  0.8175
 1241TIP3    H225139   1.765   1.026   2.264  0.7045 -1.9642 -0.1825
 1242TIP3   OH225140   2.944   4.546  13.544  0.0046  0.3860 -0.2018
 1242TIP3    H125141   2.907   4.474  13.595 -4.8233  1.2712 -2.1779
 1242TIP3    H225142   2.891   4.622  13.567  3.1529  2.7443 -0.3098
 1243TIP3   OH225143   1.762   5.029  14.853  0.7749 -0.2439  0.2101
 1243TIP3    H125144   1.845   5.019  14.900  0.9788 -1.4837 -0.3982
 1243TIP3    H225145   1.768   4.966  14.781 -1.2944 -1.3614  0.9988
 1244TIP3   OH225146   6.276   3.475   2.798  0.0486  0.9260 -0.3175
 1244TIP3    H125147   6.320   3.430   2.726 -0.9699  1.1841 -1.1138
 1244TIP3    H225148   6.307   3.430   2.877 -0.5888 -0.8851 -1.0550
 1245TIP3   OH225149   4.281   3.926  14.789  0.6135 -0.1227  0.3004
 1245TIP3    H125150   4.256   3.992  14.725  0.9753 -0.8387 -0.5972
 1245TIP3    H225151   4.232   3.848  14.763  0.7349 -0.4102  0.9197
 1246TIP3   OH225152   2.989   0.752   1.444 -0.3586 -0.2573 -0.1491
 1246TIP3    H125153   2.982   0.737   1.538  0.6866 -0.7324 -0.1464
 1246TIP3    H225154   2.904   0.725   1.409 -0.4255 -0.9504  0.5433
 1247TIP3   OH225155   2.170   2.745   4.306 -0.1321 -0.2896 -0.2821
 1247TIP3    H125156   2.248   2.789   4.273 -1.1314  1.9330  0.2008
 1247TIP3    H225157   2.127   2.710   4.228  0.6677 -0.4001 -0.6800
 1248TIP3   OH225158   0.984   3.347  12.417 -0.1869  0.0621  0.2787
 1248TIP3    H125159   0.921   3.307  12.357  3.1654 -1.0857 -2.5931
 1248TIP3    H225160   0.961   3.440  12.417  0.3179  0.2463 -3.5729
 1249TIP3   OH225161   4.119   6.500  12.860  0.3196 -0.1483 -0.2946
 1249TIP3    H125162   4.135   6.467  12.948 -0.4764  0.1329 -0.0442
 1249TIP3    H225163   4.179   6.575  12.852  0.6418 -0.3879 -0.1181
 1250TIP3   OH225164   2.077   2.723   3.301 -0.2559 -0.3015 -0.2053
 1250TIP3    H125165   2.007   2.743   3.238  1.4619  1.9262 -1.4637
 1250TIP3    H225166   2.041   2.750   3.386 -0.9084  0.8928 -0.8521
 1251TIP3   OH225167   1.431   3.932   2.600  0.1130  0.3640 -0.0290
 1251TIP3    H125168   1.402   4.000   2.540 -1.3652  0.6592  0.9881
 1251TIP3    H225169   1.373   3.858   2.582  3.5292 -1.6916 -3.1217
 1252TIP3   OH225170   2.735   5.857  16.052  0.0810  0.1736  0.0433
 1252TIP3    H125171   2.773   5.770  16.062 -0.5326 -0.3236 -1.7931
 1252TIP3    H225172   2.789   5.899  15.985 -1.7848 -0.0874 -1.6747
 1253TIP3   OH225173   2.536   1.168   2.524  0.0932  0.3530 -0.2927
 1253TIP3    H125174   2.611   1.123   2.484  0.5489 -0.2392  1.2049
 1253TIP3    H225175   2.472   1.175   2.453  0.7137 -1.0701 -1.0117
 1254TIP3   OH225176   5.450   2.814   3.104  0.0048 -0.9187 -0.2049
 1254TIP3    H125177   5.376   2.769   3.145  0.6333 -1.6668  0.1400
 1254TIP3    H225178   5.476   2.881   3.167 -0.3259 -0.7068 -0.2931
 1255TIP3   OH225179   1.452   0.319   0.783 -0.3555  0.4250 -0.0160
 1255TIP3    H125180   1.358   0.337   0.778 -0.1274  1.9530  0.6734
 1255TIP3    H225181   1.472   0.325   0.877 -0.0153 -2.4094  0.1380
 1256TIP3   OH225182   3.040   0.455  13.195 -0.1570 -0.0260 -0.0769
 1256TIP3    H125183   3.101   0.399  13.146 -0.3015  0.0822 -0.3820
 1256TIP3    H225184   3.067   0.445  13.287 -1.8337 -2.6604  0.1824
 1257TIP3   OH225185   5.899   0.281  10.616  0.6605 -0.1963  0.2558
 1257TIP3    H125186   5.942   0.358  10.578 -3.3446  0.6198 -3.0336
 1257TIP3    H225187   5.913   0.212  10.551 -1.2778 -0.4249  0.0615
 1258TIP3   OH225188   1.614   4.710   3.820 -0.0444  0.7925  0.2070
 1258TIP3    H125189   1.563   4.706   3.740 -0.5622  0.4535  0.5479
 1258TIP3    H225190   1.550   4.732   3.888  0.0818 -0.5259  0.7805
 1259TIP3   OH225191   6.176   6.292  12.733  0.1332 -0.6825 -0.0637
 1259TIP3    H125192   6.189   6.197  12.742  1.3488 -0.5777 -0.6463
 1259TIP3    H225193   6.200   6.327  12.819  1.6572 -0.7113 -0.4621
 1260TIP3   OH225194   0.075   5.633   2.001  0.3294 -0.0226 -0.2978
 1260TIP3    H125195   0.033   5.705   2.048  0.3064 -0.3500  0.1867
 1260TIP3    H225196   0.161   5.624   2.041  0.1139 -0.6405  0.0300
 1261TIP3   OH225197   3.989   1.107   5.107  0.6180 -0.3243 -0.0497
 1261TIP3    H125198   3.914   1.121   5.049  0.5147 -2.4122 -0.4771
 1261TIP3    H225199   3.992   1.185   5.163 -2.2380 -0.4663  0.3671
 1262TIP3   OH225200   3.288   2.868  15.847  0.1005 -0.2973 -0.2835
 1262TIP3    H125201   3.316   2.939  15.790  0.4003 -0.9923 -1.0035
 1262TIP3    H225202   3.331   2.790  15.812 -0.2446 -0.8437  0.4856
 1263TIP3   OH225203   1.445   2.863  13.711 -0.2685 -0.2644  0.8254
 1263TIP3    H125204   1.469   2.950  13.742 -0.2107 -1.3440  3.9251
 1263TIP3    H225205   1.528   2.821  13.690  0.0371 -0.9346  3.1969
 1264TIP3   OH225206   4.002   4.275   2.744  0.0451 -0.2646 -0.2027
 1264TIP3    H125207   4.043   4.267   2.657 -0.7238 -1.4715 -0.4557
 1264TIP3    H225208   4.051   4.214   2.799  0.3284  0.2709  0.1401
 1265TIP3   OH225209   0.552   5.319   3.615 -0.0027  0.1217 -0.0928
 1265TIP3    H125210   0.500   5.313   3.695 -0.1380  0.1980 -0.1758
 1265TIP3    H225211   0.488   5.323   3.545  0.1123  0.7339 -0.1623
 1266TIP3   OH225212   5.339   4.261  12.038 -0.1410 -1.0477 -0.3657
 1266TIP3    H125213   5.368   4.193  12.100  0.3079 -0.1206  0.4621
 1266TIP3    H225214   5.419   4.305  12.012 -0.5738  0.1094  0.2299
 1267TIP3   OH225215   3.201   5.281   0.842 -0.0754  0.2467  0.1434
 1267TIP3    H125216   3.274   5.321   0.888  1.3570 -2.1976  0.1119
 1267TIP3    H225217   3.161   5.222   0.907 -0.8685  0.2008 -0.3813
 1268TIP3   OH225218   0.755   1.500  17.192  0.1274 -0.0840  0.2627
 1268TIP3    H125219   0.761   1.592  17.216  1.0110  0.0342 -0.3991
 1268TIP3    H225220   0.785   1.452  17.270  0.7457  0.2219  0.2107
 1269TIP3   OH225221   4.393   3.874   2.632 -0.6165 -0.6795 -0.4028
 1269TIP3    H125222   4.359   3.828   2.554  1.0600 -0.2800 -1.3973
 1269TIP3    H225223   4.410   3.804   2.695 -0.9570 -1.1293 -0.8065
 1270TIP3   OH225224   6.397   4.400  15.407 -0.3272  0.6454  0.2188
 1270TIP3    H125225   6.489   4.426  15.410  0.1499 -0.8101 -1.3042
 1270TIP3    H225226   6.355   4.453  15.475  1.6197  1.3513  0.9032
 1271TIP3   OH225227   6.193   2.984   3.526 -0.2483  0.2014  0.1202
 1271TIP3    H125228   6.220   2.986   3.618 -2.0546 -0.0082  0.6712
 1271TIP3    H225229   6.274   2.966   3.478  0.9264  1.4390  1.5662
 1272TIP3   OH225230   2.533   6.538  12.208  0.1184  0.4469  0.1051
 1272TIP3    H125231   2.597   6.483  12.251 -0.0551  0.9970  1.0798
 1272TIP3    H225232   2.581   6.617  12.182  0.3357 -0.0836 -1.1633
 1273TIP3   OH225233   6.630   6.054  14.787 -0.8886  0.8444 -0.0427
 1273TIP3    H125234   6.654   6.118  14.854 -3.1410  1.5458  0.1381
 1273TIP3    H225235   6.683   6.078  14.711 -0.8309  2.1930  0.4072
 1274TIP3   OH225236   3.102   3.509  13.507  0.2028  0.2180 -0.3957
 1274TIP3    H125237   3.190   3.500  13.542  0.5579 -0.7265 -1.5009
 1274TIP3    H225238   3.114   3.559  13.426 -0.3604  0.6714 -0.2032
 1275TIP3   OH225239   3.460   2.382  13.114  0.5088 -0.3032 -0.1225
 1275TIP3    H125240   3.432   2.407  13.202  0.1151  0.4627 -0.4616
 1275TIP3    H225241   3.417   2.297  13.099  0.6043 -0.4557  0.4319
 1276TIP3   OH225242   2.064   3.772   4.262  0.3341  0.2261  0.2905
 1276TIP3    H125243   2.010   3.695   4.280 -0.0603  0.9322  2.3232
 1276TIP3    H225244   2.151   3.737   4.246  0.2595 -0.6140  1.6644
 1277TIP3   OH225245   3.404   6.126   6.434 -0.2682 -0.5860  0.3341
 1277TIP3    H125246   3.404   6.173   6.518  0.1477  1.2157 -0.6379
 1277TIP3    H225247   3.458   6.181   6.377 -0.5660 -1.7910 -1.1156
 1278TIP3   OH225248   3.008   5.960   4.631 -0.5134 -0.3314 -0.3482
 1278TIP3    H125249   2.920   5.939   4.660 -0.1875 -0.7622  0.3356
 1278TIP3    H225250   3.049   5.875   4.615  0.7986 -0.2668  2.3672
 1279TIP3   OH225251   3.566   6.180  14.730 -0.0162 -0.2089 -0.1624
 1279TIP3    H125252   3.514   6.110  14.692 -1.4400  0.5966  0.2502
 1279TIP3    H225253   3.539   6.183  14.822 -0.0559  0.9453 -0.2021
 1280TIP3   OH225254   6.414   6.292  15.561  0.0537 -0.3129 -0.0299
 1280TIP3    H125255   6.389   6.368  15.509 -1.2531 -1.0703 -0.5506
 1280TIP3    H225256   6.382   6.312  15.649  0.7354  0.2368  0.0885
 1281TIP3   OH225257   2.476   0.988   4.303 -0.0838  0.2875 -0.2052
 1281TIP3    H125258   2.393   1.037   4.308 -0.2661 -0.1191  1.1952
 1281TIP3    H225259   2.502   0.993   4.211 -2.5195 -0.9683 -1.0070
 1282TIP3   OH225260   4.761   6.720  13.292 -0.1095 -0.4606 -0.0629
 1282TIP3    H125261   4.755   6.777  13.369  0.8097  1.4854 -1.3879
 1282TIP3    H225262   4.674   6.681  13.284 -0.1445 -0.8876  2.0958
 1283TIP3   OH225263   3.728   5.591   0.615  0.2443  0.2392  0.4067
 1283TIP3    H125264   3.806   5.552   0.577 -0.0954 -0.6390  0.6138
 1283TIP3    H225265   3.661   5.584   0.546  0.4848  1.4560  0.0394
 1284TIP3   OH225266   3.131   3.258   1.411 -0.3406  0.2291  0.4648
 1284TIP3    H125267   3.041   3.234   1.392 -1.2644  2.1363  2.1834
 1284TIP3    H225268   3.137   3.350   1.385  0.7989  0.4096  1.3066
 1285TIP3   OH225269   3.684   6.695  11.419  0.3601  0.2179 -0.3088
 1285TIP3    H125270   3.591   6.697  11.443  0.8558  2.6542  1.6045
 1285TIP3    H225271   3.694   6.767  11.357  1.1888  0.6742  0.3522
 1286TIP3   OH225272   1.757   2.951  11.361  0.0085 -0.1574  0.1753
 1286TIP3    H125273   1.825   3.000  11.407  0.4028  0.6917 -1.2710
 1286TIP3    H225274   1.762   2.983  11.271 -2.1771 -0.2443  0.0095
 1287TIP3   OH225275   5.432   2.493   3.460 -0.4079 -0.4034 -0.0389
 1287TIP3    H125276   5.489   2.435   3.410  1.4628 -2.9255  4.6508
 1287TIP3    H225277   5.348   2.447   3.462 -0.8649  0.3254 -1.8436
 1288TIP3   OH225278   6.701   4.636  16.323  0.0946  0.0463  0.4330
 1288TIP3    H125279   6.724   4.718  16.279  1.1510 -0.4767  0.0036
 1288TIP3    H225280   6.780   4.582  16.316 -0.4187 -0.8071  1.1814
 1289TIP3   OH225281   0.419   1.490  14.989  0.1189  0.4298 -0.0083
 1289TIP3    H125282   0.366   1.435  14.931  1.8365 -1.3287  0.0784
 1289TIP3    H225283   0.493   1.517  14.936  1.3803 -0.6780  1.1722
 1290TIP3   OH225284   1.755   2.124   5.023 -0.2083  0.0831 -0.2070
 1290TIP3    H125285   1.800   2.043   5.000 -1.2743  0.5376 -4.3251
 1290TIP3    H225286   1.817   2.194   5.003  0.4938  0.3907  2.7737
 1291TIP3   OH225287   6.299   5.984  16.957 -0.1085  0.6000  0.3252
 1291TIP3    H125288   6.313   6.069  16.915  0.3976  1.1129  1.4894
 1291TIP3    H225289   6.251   6.005  17.038 -0.9447 -0.3425  0.0942
 1292TIP3   OH225290   4.418   3.835   3.611  0.4313  0.4722 -0.2682
 1292TIP3    H125291   4.422   3.749   3.568 -1.2427 -0.3363  1.1362
 1292TIP3    H225292   4.389   3.895   3.542  0.6703 -0.2527 -1.0154
 1293TIP3   OH225293   5.335   0.857   4.264  0.2880 -0.3322  0.2181
 1293TIP3    H125294   5.296   0.803   4.196 -2.0752 -0.0901  1.3101
 1293TIP3    H225295   5.351   0.796   4.336  0.1736 -0.0910  0.4481
 1294TIP3   OH225296   1.027   5.321   2.111  0.3954 -0.8088 -0.1889
 1294TIP3    H125297   1.015   5.294   2.020 -0.3865 -0.9934 -0.0303
 1294TIP3    H225298   0.940   5.345   2.141  0.7708  0.0349  0.2693
 1295TIP3   OH225299   2.160   1.440  16.162  0.2599  0.4508  0.1425
 1295TIP3    H125300   2.170   1.417  16.255  0.6975  1.4292  0.3353
 1295TIP3    H225301   2.068   1.467  16.154  0.5388  1.5288  0.5436
 1296TIP3   OH225302   1.603   3.998   4.303 -0.2085 -0.0170  0.5838
 1296TIP3    H125303   1.561   4.033   4.225 -0.3245  0.8403  1.0226
 1296TIP3    H225304   1.695   4.024   4.294 -0.3815  0.8004  1.1284
 1297TIP3   OH225305   3.343   6.721   1.825  0.0040 -0.9779 -0.3980
 1297TIP3    H125306   3.304   6.734   1.738  0.9805 -2.3935 -1.0508
 1297TIP3    H225307   3.421   6.776   1.825 -0.3589 -0.4564 -0.1632
 1298TIP3   OH225308   3.136   2.145  16.597 -0.2075 -0.3546  0.3662
 1298TIP3    H125309   3.069   2.174  16.660 -0.0641  1.7021 -0.3821
 1298TIP3    H225310   3.117   2.052  16.583 -2.5940  0.0508  0.5883
 1299TIP3   OH225311   0.067   6.638  17.006  0.1755  0.0658 -0.7006
 1299TIP3    H125312   0.081   6.547  17.032 -0.3136  0.3170  0.4951
 1299TIP3    H225313   0.109   6.689  17.075 -0.8054  0.7585 -0.6067
 1300TIP3   OH225314   6.734   3.316   5.944  0.4589 -0.2193 -0.2620
 1300TIP3    H125315   6.729   3.276   6.031 -0.7935 -1.1129 -0.7318
 1300TIP3    H225316   6.659   3.279   5.896  0.9770  0.4703 -1.6297
 1301TIP3   OH225317   5.117   5.796  12.359 -0.3854 -0.0977 -0.0385
 1301TIP3    H125318   5.184   5.729  12.343  0.1153  0.2417  0.6030
 1301TIP3    H225319   5.139   5.867  12.299 -0.6432 -0.3134 -0.3910
 1302TIP3   OH225320   3.694   1.786  12.884 -0.4992 -0.1792 -0.0863
 1302TIP3    H125321   3.602   1.813  12.874 -0.5573 -0.2745  0.1687
 1302TIP3    H225322   3.717   1.816  12.972 -0.3971 -0.4777 -0.0107
 1303TIP3   OH225323   2.400   6.315   3.509  0.3589  0.1893  0.3039
 1303TIP3    H125324   2.467   6.322   3.577 -0.3896 -0.3800  1.1160
 1303TIP3    H225325   2.438   6.255   3.444  1.7643  2.0504 -0.6442
 1304TIP3   OH225326   6.359   1.304  13.280 -0.2286  0.2527  0.1584
 1304TIP3    H125327   6.444   1.276  13.246 -0.1213 -0.2267  0.7949
 1304TIP3    H225328   6.318   1.223  13.312 -1.1763  0.3871 -0.6841
 1305TIP3   OH225329   0.756   6.563   0.787  0.1260  0.0395 -0.0343
 1305TIP3    H125330   0.700   6.488   0.805 -0.6474  0.9197  1.2428
 1305TIP3    H225331   0.843   6.524   0.773 -0.6211 -1.2605 -1.3309
 1306TIP3   OH225332   1.041   6.109  14.469 -0.0090  0.1497  0.1961
 1306TIP3    H125333   1.089   6.153  14.539  1.3004 -0.9997  0.0477
 1306TIP3    H225334   1.060   6.016  14.482 -0.5860 -0.1536 -1.0797
 1307TIP3   OH225335   5.560   1.294  12.946 -0.2395  0.7395  0.2720
 1307TIP3    H125336   5.583   1.324  12.858  0.2859  2.1632  0.8729
 1307TIP3    H225337   5.499   1.360  12.979 -0.7912 -0.0310  0.8066
 1308TIP3   OH225338   0.261   1.177  14.100 -0.5806  0.1706 -0.0588
 1308TIP3    H125339   0.183   1.184  14.154 -1.2942  0.8083 -1.1435
 1308TIP3    H225340   0.234   1.209  14.014  0.8086  0.1721 -0.5187
 1309TIP3   OH225341   1.380   0.974   4.552  0.5334 -0.1925  0.5349
 1309TIP3    H125342   1.381   1.053   4.606  3.6474 -0.1361  0.5028
 1309TIP3    H225343   1.383   0.902   4.614 -0.9801 -0.2600  0.5355
 1310TIP3   OH225344   4.102   6.059   4.243 -0.5947 -0.1652  0.4172
 1310TIP3    H125345   4.138   6.140   4.208 -0.7566 -0.1839  0.2033
 1310TIP3    H225346   4.062   6.083   4.326 -0.4013 -0.0788  0.4852
 1311TIP3   OH225347   1.506   4.219   2.244  0.0351 -0.4747 -0.0322
 1311TIP3    H125348   1.461   4.271   2.177 -0.3905 -1.6197 -0.6520
 1311TIP3    H225349   1.599   4.232   2.226 -0.0773 -1.3040 -1.2746
 1312TIP3   OH225350   3.354   4.736   0.950 -0.4196 -0.3124 -0.1588
 1312TIP3    H125351   3.383   4.772   1.034 -1.0847 -1.9660  0.8085
 1312TIP3    H225352   3.320   4.811   0.902  1.4168  0.9177  0.4122
 1313TIP3   OH225353   1.650   0.955   3.533  0.3657 -0.4210  0.3510
 1313TIP3    H125354   1.705   0.910   3.469 -0.5279 -0.3111 -0.5112
 1313TIP3    H225355   1.707   1.022   3.570  1.3559 -1.4796  0.7885
 1314TIP3   OH225356   2.308   3.121   4.466 -0.2386 -0.1622 -0.3080
 1314TIP3    H125357   2.346   3.179   4.400  2.3175 -2.0248 -0.5188
 1314TIP3    H225358   2.250   3.178   4.517  2.8220  2.8404  0.0072
 1315TIP3   OH225359   2.460   1.266   5.119  0.2902  0.0771  0.2373
 1315TIP3    H125360   2.383   1.237   5.168 -0.2855 -0.3843 -0.9324
 1315TIP3    H225361   2.533   1.218   5.159 -0.4610 -1.9343 -0.7327
 1316TIP3   OH225362   3.850   3.883   2.385 -0.4655  0.3870 -0.0883
 1316TIP3    H125363   3.934   3.904   2.346 -0.3228 -0.9747 -0.5128
 1316TIP3    H225364   3.815   3.811   2.332 -0.8427 -0.6249  1.4845
 1317TIP3   OH225365   3.545   5.256   5.476 -0.1814  0.5342  0.3719
 1317TIP3    H125366   3.543   5.232   5.568 -0.8470  0.3863  0.3207
 1317TIP3    H225367   3.482   5.197   5.434  0.4161  0.3196 -0.2407
 1318TIP3   OH225368   5.232   4.124   6.238  0.2610 -0.0704 -0.3942
 1318TIP3    H125369   5.180   4.058   6.284  1.6479  0.5501  2.1422
 1318TIP3    H225370   5.300   4.073   6.194  0.3489 -0.4902  0.2157
 1319TIP3   OH225371   1.527   1.087   2.515 -0.8616 -0.1726 -0.2711
 1319TIP3    H125372   1.606   1.084   2.462 -0.5514  0.2492  0.1597
 1319TIP3    H225373   1.496   1.177   2.506 -1.8277 -0.5833 -1.2038
 1320TIP3   OH225374   1.652   0.134   0.170  0.3342 -0.2375 -0.1220
 1320TIP3    H125375   1.688   0.216   0.205  0.9902 -0.6594  0.2097
 1320TIP3    H225376   1.577   0.115   0.226  0.4412 -0.0884  0.0732
 1321TIP3   OH225377   2.586   3.211  17.077 -0.4749 -1.2975  0.2883
 1321TIP3    H125378   2.598   3.174  17.165 -1.4244  0.4204  1.1733
 1321TIP3    H225379   2.508   3.166  17.043 -0.7872 -1.1348  0.7853
 1322TIP3   OH225380   4.841   0.109  12.337 -0.0704 -0.1407 -0.4900
 1322TIP3    H125381   4.899   0.089  12.263 -0.7031 -0.3415 -0.9381
 1322TIP3    H225382   4.756   0.126  12.296 -0.2865  0.3264  0.1470
 1323TIP3   OH225383   0.078   4.856  16.214  0.0354  0.1435  0.6251
 1323TIP3    H125384   0.066   4.945  16.181  0.9027  0.3444  0.8564
 1323TIP3    H225385   0.124   4.867  16.297  1.1934 -0.5883  0.0964
 1324TIP3   OH225386   1.284   1.654  11.050 -0.0028 -0.1631  0.3729
 1324TIP3    H125387   1.311   1.655  10.958 -1.3368 -1.0223 -0.0491
 1324TIP3    H225388   1.351   1.603  11.094  0.5187  0.0444 -0.1750
 1325TIP3   OH225389   1.676   4.671  11.095 -0.3311  0.4108  0.3072
 1325TIP3    H125390   1.586   4.638  11.096 -0.4628  0.7393 -0.5224
 1325TIP3    H225391   1.674   4.745  11.034  0.6386  0.0391 -0.1917
 1326TIP3   OH225392   4.665   4.483  13.718  0.1938 -0.0120 -0.2823
 1326TIP3    H125393   4.657   4.453  13.627 -1.8018  0.2678 -0.2358
 1326TIP3    H225394   4.681   4.404  13.769  0.0795 -0.3294 -0.7402
 1327TIP3   OH225395   1.871   4.999   5.849  0.4973  0.0771 -0.2092
 1327TIP3    H125396   1.850   5.023   5.939 -0.8327  0.3334 -0.5708
 1327TIP3    H225397   1.810   5.051   5.796  0.2930 -1.1294 -1.1884
 1328TIP3   OH225398   2.672   4.523  17.008  0.1240 -0.5669 -0.5549
 1328TIP3    H125399   2.579   4.546  16.997  0.2700  0.0864 -0.4366
 1328TIP3    H225400   2.685   4.450  16.948 -0.4292 -0.5561 -0.6967
 1329TIP3   OH225401   1.451   3.901   4.552  0.1637  0.2801  0.3014
 1329TIP3    H125402   1.489   3.930   4.469  2.0992  0.5844  1.2623
 1329TIP3    H225403   1.485   3.963   4.617 -1.0552 -0.1546  1.3710
 1330TIP3   OH225404   3.314   4.533   5.926  0.2132 -0.3412  0.1657
 1330TIP3    H125405   3.373   4.609   5.921 -0.6859  0.3211 -0.6430
 1330TIP3    H225406   3.371   4.458   5.907  0.8483  0.2713 -0.4301
 1331TIP3   OH225407   4.861   4.045  16.399 -0.0436  0.2473  0.3287
 1331TIP3    H125408   4.951   4.058  16.428  0.1917 -3.0564  1.2566
 1331TIP3    H225409   4.867   4.044  16.303  0.7275  1.2064  0.3672
 1332TIP3   OH225410   1.526   0.398   3.445  0.3090 -0.1505 -0.0844
 1332TIP3    H125411   1.596   0.394   3.509  1.2187 -1.4118 -1.1368
 1332TIP3    H225412   1.539   0.482   3.400  1.5321 -0.6490 -0.6882
 1333TIP3   OH225413   1.854   5.101  11.095 -0.0270  0.0172 -0.4280
 1333TIP3    H125414   1.902   5.143  11.167 -1.2954 -0.1896  0.5457
 1333TIP3    H225415   1.840   5.171  11.032 -1.1877  0.8146  0.7045
 1334TIP3   OH225416   1.094   5.561  16.886  0.2560  0.2455 -0.3103
 1334TIP3    H125417   1.141   5.477  16.882 -1.5028 -0.7527 -0.8211
 1334TIP3    H225418   1.125   5.609  16.809  1.0334 -0.0750 -0.2001
 1335TIP3   OH225419   1.462   3.126  14.803 -0.1915  0.2718 -0.5324
 1335TIP3    H125420   1.375   3.151  14.772 -1.0804 -1.3146  0.5998
 1335TIP3    H225421   1.477   3.039  14.764  0.7530  0.4028 -0.4643
 1336TIP3   OH225422   0.622   4.534   5.364 -0.5885 -0.0188 -0.2333
 1336TIP3    H125423   0.595   4.620   5.396 -0.5926 -0.1201  0.0357
 1336TIP3    H225424   0.713   4.525   5.392 -1.1819 -0.9135  1.4252
 1337TIP3   OH225425   4.796   1.558   1.160  0.5489  0.1205 -0.0930
 1337TIP3    H125426   4.770   1.593   1.245  0.2953 -0.6920  0.1757
 1337TIP3    H225427   4.867   1.497   1.181 -1.7143 -2.6165 -0.0318
 1338TIP3   OH225428   1.483   1.268   0.024  0.5010 -0.6795  0.4017
 1338TIP3    H125429   1.420   1.321   0.073  1.2795 -0.1386  0.8222
 1338TIP3    H225430   1.463   1.178   0.050 -1.7152 -0.7402 -1.3337
 1339TIP3   OH225431   4.283   5.940  14.980 -0.3730  0.0611 -0.4480
 1339TIP3    H125432   4.320   5.896  15.057 -1.7559  0.6408  0.5720
 1339TIP3    H225433   4.266   5.869  14.918 -2.2752 -0.8615  1.0645
 1340TIP3   OH225434   4.304   3.863   0.446  0.1093  0.0587 -0.4073
 1340TIP3    H125435   4.339   3.891   0.361  1.6748 -2.4901 -0.6313
 1340TIP3    H225436   4.340   3.926   0.509  2.2103 -0.4088 -1.1215
 1341TIP3   OH225437   2.236   2.855   3.951  0.2372  0.2939  0.2135
 1341TIP3    H125438   2.287   2.880   4.028 -0.5095 -2.6543  1.7304
 1341TIP3    H225439   2.301   2.823   3.888  0.5027 -0.9288  1.1063
 1342TIP3   OH225440   4.710   1.562   5.502 -0.2977  0.3716  0.0677
 1342TIP3    H125441   4.648   1.498   5.467  1.1490 -1.0182 -0.0457
 1342TIP3    H225442   4.779   1.566   5.435  1.2809 -0.4663  1.6005
 1343TIP3   OH225443   6.594   0.733   5.386  0.2375  0.1485  0.3005
 1343TIP3    H125444   6.537   0.759   5.313 -1.2935  1.4597  1.9168
 1343TIP3    H225445   6.535   0.687   5.446  1.5711 -1.2710  0.5368
 1344TIP3   OH225446   4.306   5.735  15.485  0.1055 -0.0824 -0.1538
 1344TIP3    H125447   4.388   5.758  15.441  0.5687 -0.9781  0.2508
 1344TIP3    H225448   4.333   5.684  15.561 -0.8404 -0.5777 -0.1511
 1345TIP3   OH225449   3.827   1.968   2.194 -1.1694 -0.2628  0.0768
 1345TIP3    H125450   3.848   1.896   2.135 -3.2140 -0.6869 -0.1560
 1345TIP3    H225451   3.896   2.033   2.177  0.4897 -1.9727  0.0454
 1346TIP3   OH225452   5.875   0.209  16.974  0.5141 -0.6836  0.4963
 1346TIP3    H125453   5.795   0.224  17.025  0.8453  0.7142  0.6189
 1346TIP3    H225454   5.933   0.161  17.034  0.0852 -0.9798  0.6776
 1347TIP3   OH225455   2.782   4.982   4.251 -0.0269  0.3721  0.0705
 1347TIP3    H125456   2.728   4.908   4.278 -0.2833  0.1965 -0.9292
 1347TIP3    H225457   2.720   5.050   4.227  0.1455 -0.3843 -2.6591
 1348TIP3   OH225458   5.708   1.642   5.298 -0.6989  0.6141 -0.6370
 1348TIP3    H125459   5.728   1.733   5.319  0.7102  0.0518  0.5396
 1348TIP3    H225460   5.646   1.615   5.366  0.6125  0.0535  0.3720
 1349TIP3   OH225461   6.594   5.568  11.662  0.2049  0.1343 -0.1907
 1349TIP3    H125462   6.634   5.506  11.601  1.9046  0.7354  0.2668
 1349TIP3    H225463   6.593   5.522  11.746 -0.8700 -0.1917 -0.3756
 1350TIP3   OH225464   3.791   4.993   4.920 -0.1689  0.6443 -0.0511
 1350TIP3    H125465   3.864   5.007   4.860  0.4872  3.6146  1.3321
 1350TIP3    H225466   3.728   5.061   4.898 -0.6677  0.6991  1.4935
 1351TIP3   OH225467   1.124   1.324   4.539 -0.5385  0.0284  0.2963
 1351TIP3    H125468   1.138   1.363   4.453  1.3108  0.6404  0.8626
 1351TIP3    H225469   1.209   1.286   4.563 -1.0807 -0.3082  1.7744
 1352TIP3   OH225470   6.475   5.746  14.083  0.3533  0.3054 -0.0934
 1352TIP3    H125471   6.388   5.784  14.073  0.7550  1.5055  0.7843
 1352TIP3    H225472   6.505   5.729  13.994 -1.6083 -2.1021 -0.3454
 1353TIP3   OH225473   5.892   3.080   4.324 -0.3227  0.4445  0.1770
 1353TIP3    H125474   5.899   3.175   4.332  1.0572  0.2455  1.4911
 1353TIP3    H225475   5.835   3.067   4.248  1.3657  2.3129 -1.4787
 1354TIP3   OH225476   4.255   1.962  11.516 -0.2821 -0.7909  0.1067
 1354TIP3    H125477   4.259   1.900  11.443  1.3971  0.1364 -0.5970
 1354TIP3    H225478   4.327   2.022  11.501 -0.2124 -0.2891  2.2734
 1355TIP3   OH225479   2.961   1.718  13.510  0.6614 -0.8112 -0.3104
 1355TIP3    H125480   3.050   1.709  13.544  0.4351 -1.4227  0.1209
 1355TIP3    H225481   2.913   1.760  13.581  0.6711 -0.2094 -0.6558
 1356TIP3   OH225482   2.982   3.365   1.150  0.6157 -0.1163 -0.0495
 1356TIP3    H125483   2.952   3.440   1.201  1.4264  0.9854 -1.1869
 1356TIP3    H225484   2.941   3.376   1.064  0.5623 -1.1028 -0.1640
 1357TIP3   OH225485   6.570   1.223   1.473 -0.7459 -0.1392  0.2786
 1357TIP3    H125486   6.560   1.259   1.561  1.0259 -0.1074  0.4879
 1357TIP3    H225487   6.665   1.214   1.461 -0.9592 -0.1826 -1.6072
 1358TIP3   OH225488   2.139   0.160   0.645  0.5043 -0.3152  0.4069
 1358TIP3    H125489   2.075   0.134   0.711  1.1288  0.6701  1.4310
 1358TIP3    H225490   2.158   0.080   0.596 -1.0179 -0.7537  0.5066
 1359TIP3   OH225491   5.598   6.565   1.373  0.1448  0.1010  0.3957
 1359TIP3    H125492   5.581   6.659   1.372 -0.9333 -0.0803  0.4382
 1359TIP3    H225493   5.678   6.555   1.423 -0.0037  0.9600  0.8081
 1360TIP3   OH225494   0.882   4.532   5.399  0.0123 -0.4436 -0.2339
 1360TIP3    H125495   0.935   4.453   5.391  0.5828 -0.0102 -0.8020
 1360TIP3    H225496   0.914   4.574   5.479 -0.6136 -1.0247  0.3206
 1361TIP3   OH225497   3.951   1.936  17.180  0.2114  0.2312  0.1342
 1361TIP3    H125498   3.945   2.031  17.179 -0.2669  0.1968 -0.5251
 1361TIP3    H225499   3.860   1.906  17.179  0.3627 -0.2297  0.0034
 1362TIP3   OH225500   2.608   0.799  15.139 -0.4261 -0.1052 -0.0449
 1362TIP3    H125501   2.703   0.789  15.134 -0.5994 -1.1864 -1.3287
 1362TIP3    H225502   2.580   0.814  15.049 -1.6661 -1.5962  0.0807
 1363TIP3   OH225503   2.895   2.763  14.074  0.4849 -0.2555  0.2936
 1363TIP3    H125504   2.865   2.672  14.076  0.1223 -0.1609 -0.6265
 1363TIP3    H225505   2.854   2.804  14.149  0.0546 -0.6750  0.2861
 1364TIP3   OH225506   3.378   2.126   2.043  0.1720 -0.4405  0.0714
 1364TIP3    H125507   3.450   2.182   2.014  0.6863 -0.9932  0.2471
 1364TIP3    H225508   3.299   2.177   2.027  0.7247  0.9795  1.7270
 1365TIP3   OH225509   5.959   4.808  15.994 -0.2906  0.1400  0.4452
 1365TIP3    H125510   5.882   4.753  16.007  0.1871 -1.2341 -2.1155
 1365TIP3    H225511   5.925   4.897  15.986 -1.2256  0.0623  3.0885
 1366TIP3   OH225512   2.047   6.430  12.110 -0.1619 -0.1177 -0.1016
 1366TIP3    H125513   2.136   6.418  12.140 -0.2695  0.7288  0.5680
 1366TIP3    H225514   2.055   6.450  12.016  0.4762  1.7556  0.3352
 1367TIP3   OH225515   2.641   0.075   0.956 -0.0808  0.3740 -0.2362
 1367TIP3    H125516   2.686   0.159   0.966 -0.8290  1.0060 -1.8794
 1367TIP3    H225517   2.582   0.089   0.882 -0.3444 -1.5569 -0.4085
 1368TIP3   OH225518   1.849   6.279   5.941 -0.0827  0.0029 -0.5356
 1368TIP3    H125519   1.835   6.206   6.001  2.0228 -0.1212 -0.1705
 1368TIP3    H225520   1.834   6.357   5.994 -3.3947 -0.1055 -1.1846
 1369TIP3   OH225521   4.095   0.081   6.273  0.4514  0.6054 -0.4333
 1369TIP3    H125522   4.014   0.086   6.325  0.8916  1.2471  0.2098
 1369TIP3    H225523   4.105  -0.012   6.254  0.6620  0.2550  1.2688
 1370TIP3   OH225524   2.800   5.217  13.672  0.2102  0.1631 -0.0714
 1370TIP3    H125525   2.718   5.241  13.630  0.7393  1.0327 -0.6099
 1370TIP3    H225526   2.859   5.289  13.654  1.0193 -0.3284  0.5524
 1371TIP3   OH225527   4.891   6.338   4.679 -0.8165  0.0192  0.1968
 1371TIP3    H125528   4.848   6.276   4.738  0.9745 -3.1380 -1.6554
 1371TIP3    H225529   4.871   6.305   4.592  2.2373  0.6096 -0.7750
 1372TIP3   OH225530   2.035   6.616  11.396  0.3763 -0.4404  0.5411
 1372TIP3    H125531   1.978   6.689  11.371  0.7274 -0.3713 -0.0747
 1372TIP3    H225532   2.075   6.588  11.314  1.1532 -0.5488  0.9516
 1373TIP3   OH225533   2.412   5.621  16.752  0.0263  0.0246  0.6415
 1373TIP3    H125534   2.390   5.698  16.805  0.8644  0.4794  0.3420
 1373TIP3    H225535   2.459   5.658  16.676 -1.0239 -0.6223 -0.3390
 1374TIP3   OH225536   3.846   6.323  13.391  0.0108  0.2092 -0.6768
 1374TIP3    H125537   3.900   6.251  13.359 -1.1217 -1.2701  0.6276
 1374TIP3    H225538   3.874   6.336  13.482 -2.1979 -1.0302  0.2347
 1375TIP3   OH225539   4.018   4.132  15.279 -0.9201  0.4913  0.1564
 1375TIP3    H125540   4.038   4.064  15.215 -2.5350 -0.6481  0.8440
 1375TIP3    H225541   4.085   4.120  15.347 -0.3871  0.4559 -0.3684
 1376TIP3   OH225542   1.629   5.550  11.616 -0.3909  0.2828 -0.2721
 1376TIP3    H125543   1.632   5.603  11.696 -0.7370  0.6078 -0.4725
 1376TIP3    H225544   1.588   5.607  11.551  1.3932  0.6126 -1.1373
 1377TIP3   OH225545   1.001   4.989   5.686 -0.1031  0.1618 -0.0301
 1377TIP3    H125546   1.031   5.060   5.744 -0.2704  1.4235 -1.4643
 1377TIP3    H225547   1.081   4.942   5.663  0.1510  0.5491  0.0482
 1378TIP3   OH225548   4.030   1.359  14.121  0.2477 -0.5282  0.3254
 1378TIP3    H125549   4.096   1.291  14.132  0.8858 -0.1265 -0.9720
 1378TIP3    H225550   4.046   1.419  14.195  0.6309 -1.0082  0.6370
 1379TIP3   OH225551   3.353   2.993  13.658  0.4833  1.0938  0.2235
 1379TIP3    H125552   3.261   2.982  13.633  1.1509  0.6427 -2.2132
 1379TIP3    H225553   3.355   3.075  13.707 -1.2874  0.8732  0.6970
 1380TIP3   OH225554   2.148   4.729  10.648 -0.1511 -0.2542  0.4967
 1380TIP3    H125555   2.106   4.814  10.638  0.1407 -0.2366 -0.6156
 1380TIP3    H225556   2.241   4.750  10.660  0.1387 -0.4745 -1.2901
 1381TIP3   OH225557   5.933   1.006  10.974  0.0701  0.8339 -0.1676
 1381TIP3    H125558   5.906   1.094  11.000 -0.1546  1.1196 -1.3455
 1381TIP3    H225559   6.019   1.019  10.933 -0.0817  0.5368 -0.5737
 1382TIP3   OH225560   4.991   3.622   2.433 -0.1374 -0.3705 -0.0114
 1382TIP3    H125561   5.045   3.677   2.491 -0.7106 -0.5393  0.6842
 1382TIP3    H225562   4.901   3.648   2.453 -0.3862 -1.1831 -0.0664
 1383TIP3   OH225563   0.105   5.904  15.765 -0.1296 -0.7311  0.3899
 1383TIP3    H125564   0.044   5.916  15.692 -0.0409  0.4162  0.4883
 1383TIP3    H225565   0.182   5.954  15.740 -0.0429 -0.4504  1.1983
 1384TIP3   OH225566   6.045   4.426  14.156  0.1463 -0.0513  0.0768
 1384TIP3    H125567   6.110   4.378  14.105 -0.5061 -0.8632  0.0066
 1384TIP3    H225568   6.060   4.518  14.133  0.0735 -0.3842 -1.3216
 1385TIP3   OH225569   5.677   2.203  12.369  0.1727 -0.1523  0.2653
 1385TIP3    H125570   5.752   2.262  12.366  0.2066 -0.2400 -0.4733
 1385TIP3    H225571   5.712   2.124  12.411  0.5827 -0.3220 -0.3852
 1386TIP3   OH225572   5.815   2.910  17.154 -0.0920  0.4842 -0.1568
 1386TIP3    H125573   5.790   2.996  17.187 -0.3400 -0.4710  2.2043
 1386TIP3    H225574   5.736   2.878  17.110 -0.7828  0.4712  1.0645
 1387TIP3   OH225575   3.648   2.829   3.160  0.3287 -0.0098  0.3640
 1387TIP3    H125576   3.577   2.804   3.219  0.7923  1.3659  1.5576
 1387TIP3    H225577   3.671   2.749   3.114  0.2762 -1.2455  2.4369
 1388TIP3   OH225578   5.996   4.601  16.660 -0.4870 -0.1239 -0.0142
 1388TIP3    H125579   6.087   4.624  16.678 -0.3301 -0.4213 -0.4181
 1388TIP3    H225580   5.945   4.655  16.720 -0.1580  1.9499 -1.5303
 1389TIP3   OH225581   3.267   4.148  11.042 -0.0743  0.0884 -0.2286
 1389TIP3    H125582   3.223   4.177  10.962  0.0457  0.6832 -0.0792
 1389TIP3    H225583   3.267   4.225  11.099  1.1378  0.0835 -0.2110
 1390TIP3   OH225584   2.935   5.470  17.197  0.3290  0.4304  0.2819
 1390TIP3    H125585   3.013   5.424  17.228  0.6964  1.5258  1.0008
 1390TIP3    H225586   2.958   5.498  17.108  1.3351  2.0478  1.0265
 1391TIP3   OH225587   6.238   5.095   1.769 -0.0840 -0.0667 -0.5903
 1391TIP3    H125588   6.331   5.116   1.781  0.2493 -0.9538 -1.5722
 1391TIP3    H225589   6.215   5.135   1.685  0.1393 -2.1529 -1.6866
 1392TIP3   OH225590   0.400   2.985  16.237 -0.0727 -0.1390  0.1974
 1392TIP3    H125591   0.314   2.962  16.271 -0.8703  1.7561 -0.4719
 1392TIP3    H225592   0.422   2.914  16.177 -1.6276 -0.1393 -0.3890
 1393TIP3   OH225593   1.274   1.335   6.399  0.7292 -0.4348 -0.4657
 1393TIP3    H125594   1.181   1.322   6.380  0.8231  0.0104 -1.2150
 1393TIP3    H225595   1.308   1.246   6.412  0.1189 -0.5771  0.1962
 1394TIP3   OH225596   5.772   2.946   5.524  0.2988  0.0534  0.2446
 1394TIP3    H125597   5.856   2.943   5.570 -0.2099 -0.2691  1.1773
 1394TIP3    H225598   5.795   2.949   5.431  1.3756  1.5940  0.5271
 1395TIP3   OH225599   5.676   4.983  13.057  0.2481 -0.3562 -0.0139
 1395TIP3    H125600   5.666   4.898  13.100 -1.0329  0.0885  0.5967
 1395TIP3    H225601   5.609   4.983  12.989  0.6695 -0.0901 -0.4277
 1396TIP3   OH225602   4.711   1.745  14.703  0.1883  0.1281  0.0862
 1396TIP3    H125603   4.756   1.665  14.731 -0.5785  0.3630  2.0574
 1396TIP3    H225604   4.628   1.714  14.667 -0.0019  0.0036  0.6234
 1397TIP3   OH225605   5.163   3.440   3.166 -0.0431 -0.3709  0.2185
 1397TIP3    H125606   5.201   3.384   3.099 -1.6858 -0.4861 -0.6627
 1397TIP3    H225607   5.140   3.520   3.119 -0.8537 -0.3069  0.7196
 1398TIP3   OH225608   4.451   5.984   2.206 -0.2040 -0.8218  0.1948
 1398TIP3    H125609   4.435   6.073   2.236  2.7342 -0.4997  0.9747
 1398TIP3    H225610   4.530   5.991   2.153  0.8690 -3.1925  1.4333
 1399TIP3   OH225611   1.896   0.806  13.219 -0.3863 -0.1331 -0.4855
 1399TIP3    H125612   1.884   0.768  13.132  0.0767 -0.1613 -0.5388
 1399TIP3    H225613   1.815   0.784  13.266 -0.3526 -0.7135 -0.6917
 1400TIP3   OH225614   1.008   1.829   0.958  0.1885  0.1970 -0.1254
 1400TIP3    H125615   1.068   1.762   0.924 -1.7616 -1.3587 -0.5772
 1400TIP3    H225616   1.009   1.816   1.053 -0.3652 -0.6182 -0.2318
 1401TIP3   OH225617   0.151   2.381   1.269  0.2996 -0.2198  0.0668
 1401TIP3    H125618   0.201   2.458   1.242 -0.4327  0.1202 -0.3542
 1401TIP3    H225619   0.203   2.307   1.238  0.0779  0.1467 -1.2232
 1402TIP3   OH225620   5.056   0.417   4.665 -0.1871  0.2354  0.0512
 1402TIP3    H125621   4.966   0.410   4.695 -0.5276 -0.3828 -1.0776
 1402TIP3    H225622   5.099   0.337   4.697 -0.1019  0.4050  0.3647
 1403TIP3   OH225623   2.893   2.492  14.105  0.5033 -0.3212  0.3774
 1403TIP3    H125624   2.932   2.481  14.018  1.6538  1.4912  0.6367
 1403TIP3    H225625   2.905   2.407  14.148  1.3579 -0.7405 -0.6698
 1404TIP3   OH225626   1.271   5.326   3.022  0.1060  0.2817 -0.8009
 1404TIP3    H125627   1.201   5.270   3.055  1.5940 -0.9596  0.3586
 1404TIP3    H225628   1.297   5.286   2.939 -0.1705  0.3898 -0.9375
 1405TIP3   OH225629   2.517   5.290   1.494  0.4083  0.4654 -0.0057
 1405TIP3    H125630   2.441   5.323   1.445 -1.3849 -1.8150  1.1428
 1405TIP3    H225631   2.554   5.368   1.536 -0.9313  1.7170 -1.1026
 1406TIP3   OH225632   2.785   4.111  11.101 -0.1862  0.0353 -0.3309
 1406TIP3    H125633   2.847   4.081  11.034  2.5816  0.9565  1.7581
 1406TIP3    H225634   2.730   4.034  11.118  2.0177 -1.6009 -0.3974
 1407TIP3   OH225635   5.765   2.830  16.289  0.4626  0.2530  0.5028
 1407TIP3    H125636   5.726   2.766  16.349  1.3135  1.6719  2.6507
 1407TIP3    H225637   5.691   2.868  16.242 -0.5294  0.9917  2.5875
 1408TIP3   OH225638   2.623   0.320   1.445  0.1665  0.0038 -0.1159
 1408TIP3    H125639   2.689   0.258   1.475  0.9125  0.4746 -0.7616
 1408TIP3    H225640   2.559   0.324   1.516  0.7096 -0.6347  0.4132
 1409TIP3   OH225641   0.161   1.952  15.768  0.2945  1.0302 -0.3837
 1409TIP3    H125642   0.231   1.889  15.754 -0.3234  0.9067 -3.1841
 1409TIP3    H225643   0.135   1.981  15.680 -2.5503  1.7291  0.5984
 1410TIP3   OH225644   2.040   0.753   5.118  0.0303 -0.5591  0.0397
 1410TIP3    H125645   2.024   0.825   5.056  0.1633 -0.8095 -0.2832
 1410TIP3    H225646   2.134   0.736   5.112  0.1144 -0.3127  0.6093
 1411TIP3   OH225647   1.699   1.296   2.751  0.7816 -0.6406  0.1149
 1411TIP3    H125648   1.616   1.314   2.707  1.0833 -0.6147 -0.4438
 1411TIP3    H225649   1.700   1.201   2.762 -0.4968 -0.4254  2.4461
 1412TIP3   OH225650   1.559   6.735   4.839 -0.7749 -0.2153 -0.2706
 1412TIP3    H125651   1.640   6.744   4.790 -1.2959  3.4007 -0.6355
 1412TIP3    H225652   1.585   6.741   4.931 -0.4599 -0.6126 -0.3349
 1413TIP3   OH225653   0.452   4.853  17.197 -0.5714 -0.1752 -0.4192
 1413TIP3    H125654   0.435   4.759  17.194  0.1967 -0.3229 -0.2465
 1413TIP3    H225655   0.407   4.889  17.120 -2.5921 -0.4024  0.6282
 1414TIP3   OH225656   3.275   2.922   3.198  0.4442 -0.1395  0.0309
 1414TIP3    H125657   3.288   2.853   3.263  0.8385  0.1668  0.2828
 1414TIP3    H225658   3.291   2.878   3.114 -0.9014 -0.7349  0.0774
 1415TIP3   OH225659   2.530   1.193  16.317  0.2619  0.0179  0.1953
 1415TIP3    H125660   2.461   1.154  16.263  2.2325 -0.1987 -2.2599
 1415TIP3    H225661   2.558   1.122  16.375  0.1524 -0.6474 -0.5561
 1416TIP3   OH225662   4.557   6.122  15.751  0.2455 -0.1856  0.2967
 1416TIP3    H125663   4.585   6.048  15.804 -1.8526 -1.3141 -0.1350
 1416TIP3    H225664   4.584   6.099  15.662  0.7180  0.1711  0.3409
 1417TIP3   OH225665   5.165   0.827  14.972 -0.1032  0.4714  0.2547
 1417TIP3    H125666   5.234   0.791  15.028  0.7234  0.8572 -0.4992
 1417TIP3    H225667   5.185   0.921  14.967 -0.7217  0.5942  0.0856
 1418TIP3   OH225668   0.757   5.313   6.530  0.2697  0.6550 -0.7699
 1418TIP3    H125669   0.836   5.267   6.558  1.6078  3.7516  0.7800
 1418TIP3    H225670   0.785   5.366   6.456 -0.8530  0.3456 -1.4408
 1419TIP3   OH225671   1.033   2.424  14.641  0.4027 -0.0190 -0.8717
 1419TIP3    H125672   0.996   2.510  14.661 -1.6831 -0.8332 -1.0077
 1419TIP3    H225673   1.088   2.438  14.564 -0.1492  1.1493 -1.0614
 1420TIP3   OH225674   6.439   1.073   0.912 -0.1422  0.3480 -0.6848
 1420TIP3    H125675   6.488   1.155   0.901 -1.7937  1.5279  0.4296
 1420TIP3    H225676   6.436   1.035   0.824  1.3635  1.0790 -1.0643
 1421TIP3   OH225677   3.730   2.916  14.796 -0.1716  0.0345  0.1168
 1421TIP3    H125678   3.814   2.920  14.843 -0.2469 -0.1778  0.2663
 1421TIP3    H225679   3.664   2.931  14.864 -0.2612  0.0948  0.0161
 1422TIP3   OH225680   1.732   0.148   5.028 -0.4361 -0.3542  0.1505
 1422TIP3    H125681   1.787   0.204   5.084 -1.0931 -1.2138  1.6623
 1422TIP3    H225682   1.709   0.074   5.083  3.0603 -3.8063 -2.7637
 1423TIP3   OH225683   4.802   2.178   3.157  0.3114  0.4538 -0.3272
 1423TIP3    H125684   4.873   2.134   3.203  0.4797 -0.1626 -1.1703
 1423TIP3    H225685   4.790   2.128   3.077 -0.0237  1.4715 -0.9306
 1424TIP3   OH225686   5.868   6.668   4.133 -0.3107  0.3654  0.4008
 1424TIP3    H125687   5.833   6.727   4.200 -2.1905  1.6974 -1.7047
 1424TIP3    H225688   5.790   6.631   4.091  0.8531 -2.3113  0.5360
 1425TIP3   OH225689   6.539   4.832   5.184 -0.2375 -0.0600  0.5460
 1425TIP3    H125690   6.540   4.923   5.152  2.4161 -0.8680 -1.8802
 1425TIP3    H225691   6.459   4.795   5.147  0.5723  0.2699 -1.6243
 1426TIP3   OH225692   2.029   4.619  16.770  0.4384  0.0774  0.5313
 1426TIP3    H125693   1.968   4.671  16.718  1.3737  2.3025  1.6009
 1426TIP3    H225694   2.084   4.574  16.705 -0.3893  0.4136 -0.3963
 1427TIP3   OH225695   3.763   6.310   3.484  0.2797 -0.1433 -0.5785
 1427TIP3    H125696   3.668   6.323   3.477  0.0780 -1.3364 -0.1894
 1427TIP3    H225697   3.801   6.382   3.433 -0.8822 -0.6969 -2.2721
 1428TIP3   OH225698   0.091   1.024  16.757  0.0936  0.0169  0.3552
 1428TIP3    H125699   0.073   1.117  16.769  0.5434  0.0705  0.6109
 1428TIP3    H225700   0.166   1.006  16.814 -0.7629 -0.7777  1.2412
 1429TIP3   OH225701   2.485   2.454   4.980  0.6721 -0.2469  0.6602
 1429TIP3    H125702   2.561   2.513   4.978 -0.9176  1.8487 -1.0670
 1429TIP3    H225703   2.429   2.490   5.050  0.3859 -0.5947  0.6091
 1430TIP3   OH225704   1.724   1.656  11.893 -0.7235 -0.0059  0.1160
 1430TIP3    H125705   1.721   1.749  11.874 -1.8670 -0.2079 -0.7669
 1430TIP3    H225706   1.689   1.614  11.814 -1.4272 -1.1046  0.9899
 1431TIP3   OH225707   3.875   4.629  14.709  0.2588  0.1228 -0.1542
 1431TIP3    H125708   3.817   4.589  14.773  2.6290 -0.3786  1.7626
 1431TIP3    H225709   3.822   4.696  14.666 -1.9710 -0.9559  0.8813
 1432TIP3   OH225710   5.362   1.417   2.153 -0.0752 -0.7468  0.7207
 1432TIP3    H125711   5.441   1.372   2.183  1.5990  1.1566 -0.6707
 1432TIP3    H225712   5.316   1.441   2.233 -0.0911 -3.2711  1.5125
 1433TIP3   OH225713   3.922   0.470   5.665  0.4453  0.3741 -0.0470
 1433TIP3    H125714   3.961   0.445   5.749 -0.7479 -1.4843 -0.0067
 1433TIP3    H225715   3.866   0.395   5.642 -2.0005  2.3748 -0.7578
 1434TIP3   OH225716   5.626   1.885   1.261 -0.7854  0.1679 -0.2167
 1434TIP3    H125717   5.718   1.904   1.278 -0.5243  0.2122 -1.5763
 1434TIP3    H225718   5.585   1.884   1.347  0.6958 -0.9836  0.5169
 1435TIP3   OH225719   1.987   2.156  14.310 -0.1404  0.3518  0.2386
 1435TIP3    H125720   2.013   2.185  14.397 -0.7094  1.1132  0.1639
 1435TIP3    H225721   2.061   2.105  14.278  0.1188  0.1763  1.1153
 1436TIP3   OH225722   4.426   6.661   5.283 -0.2413  0.6542 -0.5580
 1436TIP3    H125723   4.416   6.620   5.369  0.9908 -0.5184 -0.9521
 1436TIP3    H225724   4.484   6.736   5.299 -1.5469  1.5803 -0.0487
 1437TIP3   OH225725   5.747   5.742   2.191  0.0983  0.2850  0.3979
 1437TIP3    H125726   5.718   5.809   2.252 -1.1894 -0.0046  0.1079
 1437TIP3    H225727   5.675   5.679   2.187  0.0790  0.3906 -1.5551
 1438TIP3   OH225728   4.384   0.814  14.424 -0.1584 -0.3025  0.3087
 1438TIP3    H125729   4.294   0.793  14.396  0.1243 -2.9381  1.2152
 1438TIP3    H225730   4.438   0.796  14.347 -0.1436 -1.1218  0.5019
 1439TIP3   OH225731   5.195   3.545  15.751  0.2186  0.0080  0.2950
 1439TIP3    H125732   5.263   3.612  15.759  1.5199 -1.3998  1.4090
 1439TIP3    H225733   5.201   3.514  15.661  0.7819  0.1635  0.2804
 1440TIP3   OH225734   6.607   1.520  16.130  1.0031  0.1346  0.0256
 1440TIP3    H125735   6.557   1.498  16.209  1.3090 -0.3547  0.0882
 1440TIP3    H225736   6.645   1.436  16.102 -0.1023  0.0716 -1.3372
 1441TIP3   OH225737   3.532   0.851   5.936  0.4856  0.3798 -0.4467
 1441TIP3    H125738   3.479   0.785   5.981  0.2325  0.9231  0.0576
 1441TIP3    H225739   3.621   0.834   5.967  0.1322  1.5900  1.3091
 1442TIP3   OH225740   3.133   2.828  16.140 -0.2781 -0.0438  0.7132
 1442TIP3    H125741   3.152   2.921  16.143  2.1731 -0.5358  1.4981
 1442TIP3    H225742   3.083   2.810  16.219 -1.7446  0.7803  0.0007
 1443TIP3   OH225743   2.928   0.973  16.036  0.2274 -0.2976  0.0617
 1443TIP3    H125744   2.941   1.019  15.953  2.1541  1.3115  1.1981
 1443TIP3    H225745   2.877   1.035  16.089 -2.1925 -1.8706 -0.3426
 1444TIP3   OH225746   4.245   1.335   2.087 -0.1453  0.2379  0.6506
 1444TIP3    H125747   4.310   1.276   2.126 -1.5107 -0.9063  1.2730
 1444TIP3    H225748   4.189   1.360   2.161 -0.9591  0.4751 -0.0437
 1445TIP3   OH225749   4.946   3.357  14.023  0.3598  0.6304  0.1838
 1445TIP3    H125750   5.040   3.371  14.013  0.1331  1.7568 -0.5531
 1445TIP3    H225751   4.911   3.445  14.039 -0.8187  0.5547 -1.8456
 1446TIP3   OH225752   3.013   2.548   4.795  0.2992  0.0250 -0.7507
 1446TIP3    H125753   3.012   2.618   4.730  2.9936 -0.3152 -1.2026
 1446TIP3    H225754   3.089   2.495   4.771 -0.9982 -2.3615  0.3163
 1447TIP3   OH225755   3.211   0.410   4.238 -0.2233  0.2589 -0.4825
 1447TIP3    H125756   3.251   0.397   4.152 -0.4043  0.4296 -0.5919
 1447TIP3    H225757   3.245   0.338   4.291 -1.0003 -0.5198 -1.0221
 1448TIP3   OH225758   2.026   6.462   6.484 -0.2767 -0.1637 -0.4562
 1448TIP3    H125759   2.045   6.370   6.464  0.4235 -0.2703  0.6993
 1448TIP3    H225760   2.097   6.511   6.442  0.7765 -0.3385  1.0768
 1449TIP3   OH225761   6.220   0.515   5.337  0.2475 -0.9062  0.2088
 1449TIP3    H125762   6.180   0.580   5.280  1.6189  0.0648  0.3294
 1449TIP3    H225763   6.219   0.556   5.424  1.9621 -0.6390  0.1200
 1450TIP3   OH225764   1.742   4.926  16.343 -0.3472 -0.2830 -0.1681
 1450TIP3    H125765   1.677   4.954  16.408  0.4465  1.2816 -0.0306
 1450TIP3    H225766   1.824   4.920  16.393 -0.0807 -0.7553 -0.6606
 1451TIP3   OH225767   4.552   6.063   3.882  0.7604  0.4621 -0.4302
 1451TIP3    H125768   4.483   6.128   3.900 -0.0876 -0.2146 -1.1655
 1451TIP3    H225769   4.632   6.103   3.915 -0.3970  0.0997  3.0627
 1452TIP3   OH225770   1.890   2.970  14.031 -0.1553  0.6070  0.1082
 1452TIP3    H125771   1.875   3.057  13.995 -0.3345  0.4728 -0.1444
 1452TIP3    H225772   1.979   2.973  14.065 -0.7232  1.3955  1.5573
 1453TIP3   OH225773   0.611   1.733  16.360 -0.1049 -0.3744  0.5854
 1453TIP3    H125774   0.703   1.736  16.387  0.1378  1.1589 -0.3564
 1453TIP3    H225775   0.562   1.750  16.439  0.4549 -0.1481  0.8832
 1454TIP3   OH225776   2.344   2.953   4.250 -0.5232  0.1918 -0.3306
 1454TIP3    H125777   2.322   3.025   4.191 -1.6219  0.2725  0.1626
 1454TIP3    H225778   2.346   2.993   4.337 -1.1350 -0.3645 -0.0534
 1455TIP3   OH225779   4.222   0.036   3.466  0.0012  0.5307 -0.0117
 1455TIP3    H125780   4.247   0.023   3.557 -0.2455 -0.7755 -0.1151
 1455TIP3    H225781   4.157  -0.033   3.449  2.3721 -1.2929 -2.0695
 1456TIP3   OH225782   0.480   6.775   1.061  0.2279  0.5692 -0.0111
 1456TIP3    H125783   0.574   6.793   1.064  0.3360 -0.1383  0.9047
 1456TIP3    H225784   0.474   6.681   1.044 -0.3196  0.7158 -0.6382
 1457TIP3   OH225785   4.530   3.538  12.422  0.1306 -0.0547 -0.6323
 1457TIP3    H125786   4.504   3.450  12.393  1.7488 -0.8692  0.2676
 1457TIP3    H225787   4.458   3.595  12.395 -0.2629 -1.4120 -2.5640
 1458TIP3   OH225788   1.964   4.022  13.901 -0.2748 -0.3611  0.2491
 1458TIP3    H125789   1.921   4.084  13.841  1.1440 -1.0108 -1.4650
 1458TIP3    H225790   2.057   4.033  13.884  0.2934  0.6577  3.5840
 1459TIP3   OH225791   3.616   4.823  13.740 -0.2771 -0.2803  0.2994
 1459TIP3    H125792   3.592   4.732  13.724 -0.3475  0.0029 -1.2723
 1459TIP3    H225793   3.645   4.856  13.655 -0.0936  1.1188  0.8824
 1460TIP3   OH225794   0.282   3.247  16.592 -0.5383  0.2027 -0.0064
 1460TIP3    H125795   0.358   3.305  16.591  0.5995 -1.2542  0.3857
 1460TIP3    H225796   0.234   3.272  16.672  1.0763 -0.8120  1.3105
 1461TIP3   OH225797   3.803   6.763   3.218 -0.0576  0.7238  0.1295
 1461TIP3    H125798   3.837   6.817   3.146  1.8853  0.7251  1.0185
 1461TIP3    H225799   3.709   6.775   3.214 -0.1596 -0.6016 -3.4948
 1462TIP3   OH225800   1.162   0.761  16.650 -0.0012  0.2035  0.5086
 1462TIP3    H125801   1.208   0.835  16.610 -1.8300  1.6118  0.9077
 1462TIP3    H225802   1.071   0.791  16.657 -0.9702 -2.4428 -0.1623
 1463TIP3   OH225803   6.248   0.868   3.895  0.5516 -0.3046 -0.6505
 1463TIP3    H125804   6.301   0.942   3.867  0.3092  0.0749 -0.1299
 1463TIP3    H225805   6.265   0.861   3.989 -1.9069  1.1341 -0.0562
 1464TIP3   OH225806   1.954   0.656  14.645  0.2463  0.2894 -0.1965
 1464TIP3    H125807   2.018   0.709  14.692 -2.1846  2.3596  0.9024
 1464TIP3    H225808   1.909   0.718  14.587 -1.0357 -1.0403 -0.6455
 1465TIP3   OH225809   2.415   2.028   2.441  0.7282 -0.3023  0.4696
 1465TIP3    H125810   2.416   2.103   2.382 -1.9586  0.7157  1.6554
 1465TIP3    H225811   2.343   1.974   2.409  0.7691 -0.9263  1.4160
 1466TIP3   OH225812   5.545   4.978   1.179 -0.3842  0.5783  0.1362
 1466TIP3    H125813   5.539   5.043   1.109  0.1173  0.5378  0.0502
 1466TIP3    H225814   5.583   4.901   1.137 -1.4934  0.0374  0.1106
 1467TIP3   OH225815   3.610   0.869   5.658  0.6752  0.1545 -0.2073
 1467TIP3    H125816   3.561   0.866   5.740 -2.1911 -0.3043 -1.8571
 1467TIP3    H225817   3.692   0.823   5.677 -0.1796 -0.4295  2.2237
 1468TIP3   OH225818   0.281   4.938  16.959 -0.4523 -0.2418 -0.4629
 1468TIP3    H125819   0.257   4.996  17.031  0.0199 -0.0996 -0.4165
 1468TIP3    H225820   0.199   4.895  16.934 -1.0140  1.1994 -1.1718
 1469TIP3   OH225821   5.839   0.933   0.835 -0.0015  0.1292  0.5515
 1469TIP3    H125822   5.864   0.973   0.919  0.8126  0.2626  0.2403
 1469TIP3    H225823   5.743   0.942   0.833  0.3016  4.2927 -0.5934
 1470TIP3   OH225824   1.868   0.511   2.789  0.4307  0.7844  0.2699
 1470TIP3    H125825   1.846   0.603   2.771  0.8041  0.8584  0.1983
 1470TIP3    H225826   1.938   0.490   2.728  0.1195  0.3466  0.0577
 1471TIP3   OH225827   4.612   5.227  11.943 -0.0401  0.2681 -0.0169
 1471TIP3    H125828   4.630   5.198  11.854  1.9103 -1.5335  0.9203
 1471TIP3    H225829   4.698   5.244  11.981 -0.6888 -1.1682  2.2179
 1472TIP3   OH225830   4.614   4.731  13.778  0.0823  0.4917 -0.0488
 1472TIP3    H125831   4.649   4.731  13.867 -0.7759  2.0053  0.3037
 1472TIP3    H225832   4.607   4.639  13.755 -1.9610 -0.0275  2.3818
 1473TIP3   OH225833   0.533   0.064  12.464  0.2918 -0.5517  0.2913
 1473TIP3    H125834   0.451   0.106  12.437  0.4017 -0.0744  0.7053
 1473TIP3    H225835   0.510  -0.029  12.472 -0.2118 -0.4181  0.4162
 1474TIP3   OH225836   4.994   2.856   4.739 -0.6220  0.1352 -0.4028
 1474TIP3    H125837   5.050   2.933   4.727  0.6104 -0.1814  2.8021
 1474TIP3    H225838   4.966   2.861   4.830 -3.4954 -1.3078 -1.1336
 1475TIP3   OH225839   1.751   2.394  12.795 -0.0572  0.1357  0.4711
 1475TIP3    H125840   1.815   2.332  12.760 -1.5837 -0.8456 -0.6743
 1475TIP3    H225841   1.780   2.480  12.763  1.4936 -0.1221  1.1982
 1476TIP3   OH225842   0.174   4.365  13.990  0.5368 -0.2439 -0.1699
 1476TIP3    H125843   0.138   4.297  13.932 -0.1452  1.9440 -2.4170
 1476TIP3    H225844   0.268   4.349  13.990  0.5500 -0.2912 -1.9065
 1477TIP3   OH225845   3.166   2.895   4.623  0.4946  0.8235 -0.0353
 1477TIP3    H125846   3.178   2.807   4.659 -2.2476  0.9596  1.3814
 1477TIP3    H225847   3.163   2.881   4.528  2.4236 -0.2597  0.0216
 1478TIP3   OH225848   2.556   1.281   4.288  0.6025 -0.2777  0.2675
 1478TIP3    H125849   2.551   1.275   4.192  0.9300  0.2482  0.2169
 1478TIP3    H225850   2.466   1.268   4.318  0.4077  0.1197 -0.1406
 1479TIP3   OH225851   1.663   6.580  12.657  0.1103 -0.4445  0.4897
 1479TIP3    H125852   1.679   6.505  12.601 -2.4179  0.5053 -1.6138
 1479TIP3    H225853   1.581   6.560  12.702 -1.3516  1.6008 -1.1670
 1480TIP3   OH225854   1.157   0.322   3.121  0.6359 -0.0273  0.1097
 1480TIP3    H125855   1.112   0.385   3.064  1.7186  1.2805  0.6781
 1480TIP3    H225856   1.143   0.356   3.210  1.3218 -0.5151  0.4050
 1481TIP3   OH225857   4.576   2.469   4.941  0.1186 -0.1428  0.4008
 1481TIP3    H125858   4.519   2.529   4.988 -0.7597  0.5066 -1.4369
 1481TIP3    H225859   4.535   2.459   4.855  2.2920 -0.3623 -0.6450
 1482TIP3   OH225860   5.401   5.360  14.050  0.4069 -0.2894 -0.0145
 1482TIP3    H125861   5.367   5.291  13.993  0.9749 -1.6680  1.2815
 1482TIP3    H225862   5.466   5.406  13.997 -1.3350  0.4961 -1.5272
 1483TIP3   OH225863   4.153   1.070  15.253 -0.1750 -0.1407  0.0116
 1483TIP3    H125864   4.230   1.018  15.230 -1.1444 -2.2515  1.2851
 1483TIP3    H225865   4.151   1.070  15.348 -1.2735  0.6081  0.0052
 1484TIP3   OH225866   0.253   5.811  11.750  0.4362 -0.5041 -0.9062
 1484TIP3    H125867   0.343   5.843  11.748  0.4491 -0.2303  2.1432
 1484TIP3    H225868   0.204   5.882  11.793 -0.8473 -1.5585 -0.6093
 1485TIP3   OH225869   5.278   6.325  12.016  0.6487 -0.1392  0.5217
 1485TIP3    H125870   5.281   6.402  12.072 -0.6886  0.0775  0.3214
 1485TIP3    H225871   5.335   6.347  11.942  1.7385 -0.0889  1.3681
 1486TIP3   OH225872   0.002   0.203  12.698 -0.0948 -0.2727 -0.1228
 1486TIP3    H125873   0.029   0.169  12.784 -0.0646  1.6884  0.6836
 1486TIP3    H225874   0.079   0.189  12.642  1.1800  1.5262  1.0916
 1487TIP3   OH225875   3.636   3.015   4.498  0.5293  0.4734 -0.4008
 1487TIP3    H125876   3.594   2.935   4.466  0.1888  0.8176 -0.8234
 1487TIP3    H225877   3.566   3.061   4.545  1.0833 -0.1402  1.0535
 1488TIP3   OH225878   3.882   4.270   5.497  0.2653 -0.3861 -0.0549
 1488TIP3    H125879   3.931   4.198   5.538  0.8481 -0.2834 -0.5659
 1488TIP3    H225880   3.933   4.292   5.419 -0.6436 -0.3285 -0.6337
 1489TIP3   OH225881   1.678   0.382  16.139  0.7232  0.8154 -0.1749
 1489TIP3    H125882   1.604   0.360  16.081  1.1515 -1.0078 -0.0412
 1489TIP3    H225883   1.641   0.444  16.202 -0.1940  1.4469 -1.3106
 1490TIP3   OH225884   1.575   4.925  10.548 -0.4436 -0.3247 -0.1020
 1490TIP3    H125885   1.611   4.949  10.462 -3.2841 -0.6198 -1.4098
 1490TIP3    H225886   1.639   4.863  10.583  0.3622 -0.8586 -2.3685
 1491TIP3   OH225887   5.457   0.075  13.110 -0.2577  0.1953  0.6593
 1491TIP3    H125888   5.433   0.166  13.126  1.0703  0.3571  1.8920
 1491TIP3    H225889   5.538   0.062  13.160 -0.9516 -1.9294  1.3225
 1492TIP3   OH225890   6.294   2.977  14.152 -0.1396 -0.1835 -0.1303
 1492TIP3    H125891   6.300   2.924  14.232 -1.0217  0.2677  0.2398
 1492TIP3    H225892   6.287   2.912  14.082 -3.0790 -0.5653  0.4791
 1493TIP3   OH225893   2.537   3.043  11.867  0.0495 -0.2923 -0.1768
 1493TIP3    H125894   2.453   3.088  11.869  1.7036  2.8954  2.1760
 1493TIP3    H225895   2.569   3.056  11.777 -0.4478  1.5082 -0.1188
 1494TIP3   OH225896   5.024   0.885   3.786  0.1737  0.2354  0.7289
 1494TIP3    H125897   4.978   0.849   3.862 -1.3462  1.4160  0.4132
 1494TIP3    H225898   5.054   0.809   3.738 -1.3051 -0.5939  1.0681
 1495TIP3   OH225899   0.601   2.608  12.591 -0.5553 -0.3181 -0.5671
 1495TIP3    H125900   0.648   2.598  12.508  0.5267  0.0683 -0.0122
 1495TIP3    H225901   0.514   2.572  12.574  0.4372 -2.4996 -1.1523
 1496TIP3   OH225902   3.921   4.817  11.815  0.0688 -0.9419  0.1725
 1496TIP3    H125903   3.946   4.749  11.752 -1.1007 -0.4586 -0.8415
 1496TIP3    H225904   3.969   4.895  11.786  1.3844 -1.3038  1.3162
 1497TIP3   OH225905   6.141   3.112   1.916 -0.1337  0.2807 -0.1962
 1497TIP3    H125906   6.127   3.077   1.828 -0.8088 -0.1432  0.0704
 1497TIP3    H225907   6.070   3.175   1.928  0.5239  1.0483 -0.3152
 1498TIP3   OH225908   1.465   5.049  16.160 -0.1518  0.2161  0.2152
 1498TIP3    H125909   1.390   5.050  16.102  0.4397 -1.6163 -0.6435
 1498TIP3    H225910   1.524   4.984  16.122  0.3673 -0.8609  2.6995
 1499TIP3   OH225911   6.105   4.712  15.318 -0.4781  0.3199  0.5785
 1499TIP3    H125912   6.139   4.684  15.233  1.6545  1.9959  0.8372
 1499TIP3    H225913   6.077   4.631  15.361  2.2985 -1.0431 -0.0699
 1500TIP3   OH225914   0.161   2.256   4.944 -0.0268  0.4722  0.1642
 1500TIP3    H125915   0.072   2.291   4.939 -0.0033  0.6646  0.9888
 1500TIP3    H225916   0.176   2.215   4.858 -1.4235 -0.8421  0.5352
 1501TIP3   OH225917   5.161   4.290  15.842  0.6874  0.3011  0.1786
 1501TIP3    H125918   5.169   4.301  15.937  0.5261  1.4498  0.0611
 1501TIP3    H225919   5.070   4.266  15.828  0.0190  2.7891  0.0808
 1502TIP3   OH225920   0.834   6.547   4.922 -0.0389 -0.3031 -0.5304
 1502TIP3    H125921   0.742   6.562   4.901  0.1701  1.1432 -0.4033
 1502TIP3    H225922   0.841   6.451   4.928 -2.0136 -0.3578  1.6758
 1503TIP3   OH225923   5.062   2.487  13.739  0.0095  0.3081 -0.1179
 1503TIP3    H125924   4.979   2.447  13.764  0.4146 -0.2985  0.3052
 1503TIP3    H225925   5.124   2.414  13.740  0.2894  0.5136 -1.7018
 1504TIP3   OH225926   1.596   1.144   5.203 -0.5987 -0.3137 -0.0630
 1504TIP3    H125927   1.577   1.208   5.134 -0.5588  1.3138  1.4096
 1504TIP3    H225928   1.664   1.088   5.165  0.5047  1.4796 -0.8068
 1505TIP3   OH225929   1.731   0.482  11.787 -0.4793 -0.7743  0.4686
 1505TIP3    H125930   1.826   0.487  11.792 -0.4596 -2.4828  2.6567
 1505TIP3    H225931   1.700   0.537  11.859 -1.1604 -0.0153 -0.3909
 1506TIP3   OH225932   5.660   4.052   0.926 -0.3602  0.0279  0.2560
 1506TIP3    H125933   5.668   4.040   1.021  1.3727  1.7984  0.3489
 1506TIP3    H225934   5.639   4.144   0.915  2.0432  0.4381 -1.1877
 1507TIP3   OH225935   5.371   5.883   3.203  0.1325  0.3349 -0.2802
 1507TIP3    H125936   5.277   5.870   3.216  0.3639 -0.6140  0.5322
 1507TIP3    H225937   5.395   5.947   3.270 -0.2532  1.9377 -1.6433
 1508TIP3   OH225938   2.624   1.998   3.581 -0.3984 -0.0624 -0.0608
 1508TIP3    H125939   2.654   2.057   3.512  0.0309  1.7359  1.5937
 1508TIP3    H225940   2.705   1.956   3.612 -0.1264  1.4492  1.3855
 1509TIP3   OH225941   2.676   3.764  15.267 -0.2866  0.4620 -0.3378
 1509TIP3    H125942   2.769   3.770  15.289  0.1464  0.0707 -1.9912
 1509TIP3    H225943   2.635   3.837  15.315  1.1053  1.5416 -0.7755
 1510TIP3   OH225944   0.253   5.116  13.228 -0.1687 -0.1822 -0.6908
 1510TIP3    H125945   0.292   5.133  13.314  0.0863  1.2353 -1.0733
 1510TIP3    H225946   0.311   5.160  13.166 -0.3460 -1.2016 -1.6032
 1511TIP3   OH225947   3.004   6.005   4.214  0.1925  0.2131  0.2144
 1511TIP3    H125948   2.944   6.034   4.282  0.0546 -1.4952  0.8286
 1511TIP3    H225949   2.952   5.950   4.156  0.5357  0.8893 -0.7616
 1512TIP3   OH225950   4.786   2.009  13.908 -0.2110  0.0276 -0.6592
 1512TIP3    H125951   4.797   2.061  13.988 -1.9071  0.0038 -0.3717
 1512TIP3    H225952   4.872   2.007  13.868  1.1155 -1.5013  2.1205
 1513TIP3   OH225953   4.549   3.015  14.936  0.0422  0.0387 -0.2345
 1513TIP3    H125954   4.474   3.063  14.972 -1.5258 -1.2821 -1.6468
 1513TIP3    H225955   4.554   2.936  14.990  0.6620  0.2877  0.0816
 1514TIP3   OH225956   5.142   4.708   0.048 -0.2963  0.0158 -0.1866
 1514TIP3    H125957   5.095   4.776   0.097 -1.1708 -0.6533 -0.0713
 1514TIP3    H225958   5.230   4.742   0.037 -1.1008  1.8080 -1.3634
 1515TIP3   OH225959   3.234   6.222  16.135 -0.6179 -0.0416  0.0175
 1515TIP3    H125960   3.291   6.221  16.211  0.2009 -1.3177 -0.5964
 1515TIP3    H225961   3.243   6.134  16.097 -3.4111 -0.4730  0.2309
 1516TIP3   OH225962   2.070   5.517  12.659  0.3655  0.4975 -0.2611
 1516TIP3    H125963   1.985   5.504  12.702  0.3790 -2.8960 -1.0925
 1516TIP3    H225964   2.048   5.534  12.568  0.5381 -0.4135 -0.4837
 1517TIP3   OH225965   6.075   1.861   5.114  0.0610 -0.2176 -0.0112
 1517TIP3    H125966   6.003   1.875   5.053  1.2429 -0.1440 -1.4364
 1517TIP3    H225967   6.085   1.944   5.160  1.2883  0.8284 -2.0969
 1518TIP3   OH225968   4.957   5.578  15.441  0.3836 -0.0252  0.5239
 1518TIP3    H125969   5.020   5.586  15.512 -1.0490 -0.6118  1.8863
 1518TIP3    H225970   4.946   5.667  15.408  1.7079  0.1215  0.4435
 1519TIP3   OH225971   3.442   1.651   5.359  0.2136 -0.0968 -0.7509
 1519TIP3    H125972   3.442   1.622   5.268  1.4813 -2.2171 -0.0950
 1519TIP3    H225973   3.364   1.610   5.397  0.5652 -0.5310 -0.4888
 1520TIP3   OH225974   2.851   0.752  13.425  0.0610  0.4644  0.1474
 1520TIP3    H125975   2.807   0.751  13.340 -2.6523  0.3628  1.4761
 1520TIP3    H225976   2.820   0.672  13.468  1.0547  0.7405  1.3944
 1521TIP3   OH225977   0.540   4.382  16.238  0.0607 -0.0503 -0.0027
 1521TIP3    H125978   0.517   4.337  16.319  1.4932 -0.4153  0.2262
 1521TIP3    H225979   0.631   4.355  16.221 -0.5487 -0.7517 -2.2675
 1522TIP3   OH225980   4.387   2.567  15.258  0.2153 -0.0892  0.2647
 1522TIP3    H125981   4.297   2.558  15.289  0.7673 -0.3309  1.8388
 1522TIP3    H225982   4.379   2.610  15.173 -1.4249 -0.7014  0.0887
 1523TIP3   OH225983   6.238   2.256   5.031  0.5021 -0.1587 -0.1733
 1523TIP3    H125984   6.230   2.344   4.996  1.7175  0.1420  0.2889
 1523TIP3    H225985   6.324   2.254   5.072  0.2189 -1.3592  0.3870
 1524TIP3   OH225986   5.762   1.647   2.679 -0.1935 -0.1606 -0.0044
 1524TIP3    H125987   5.732   1.670   2.591 -0.4842  1.8542  0.6024
 1524TIP3    H225988   5.776   1.552   2.676  0.3757 -0.0223 -2.3935
 1525TIP3   OH225989   6.655   1.834   1.914 -0.6671 -0.2994 -0.0772
 1525TIP3    H125990   6.672   1.877   1.998  0.4187  0.8582 -0.8823
 1525TIP3    H225991   6.715   1.760   1.913  0.9289  0.9703 -0.7839
 1526TIP3   OH225992   6.249   5.150   2.148  1.1520 -0.4017  0.1449
 1526TIP3    H125993   6.174   5.093   2.166  0.3065 -0.1454 -2.4142
 1526TIP3    H225994   6.238   5.223   2.210 -1.5273  0.3204 -1.0625
 1527TIP3   OH225995   5.862   6.346  13.612  0.0490  0.2562 -0.5184
 1527TIP3    H125996   5.801   6.392  13.669 -0.1863  0.9625 -1.3341
 1527TIP3    H225997   5.810   6.277  13.571  0.4412 -0.8540  0.8298
 1528TIP3   OH225998   0.351   4.633   5.444  0.2204  0.3006 -0.6277
 1528TIP3    H125999   0.331   4.545   5.414 -1.1966  0.0199  1.0313
 1528TIP3    H226000   0.389   4.620   5.531  2.4741  1.1873 -1.4461
 1529TIP3   OH226001   3.728   0.237   5.655 -0.0986 -0.7573 -0.1232
 1529TIP3    H126002   3.717   0.155   5.607  0.3573 -1.5855  1.1815
 1529TIP3    H226003   3.796   0.219   5.720  0.4458  0.8283 -0.2037
 1530TIP3   OH226004   5.076   0.680  16.980  0.0868 -0.2010  0.1955
 1530TIP3    H126005   5.124   0.604  16.948  0.3815 -0.2292  0.6969
 1530TIP3    H226006   5.117   0.700  17.065 -0.6396 -0.0933  0.5251
 1531TIP3   OH226007   1.650   5.923  14.370  0.3289  0.1743  0.2890
 1531TIP3    H126008   1.570   5.872  14.361  1.9046 -2.0246 -2.0521
 1531TIP3    H226009   1.639   5.996  14.309  1.1809 -1.6121 -2.0449
 1532TIP3   OH226010   1.205   0.844   1.749  0.5716  0.5055 -0.7682
 1532TIP3    H126011   1.229   0.908   1.817 -0.3842  0.2675 -0.1899
 1532TIP3    H226012   1.149   0.893   1.689 -1.2024 -0.0931  0.3638
 1533TIP3   OH226013   1.018   4.176  16.468  0.0824 -0.0229  0.0364
 1533TIP3    H126014   1.083   4.192  16.399  0.1813  0.6163  0.2751
 1533TIP3    H226015   0.937   4.212  16.434  0.2246  0.6661  0.4258
 1534TIP3   OH226016   5.757   2.192  10.359  0.1680  0.9576  0.5219
 1534TIP3    H126017   5.717   2.245  10.290  1.0757  2.1414  0.8974
 1534TIP3    H226018   5.727   2.103  10.341 -0.6808  1.4654 -0.6119
 1535TIP3   OH226019   2.340   5.602  12.757 -0.4100 -0.3888  0.1200
 1535TIP3    H126020   2.256   5.578  12.717  0.0356 -0.8131 -0.5700
 1535TIP3    H226021   2.365   5.683  12.711 -0.9442  0.3144  1.0534
 1536TIP3   OH226022   4.197   1.580   0.810  0.6393  0.3659  0.6835
 1536TIP3    H126023   4.217   1.501   0.861 -1.0240  0.2033  1.0928
 1536TIP3    H226024   4.147   1.548   0.736  3.2172  0.5764 -1.2254
 1537TIP3   OH226025   4.859   3.875   5.332 -0.1198  0.8390 -0.6832
 1537TIP3    H126026   4.942   3.919   5.348  0.5255 -0.1145 -1.4198
 1537TIP3    H226027   4.872   3.827   5.250 -0.5294 -1.4708  0.5807
 1538TIP3   OH226028   1.373   5.646   4.371  0.4132 -0.0048 -0.4914
 1538TIP3    H126029   1.448   5.633   4.430 -1.4078 -0.1449  1.9062
 1538TIP3    H226030   1.300   5.601   4.415 -1.5512  1.8755 -1.6917
 1539TIP3   OH226031   2.862   0.098  14.284  0.4659  0.3071  0.2091
 1539TIP3    H126032   2.843   0.192  14.288 -0.4942  0.1271  0.0820
 1539TIP3    H226033   2.804   0.059  14.350 -0.0117 -0.3177 -0.5655
 1540TIP3   OH226034   6.197   5.702   4.375 -0.5505  0.1995  0.0709
 1540TIP3    H126035   6.168   5.791   4.393  0.8024 -0.0198  3.7934
 1540TIP3    H226036   6.167   5.651   4.450  0.9365 -1.9587 -0.7363
 1541TIP3   OH226037   1.010   0.754   2.043  0.7581 -0.1025  0.0438
 1541TIP3    H126038   1.044   0.758   2.132  2.7894  0.8642 -0.7293
 1541TIP3    H226039   1.069   0.810   1.993 -0.5548 -0.3651 -1.8446
 1542TIP3   OH226040   4.265   3.026   1.357  0.6913  0.3366 -0.1501
 1542TIP3    H126041   4.179   3.066   1.349  0.1120 -0.6253  1.1873
 1542TIP3    H226042   4.319   3.074   1.294 -1.7186 -1.6207 -3.9262
 1543TIP3   OH226043   3.867   2.254  14.237  0.1101 -0.0363  0.1256
 1543TIP3    H126044   3.861   2.341  14.196  1.1002 -0.1402 -0.2515
 1543TIP3    H226045   3.960   2.244  14.259 -0.2986 -0.2113  1.9189
 1544TIP3   OH226046   0.565   0.706   1.834 -0.4892  0.2673  0.1384
 1544TIP3    H126047   0.650   0.746   1.814 -0.7662 -0.0681 -1.8558
 1544TIP3    H226048   0.572   0.616   1.800 -1.5903  0.1930  0.0785
 1545TIP3   OH226049   1.199   5.250  12.556  0.1537 -0.0222  0.6200
 1545TIP3    H126050   1.236   5.317  12.615 -1.2490 -0.2208  1.7539
 1545TIP3    H226051   1.180   5.298  12.475  1.9678  0.2878  0.3524
 1546TIP3   OH226052   0.036   1.498  15.298  0.2817  0.1326 -0.6553
 1546TIP3    H126053   0.100   1.541  15.240  0.1924  2.0300  0.6016
 1546TIP3    H226054  -0.035   1.562  15.305 -0.0073 -0.3680  1.0108
 1547TIP3   OH226055   1.356   0.456   5.632  0.1314  0.1775  0.1608
 1547TIP3    H126056   1.418   0.416   5.694  1.0505  1.2455 -0.0470
 1547TIP3    H226057   1.359   0.550   5.654 -1.2226  0.2679 -0.0296
 1548TIP3   OH226058   4.453   0.232  16.965 -0.6688  0.1015  0.1119
 1548TIP3    H126059   4.517   0.170  16.929  0.1131  0.9928 -0.0590
 1548TIP3    H226060   4.416   0.187  17.041  1.1517  0.1230  1.0281
 1549TIP3   OH226061   4.265   4.862  16.036 -0.1362  0.5591  0.1989
 1549TIP3    H126062   4.298   4.778  16.068  1.9586  0.7310 -1.4090
 1549TIP3    H226063   4.343   4.912  16.014 -1.4128  2.0092 -1.1832
 1550TIP3   OH226064   4.807   1.805   3.181  0.6127  0.0288  0.4925
 1550TIP3    H126065   4.749   1.842   3.248 -1.2895  1.2324 -1.7573
 1550TIP3    H226066   4.868   1.750   3.230  0.1501  1.9684  3.3522
 1551TIP3   OH226067   5.346   0.911   2.709  0.5839 -0.7862 -0.3093
 1551TIP3    H126068   5.281   0.850   2.675 -0.1943 -1.7121  2.6909
 1551TIP3    H226069   5.424   0.858   2.723  0.5534 -0.6676  0.3477
 1552TIP3   OH226070   0.330   4.462  15.430  0.3752 -0.4530  0.2146
 1552TIP3    H126071   0.241   4.488  15.407  0.0668 -1.0822  0.6824
 1552TIP3    H226072   0.330   4.367  15.417  0.7685 -0.5490  0.9350
 1553TIP3   OH226073   0.855   2.479   1.573 -0.5355  0.7101 -0.0261
 1553TIP3    H126074   0.861   2.458   1.480  1.4261 -3.3362  0.9096
 1553TIP3    H226075   0.762   2.473   1.593 -0.5625 -2.6603 -0.8963
 1554TIP3   OH226076   2.745   2.117  16.549 -0.9772  0.1187 -0.0157
 1554TIP3    H126077   2.808   2.129  16.620 -0.8210  0.0193 -0.1395
 1554TIP3    H226078   2.773   2.177  16.481  0.4111 -1.6787 -1.0536
 1555TIP3   OH226079   0.874   4.738  15.393  0.1450 -0.4184 -0.0358
 1555TIP3    H126080   0.869   4.818  15.342 -0.1655 -0.8222 -0.6461
 1555TIP3    H226081   0.963   4.737  15.428  0.1158  0.2402  0.0540
 1556TIP3   OH226082   5.108   6.626   1.216 -0.3021 -0.6654 -0.1983
 1556TIP3    H126083   5.145   6.712   1.193 -0.2061 -0.8735 -0.8232
 1556TIP3    H226084   5.075   6.638   1.305  1.5953 -0.5858  0.5094
 1557TIP3   OH226085   1.727   5.728   4.840  0.0734 -0.3937  0.1452
 1557TIP3    H126086   1.680   5.775   4.771 -1.5113 -1.7448  0.2784
 1557TIP3    H226087   1.706   5.778   4.920 -2.2979 -1.7487  0.4172
 1558TIP3   OH226088   6.786   1.193  12.866 -0.4488  0.4728  0.1124
 1558TIP3    H126089   6.864   1.213  12.813 -0.3958  1.1296  0.4314
 1558TIP3    H226090   6.820   1.140  12.939 -0.5381 -0.5135 -0.5623
 1559TIP3   OH226091   1.241   3.512  16.999  0.1619  0.1377  0.8561
 1559TIP3    H126092   1.161   3.565  16.997  0.5105  0.6445  0.4074
 1559TIP3    H226093   1.247   3.481  17.090  0.1682  1.1934  1.2182
 1560TIP3   OH226094   6.037   0.760  12.082 -0.1082 -0.0844  0.3349
 1560TIP3    H126095   5.943   0.748  12.093 -0.2387  1.0344  0.5485
 1560TIP3    H226096   6.048   0.788  11.991 -0.0859  0.6577  0.5575
 1561TIP3   OH226097   2.822   2.164  12.191  0.4159  0.1913 -0.2134
 1561TIP3    H126098   2.879   2.177  12.267  0.0307 -0.5415  0.2071
 1561TIP3    H226099   2.817   2.069  12.181  0.2139  0.2794 -0.9654
 1562TIP3   OH226100   5.912   6.163  10.979  0.3987  0.1597 -0.1525
 1562TIP3    H126101   5.992   6.186  11.027 -1.1101  1.4924  1.7876
 1562TIP3    H226102   5.944   6.126  10.897  3.0198  0.0929  0.8457
 1563TIP3   OH226103   2.673   6.395  16.913  0.2931  0.2481 -0.5804
 1563TIP3    H126104   2.691   6.414  16.821  2.3141  1.1197 -0.0368
 1563TIP3    H226105   2.597   6.449  16.935  0.2868  0.6340 -1.5303
 1564TIP3   OH226106   0.831   4.279  15.939 -0.3023 -0.1211 -0.3884
 1564TIP3    H126107   0.844   4.327  15.857  2.1192 -0.0213  0.0220
 1564TIP3    H226108   0.742   4.245  15.933  0.1963 -1.0100 -3.5330
 1565TIP3   OH226109   3.344   5.385  11.095 -0.1277 -0.6490 -0.2139
 1565TIP3    H126110   3.398   5.350  11.166  0.5991  0.8795  0.0117
 1565TIP3    H226111   3.340   5.314  11.031  1.3019 -1.1576  0.2394
 1566TIP3   OH226112   3.921   0.790  15.491 -0.1865  0.5319 -0.4180
 1566TIP3    H126113   4.014   0.776  15.474  0.1155  0.1657  1.3900
 1566TIP3    H226114   3.901   0.871  15.445  1.0542  0.6679 -0.7540
 1567TIP3   OH226115   3.743   1.598   4.773  0.2819 -0.0824  0.0003
 1567TIP3    H126116   3.693   1.636   4.845  0.1367  0.0085 -0.1477
 1567TIP3    H226117   3.818   1.556   4.815 -0.8573 -1.7871  0.3883
 1568TIP3   OH226118   6.504   1.476  14.654  0.4416  0.3798  0.0108
 1568TIP3    H126119   6.535   1.565  14.673 -0.6703  0.6734  0.5095
 1568TIP3    H226120   6.426   1.466  14.708  1.3615 -1.4310  1.0385
 1569TIP3   OH226121   5.791   6.103   3.568  0.4907 -0.7690  0.5794
 1569TIP3    H126122   5.783   6.197   3.580  0.0596 -0.5678 -1.1738
 1569TIP3    H226123   5.701   6.070   3.573  0.4222 -0.8197 -0.8259
 1570TIP3   OH226124   1.676   1.987   5.964  0.3974  0.1297 -0.5968
 1570TIP3    H126125   1.733   1.965   5.890  0.8212  0.1135 -0.2698
 1570TIP3    H226126   1.736   2.014   6.033  0.0962 -1.0776  0.1672
 1571TIP3   OH226127   6.532   5.237  11.601 -0.2802  0.1092 -0.2617
 1571TIP3    H126128   6.505   5.164  11.545  0.4326 -0.0903 -0.3473
 1571TIP3    H226129   6.450   5.270  11.638 -0.3500 -2.9301  2.5069
 1572TIP3   OH226130   4.618   3.698  13.282  0.1744 -0.0449  0.1953
 1572TIP3    H126131   4.646   3.776  13.331  0.0703 -1.2085  2.1563
 1572TIP3    H226132   4.568   3.647  13.346 -2.7546 -0.0728 -2.0204
 1573TIP3   OH226133   4.726   0.766   1.136 -0.1997  0.0446  0.2642
 1573TIP3    H126134   4.655   0.813   1.179 -1.1890 -0.8432 -0.3532
 1573TIP3    H226135   4.699   0.674   1.141  0.5723 -0.2322 -0.5786
 1574TIP3   OH226136   5.299   1.257  11.863  0.1004  0.3521 -0.5114
 1574TIP3    H126137   5.279   1.180  11.917 -1.0815  0.7582 -0.3639
 1574TIP3    H226138   5.394   1.255  11.854  0.1617 -0.6514  0.2039
 1575TIP3   OH226139   4.137   4.108  14.278 -0.2121  0.1051 -0.8196
 1575TIP3    H126140   4.137   4.013  14.277 -0.6795  0.1023 -3.5671
 1575TIP3    H226141   4.229   4.132  14.266 -0.1676  0.0129 -0.6643
 1576TIP3   OH226142   6.517   2.811  17.172  0.0340  0.3625  0.0915
 1576TIP3    H126143   6.528   2.863  17.093 -0.4965 -2.0980 -1.6521
 1576TIP3    H226144   6.604   2.806  17.210  0.3622  1.2408 -0.5110
 1577TIP3   OH226145   6.655   2.371   0.464  0.1831  0.0644  0.6814
 1577TIP3    H126146   6.569   2.411   0.454  0.0286 -0.5132 -0.4233
 1577TIP3    H226147   6.640   2.296   0.522 -0.2290 -0.5514 -0.2134
 1578TIP3   OH226148   3.641   3.865  11.182  0.1233  0.2138  0.5288
 1578TIP3    H126149   3.551   3.894  11.167  0.3225  1.1670  1.1263
 1578TIP3    H226150   3.652   3.870  11.277  1.1225  1.0617  0.3735
 1579TIP3   OH226151   5.078   5.827  15.339 -0.3916 -0.7223 -0.0380
 1579TIP3    H126152   5.109   5.871  15.418 -2.3902 -1.5920  1.2767
 1579TIP3    H226153   5.099   5.888  15.268 -2.1668  1.9479  1.6125
 1580TIP3   OH226154   4.343   6.356  14.438 -0.0230  0.1872  0.3884
 1580TIP3    H126155   4.330   6.293  14.509 -0.4258 -0.7960 -0.5505
 1580TIP3    H226156   4.258   6.399  14.428  0.4599  1.4492  1.5501
 1581TIP3   OH226157   0.973   1.894   4.024 -0.8463  0.1583  0.0424
 1581TIP3    H126158   0.933   1.945   3.953 -1.0342  1.7935  1.3068
 1581TIP3    H226159   1.067   1.904   4.010 -0.8817  0.4498  0.0121
 1582TIP3   OH226160   3.853   4.687   2.434 -0.2370 -0.0054 -0.5018
 1582TIP3    H126161   3.841   4.632   2.512  0.9635 -0.2171 -0.4557
 1582TIP3    H226162   3.794   4.650   2.369  1.6641 -2.3784 -0.9902
 1583TIP3   OH226163   1.222   4.454   5.351 -0.3244  0.4349 -0.3393
 1583TIP3    H126164   1.303   4.434   5.304 -0.5736 -0.7315 -0.2868
 1583TIP3    H226165   1.182   4.525   5.300  0.1428  0.1917 -1.0562
 1584TIP3   OH226166   6.038   6.380  13.391  0.0737 -0.4853  0.2988
 1584TIP3    H126167   6.001   6.369  13.479 -1.2574  0.8432 -0.0946
 1584TIP3    H226168   6.132   6.390  13.407  0.0587 -1.8712  1.4397
 1585TIP3   OH226169   2.513   4.712  13.628  0.8368  0.1291 -0.0705
 1585TIP3    H126170   2.512   4.794  13.579 -0.2737 -0.2010 -0.6182
 1585TIP3    H226171   2.458   4.653  13.577 -0.5057 -0.1590  1.6759
 1586TIP3   OH226172   2.887   5.201  15.557  0.8009  0.2547 -0.2518
 1586TIP3    H126173   2.878   5.281  15.610  0.3165 -0.6306  1.0219
 1586TIP3    H226174   2.800   5.163  15.556  1.0899 -0.4039 -0.6322
 1587TIP3   OH226175   6.090   2.741   0.945 -0.0923  0.5063  0.2810
 1587TIP3    H126176   6.050   2.737   0.858  1.5554 -2.7535 -0.4076
 1587TIP3    H226177   6.071   2.829   0.976 -0.0715  2.0178 -3.7083
 1588TIP3   OH226178   0.420   2.523  13.389  0.0274  0.0499 -0.4183
 1588TIP3    H126179   0.419   2.474  13.307 -0.9642  1.4976 -1.2799
 1588TIP3    H226180   0.330   2.519  13.421  0.6535 -1.5270  1.2410
 1589TIP3   OH226181   2.289   0.496   3.994  0.3922  0.3192  0.4120
 1589TIP3    H126182   2.224   0.443   4.041  1.0464 -1.6143 -0.8276
 1589TIP3    H226183   2.344   0.533   4.063  0.0261 -0.7541  1.2924
 1590TIP3   OH226184   4.068   5.509  14.745  0.3010 -0.6493  0.0546
 1590TIP3    H126185   3.995   5.523  14.685 -0.2410 -1.8200  0.4286
 1590TIP3    H226186   4.038   5.545  14.828  0.5219 -0.2889 -0.0166
 1591TIP3   OH226187   0.797   2.243   4.611  0.1984 -0.6380  0.0916
 1591TIP3    H126188   0.731   2.243   4.542  0.7043  0.3816 -0.4029
 1591TIP3    H226189   0.826   2.153   4.616 -0.4527 -0.8834 -0.4387
 1592TIP3   OH226190   2.793   0.750  14.781 -0.9521  0.0921  0.0847
 1592TIP3    H126191   2.732   0.820  14.806 -2.3233 -0.7098 -0.9890
 1592TIP3    H226192   2.788   0.746  14.686  1.9129  1.0110 -0.1495
 1593TIP3   OH226193   5.691   0.065  13.233  0.6642  0.4615 -0.1396
 1593TIP3    H126194   5.763   0.015  13.272  1.6973  2.3597  0.4620
 1593TIP3    H226195   5.734   0.128  13.176 -0.4614  2.1318  0.8143
 1594TIP3   OH226196   3.762   5.314  12.027 -0.4745  0.7882 -0.5075
 1594TIP3    H126197   3.842   5.304  11.975  0.1660 -0.3053  0.6707
 1594TIP3    H226198   3.710   5.237  12.006  0.1552 -0.0946  1.0836
 1595TIP3   OH226199   3.301   2.335   2.571  0.4875  0.1219  0.2449
 1595TIP3    H126200   3.212   2.340   2.605 -0.4501  0.0528 -2.0660
 1595TIP3    H226201   3.322   2.425   2.546  1.4018  0.2842  1.5705
 1596TIP3   OH226202   0.808   4.623   5.723  0.1684  0.2279 -0.5550
 1596TIP3    H126203   0.802   4.531   5.750  0.9918  0.4609  0.4743
 1596TIP3    H226204   0.896   4.649   5.748 -0.3793  1.5678  0.0253
 1597TIP3   OH226205   6.417   0.196  14.714 -0.7430 -0.0763  0.5440
 1597TIP3    H126206   6.454   0.137  14.780  0.9212 -0.2876 -0.5515
 1597TIP3    H226207   6.445   0.283  14.743 -0.0268 -0.1672  0.1414
 1598TIP3   OH226208   6.171   2.653   4.205  0.0079 -0.1028 -0.8906
 1598TIP3    H126209   6.136   2.742   4.199  3.4558  1.2947 -1.1928
 1598TIP3    H226210   6.164   2.619   4.116 -1.7293 -0.3257 -0.6860
 1599TIP3   OH226211   1.314   6.639  15.393  0.0903 -0.0846 -0.3716
 1599TIP3    H126212   1.376   6.712  15.394  0.5351 -0.4115  3.2355
 1599TIP3    H226213   1.229   6.680  15.406  0.2409 -0.1185  0.7541
 1600TIP3   OH226214   4.534   6.663  13.043 -0.5440  0.0558 -0.0078
 1600TIP3    H126215   4.481   6.659  13.123 -0.1167  0.2215  0.2866
 1600TIP3    H226216   4.565   6.753  13.040 -0.5879  0.0585 -0.3833
 1601TIP3   OH226217   5.383   1.150  10.611  0.2621  0.4251  0.4083
 1601TIP3    H126218   5.424   1.066  10.629 -0.9554  0.1301  1.9435
 1601TIP3    H226219   5.310   1.130  10.552 -0.0288  0.4042  0.7746
 1602TIP3   OH226220   0.124   0.787  14.449  0.1640 -0.3568 -0.3698
 1602TIP3    H126221   0.180   0.755  14.519  0.2259 -0.9985 -0.7092
 1602TIP3    H226222   0.040   0.805  14.492  0.2422 -0.6216 -0.1053
 1603TIP3   OH226223   3.820   4.856  15.453  0.0790  0.0838 -0.4563
 1603TIP3    H126224   3.887   4.910  15.412  0.6145  0.2951  0.6646
 1603TIP3    H226225   3.743   4.864  15.396 -0.1881  2.8437  0.2467
 1604TIP3   OH226226   2.212   4.396  11.352  0.1495  0.3553 -0.5337
 1604TIP3    H126227   2.185   4.482  11.386  0.8103  0.8142 -1.1486
 1604TIP3    H226228   2.198   4.336  11.425 -0.7807  0.9027 -0.2474
 1605TIP3   OH226229   3.831   4.832  12.369  0.0694 -0.6990 -0.0308
 1605TIP3    H126230   3.806   4.811  12.279  0.8568 -0.8489 -0.2188
 1605TIP3    H226231   3.904   4.894  12.360  0.0834 -0.6363  0.5005
 1606TIP3   OH226232   4.605   5.892  14.788 -0.0095 -0.1531 -0.1188
 1606TIP3    H126233   4.579   5.979  14.819 -0.7768 -0.0787 -0.9291
 1606TIP3    H226234   4.622   5.905  14.695  0.9298 -0.6479 -0.0156
 1607TIP3   OH226235   6.064   3.188  14.748  0.0944 -0.3119 -0.3207
 1607TIP3    H126236   6.112   3.111  14.779  0.4406  0.0362  0.0059
 1607TIP3    H226237   6.037   3.233  14.828 -0.0666 -0.0642 -0.5145
 1608TIP3   OH226238   4.685   2.205  15.112  0.3343  1.3289  0.0275
 1608TIP3    H126239   4.775   2.174  15.111  0.6220  2.0242  2.1441
 1608TIP3    H226240   4.676   2.256  15.032  1.7994  1.2371 -0.2112
 1609TIP3   OH226241   0.763   3.120   4.526 -0.2950  0.1500  0.2918
 1609TIP3    H126242   0.724   3.135   4.612 -0.8587  0.3480  0.0047
 1609TIP3    H226243   0.799   3.206   4.501 -0.9323  0.3179 -0.0642
 1610TIP3   OH226244   1.777   1.184   1.619 -0.5016 -0.2986 -0.1472
 1610TIP3    H126245   1.698   1.151   1.662 -0.0016  1.0979  1.9505
 1610TIP3    H226246   1.845   1.179   1.687  0.5772  0.9538 -1.1096
 1611TIP3   OH226247   0.898   6.134  14.735  0.5398 -0.3776 -0.0272
 1611TIP3    H126248   0.907   6.039  14.739  1.0505 -0.3247  0.0281
 1611TIP3    H226249   0.978   6.165  14.694  0.1856  0.0003 -0.4522
 1612TIP3   OH226250   3.880   2.207  15.508  0.1461  0.1238  0.3440
 1612TIP3    H126251   3.910   2.133  15.561  2.1450  2.2669  2.3143
 1612TIP3    H226252   3.892   2.179  15.417  3.3839 -0.9767  1.0798
 1613TIP3   OH226253   5.179   0.035   4.471  0.8587 -0.5902  0.1422
 1613TIP3    H126254   5.226  -0.024   4.411  0.1112  0.3382 -1.3996
 1613TIP3    H226255   5.243   0.104   4.490  0.6480 -0.1432 -0.7268
 1614TIP3   OH226256   6.730   3.636  17.048 -0.3360 -0.3296 -0.0382
 1614TIP3    H126257   6.749   3.572  16.979 -2.3224 -0.5121 -0.4406
 1614TIP3    H226258   6.691   3.710  17.003  0.4512  0.5050  0.6329
 1615TIP3   OH226259   1.866   4.422  13.921 -0.1294  0.3393  0.2596
 1615TIP3    H126260   1.927   4.383  13.859 -0.0287 -0.2911  0.7548
 1615TIP3    H226261   1.791   4.449  13.867 -1.1716 -2.5293  0.1994
 1616TIP3   OH226262   2.457   0.278   4.217  0.0591  0.4784 -0.0457
 1616TIP3    H126263   2.405   0.356   4.198 -0.2413  0.3207  0.1163
 1616TIP3    H226264   2.393   0.207   4.221  0.3118  0.2496 -0.0359
 1617TIP3   OH226265   6.418   6.129  10.605  0.1598 -0.1423  0.0005
 1617TIP3    H126266   6.338   6.178  10.585  1.2234  1.8826  0.4965
 1617TIP3    H226267   6.456   6.108  10.520 -1.5971 -2.3909 -0.2821
 1618TIP3   OH226268   2.517   6.608  11.469  0.5886 -0.3234 -0.3137
 1618TIP3    H126269   2.546   6.542  11.533  0.4696 -0.0876 -0.0162
 1618TIP3    H226270   2.594   6.625  11.416  0.4378 -1.2185 -0.8437
 1619TIP3   OH226271   0.628   0.961   1.477 -0.0774  0.1553 -0.3225
 1619TIP3    H126272   0.716   0.923   1.477  0.1138  0.5925 -0.5922
 1619TIP3    H226273   0.621   1.007   1.560  0.2264  0.7546 -0.6287
 1620TIP3   OH226274   6.485   5.830  15.579  0.0183 -0.1445  0.4069
 1620TIP3    H126275   6.444   5.886  15.514 -0.8774 -0.7305  0.4593
 1620TIP3    H226276   6.451   5.861  15.663  1.0001  0.4664  0.5922
 1621TIP3   OH226277   2.910   3.159   6.527  0.2140 -0.3581  0.8904
 1621TIP3    H126278   2.878   3.210   6.601  2.5230 -0.2043  1.8187
 1621TIP3    H226279   2.937   3.224   6.462 -2.5500 -0.4979 -0.4505
 1622TIP3   OH226280   0.691   1.295  11.888  0.0359  0.3017 -0.0613
 1622TIP3    H126281   0.682   1.295  11.983  1.9208 -1.1336  0.1423
 1622TIP3    H226282   0.784   1.307  11.873 -0.1417 -0.3415 -1.7312
 1623TIP3   OH226283   0.358   2.011  17.116  0.3174  0.1763 -0.1509
 1623TIP3    H126284   0.316   1.929  17.142 -1.3127  1.0471  0.0439
 1623TIP3    H226285   0.425   1.985  17.052 -1.4810 -1.1150 -1.5540
 1624TIP3   OH226286   2.246   0.861  11.889  0.5214 -0.1258  0.5544
 1624TIP3    H126287   2.285   0.931  11.836  1.3531 -0.0175  1.3089
 1624TIP3    H226288   2.313   0.793  11.893  0.6399  0.0560  1.8371
 1625TIP3   OH226289   4.159   2.257  15.342  0.4898 -0.6346 -0.4079
 1625TIP3    H126290   4.138   2.165  15.330 -1.4345 -0.3104  0.2824
 1625TIP3    H226291   4.223   2.277  15.273  0.2748 -2.2558 -1.0862
 1626TIP3   OH226292   5.186   1.124  15.655 -0.5942 -0.7877 -0.4909
 1626TIP3    H126293   5.227   1.038  15.651 -0.0060 -0.5285 -0.1746
 1626TIP3    H226294   5.120   1.116  15.723  0.7376 -0.4732  0.8775
 1627TIP3   OH226295   1.308   0.713  13.263  0.1183 -0.5179 -0.3703
 1627TIP3    H126296   1.301   0.736  13.356  0.2508  0.8815 -0.6997
 1627TIP3    H226297   1.249   0.773  13.218  0.3107 -0.9625 -1.2419
 1628TIP3   OH226298   2.712   6.176   4.614 -0.3757 -0.2693  0.3833
 1628TIP3    H126299   2.687   6.267   4.626 -1.7201 -0.6233  0.3371
 1628TIP3    H226300   2.738   6.146   4.702 -2.0344 -0.4458  0.8369
 1629TIP3   OH226301   0.656   5.976  14.439 -0.0896  0.4165  0.4366
 1629TIP3    H126302   0.597   5.918  14.391 -0.3141  1.9263 -1.1586
 1629TIP3    H226303   0.732   5.985  14.383  0.2164  1.1410  0.9638
 1630TIP3   OH226304   0.563   5.056   4.413 -0.6882  0.1154  1.2362
 1630TIP3    H126305   0.636   5.063   4.474 -0.8414  0.2525  1.4039
 1630TIP3    H226306   0.514   4.979   4.442  1.5484 -2.3312 -1.2059
 1631TIP3   OH226307   3.968   1.045   1.989  0.6663  0.1579 -0.4099
 1631TIP3    H126308   3.985   0.957   1.957  0.1556 -0.2664  0.4778
 1631TIP3    H226309   3.945   1.034   2.081  0.6931  1.2248 -0.2612
 1632TIP3   OH226310   0.940   1.460   0.655  0.1627  0.4635 -0.0954
 1632TIP3    H126311   1.013   1.493   0.603  0.6360 -0.7391 -0.2170
 1632TIP3    H226312   0.882   1.418   0.591 -0.1616  0.5832  0.1192
 1633TIP3   OH226313   2.642   1.279   6.351  0.1100  0.2206 -0.5673
 1633TIP3    H126314   2.640   1.184   6.363 -0.4236  0.4618  1.3058
 1633TIP3    H226315   2.565   1.298   6.297 -0.3042 -0.2929 -0.1594
 1634TIP3   OH226316   0.283   6.282  11.357 -0.2580  0.8752 -0.2996
 1634TIP3    H126317   0.342   6.272  11.282  1.3507  0.5255  0.9900
 1634TIP3    H226318   0.218   6.213  11.345  0.6923  0.0364 -0.7299
 1635TIP3   OH226319   6.014   1.033  13.572 -0.4816  0.6561 -0.4594
 1635TIP3    H126320   6.100   0.996  13.593 -2.1222 -1.7354  2.5666
 1635TIP3    H226321   5.985   0.983  13.496 -0.5751 -0.8974  0.5685
 1636TIP3   OH226322   1.881   1.523  12.058 -0.4666 -0.1921  0.3848
 1636TIP3    H126323   1.821   1.569  11.999 -1.5068 -1.0382  0.7567
 1636TIP3    H226324   1.860   1.559  12.145  0.9317  0.9189  0.2740
 1637TIP3   OH226325   0.837   0.101  12.423 -0.4190 -0.3366  0.3926
 1637TIP3    H126326   0.824   0.023  12.370 -3.4422  0.4440 -0.1800
 1637TIP3    H226327   0.757   0.107  12.476 -0.3185  2.4007  0.3108
 1638TIP3   OH226328   5.177   2.232  13.383  0.0411  0.4235 -0.4732
 1638TIP3    H126329   5.255   2.270  13.343  0.6120 -2.0155 -1.7692
 1638TIP3    H226330   5.110   2.238  13.315 -0.0655 -0.2296 -0.4257
 1639TIP3   OH226331   2.737   6.685   0.290 -0.2177 -0.1585  0.7014
 1639TIP3    H126332   2.724   6.778   0.274 -1.7065 -0.7050 -1.4339
 1639TIP3    H226333   2.811   6.661   0.234  1.5848  0.1467  2.8640
 1640TIP3   OH226334   6.440   2.981  15.581 -0.1798 -0.3428 -0.3558
 1640TIP3    H126335   6.384   2.917  15.626  1.2271 -2.0324 -0.9216
 1640TIP3    H226336   6.481   3.031  15.653 -1.1172 -0.2319  0.1049
 1641TIP3   OH226337   2.477   5.533  11.282 -0.0244 -0.0010  0.2736
 1641TIP3    H126338   2.537   5.584  11.336  1.7143 -1.2824 -0.3613
 1641TIP3    H226339   2.532   5.502  11.209 -1.1937 -2.0775  0.2274
 1642TIP3   OH226340   5.128   5.801   4.205 -0.4428 -0.3297  0.6052
 1642TIP3    H126341   5.177   5.867   4.156 -0.5864 -1.4967 -1.1662
 1642TIP3    H226342   5.133   5.830   4.296  2.8198  0.0758  0.3838
 1643TIP3   OH226343   3.097   4.043   1.574 -0.1995 -0.0745 -0.0074
 1643TIP3    H126344   3.145   4.012   1.650 -3.0532 -1.5788  1.2438
 1643TIP3    H226345   3.094   3.968   1.515 -0.1803  0.3154 -0.5115
 1644TIP3   OH226346   3.194   0.391   3.555 -0.2295  0.3347 -0.4320
 1644TIP3    H126347   3.259   0.398   3.485 -0.4361  2.5344 -0.4667
 1644TIP3    H226348   3.126   0.454   3.530 -0.2509  1.2323  1.7855
 1645TIP3   OH226349   6.450   2.721  15.931 -0.0180 -0.4770  0.0075
 1645TIP3    H126350   6.413   2.767  15.855  1.8071 -1.1876 -1.3593
 1645TIP3    H226351   6.498   2.648  15.893  1.7416 -0.2857  1.8135
 1646TIP3   OH226352   0.964   5.879   2.646  0.1525  0.6412  0.6789
 1646TIP3    H126353   0.870   5.863   2.650 -0.1770  2.8181  5.0530
 1646TIP3    H226354   0.972   5.975   2.654  2.6985  0.6386 -1.2691
 1647TIP3   OH226355   2.937   5.614   4.723 -0.5674  0.1273  0.4101
 1647TIP3    H126356   3.002   5.682   4.702 -0.3250  0.1776  1.2868
 1647TIP3    H226357   2.879   5.612   4.647  1.3336 -0.9822 -1.0621
 1648TIP3   OH226358   6.223   2.100   3.320 -0.4246 -0.6256  0.3921
 1648TIP3    H126359   6.168   2.104   3.242 -0.7054 -3.1134  0.4281
 1648TIP3    H226360   6.227   2.190   3.351 -0.5246  0.3512 -2.3284
 1649TIP3   OH226361   4.626   0.867   4.794  0.6654  0.0386 -0.0422
 1649TIP3    H126362   4.707   0.874   4.743  0.8745 -2.9012 -0.2214
 1649TIP3    H226363   4.645   0.798   4.859 -1.5064 -0.2785  0.2849
 1650TIP3   OH226364   4.896   0.430  16.921  0.4512  0.2121 -0.3459
 1650TIP3    H126365   4.984   0.451  16.890 -0.0096  2.5693 -0.1577
 1650TIP3    H226366   4.901   0.444  17.016 -0.0845  0.1802 -0.3158
 1651TIP3   OH226367   2.541   0.703   2.160  0.5697  0.4007  0.8346
 1651TIP3    H126368   2.499   0.785   2.134  0.4040  0.3973  1.0835
 1651TIP3    H226369   2.608   0.688   2.094 -0.5079 -0.1242 -0.1702
 1652TIP3   OH226370   4.620   6.584  16.795 -0.0087  0.0087 -0.3885
 1652TIP3    H126371   4.548   6.586  16.859  0.0625 -2.2659 -0.1981
 1652TIP3    H226372   4.657   6.673  16.798 -1.1803  0.4668  1.3789
 1653TIP3   OH226373   0.503   5.636   4.299  0.0592  0.1577  0.8544
 1653TIP3    H126374   0.451   5.661   4.223  0.6612  1.8034  0.9524
 1653TIP3    H226375   0.523   5.544   4.285 -0.8383  0.1391 -0.3905
 1654TIP3   OH226376   3.369   0.401  15.434  0.1697 -0.6345  0.0347
 1654TIP3    H126377   3.297   0.430  15.490  0.3353 -0.6185  0.2394
 1654TIP3    H226378   3.427   0.353  15.492 -1.8002 -4.3999 -0.9313
 1655TIP3   OH226379   5.593   1.757  15.521 -0.0685  0.6871 -0.6869
 1655TIP3    H126380   5.511   1.736  15.476  0.3254  2.5644 -2.3246
 1655TIP3    H226381   5.660   1.709  15.474 -0.1156 -0.3529  0.2732
 1656TIP3   OH226382   3.773   3.235   5.496 -0.6570 -0.5538  0.1567
 1656TIP3    H126383   3.825   3.237   5.416  0.9138 -0.9491  1.1302
 1656TIP3    H226384   3.815   3.300   5.553  0.2261 -2.5162  1.8075
 1657TIP3   OH226385   0.448   2.745   2.365 -0.0485 -0.3188 -0.5445
 1657TIP3    H126386   0.496   2.795   2.431  0.2741 -1.3309 -0.0060
 1657TIP3    H226387   0.483   2.777   2.282  1.5958 -1.0491 -0.1560
 1658TIP3   OH226388   2.596   1.819  15.986  0.2944  0.1385  0.5949
 1658TIP3    H126389   2.510   1.851  16.014 -0.1015  0.8226 -1.2665
 1658TIP3    H226390   2.656   1.848  16.054 -0.6530  1.5086  0.8688
 1659TIP3   OH226391   0.688   2.060  13.393  0.1950 -0.0486  0.0239
 1659TIP3    H126392   0.676   2.114  13.471 -2.0365  0.2849 -0.5365
 1659TIP3    H226393   0.746   2.112  13.337  0.0143  0.6834  0.5117
 1660TIP3   OH226394   2.515   4.968   2.942  0.2368 -0.5880  0.3767
 1660TIP3    H126395   2.481   4.915   2.869 -0.2488 -0.6452  0.6417
 1660TIP3    H226396   2.594   5.009   2.907 -1.7896  2.0787 -1.3216
 1661TIP3   OH226397   4.990   2.875   2.923 -0.0499 -0.3042  0.0191
 1661TIP3    H126398   4.939   2.926   2.860 -0.4207  2.0947  2.1859
 1661TIP3    H226399   4.925   2.821   2.968 -0.6996  2.2586  2.3102
 1662TIP3   OH226400   2.694   5.861   1.617  0.1156  0.0354 -0.2119
 1662TIP3    H126401   2.754   5.936   1.620  1.1484 -0.7278 -1.5388
 1662TIP3    H226402   2.715   5.811   1.697  0.6333  0.2433 -0.2155
 1663TIP3   OH226403   5.485   0.959   5.234 -0.1150 -0.2110  0.4549
 1663TIP3    H126404   5.493   1.054   5.227 -1.9626  0.2237  3.0833
 1663TIP3    H226405   5.396   0.940   5.203  0.4794 -1.1770 -0.6922
 1664TIP3   OH226406   0.919   1.127  13.494  0.2502 -0.6729 -0.8036
 1664TIP3    H126407   0.829   1.149  13.519  0.7971  0.1489  0.5287
 1664TIP3    H226408   0.915   1.035  13.469 -1.1669 -0.3527 -1.8105
 1665TIP3   OH226409   0.253   1.402  12.364  0.1111  0.9252 -0.8012
 1665TIP3    H126410   0.159   1.405  12.346 -0.4836 -0.0387  1.8486
 1665TIP3    H226411   0.276   1.310  12.351 -0.1888  0.3438  2.3218
 1666TIP3   OH226412   3.698   5.854  13.605 -0.1729 -0.1274 -0.7299
 1666TIP3    H126413   3.770   5.917  13.614  2.3651 -2.9983  0.0310
 1666TIP3    H226414   3.660   5.848  13.693 -0.1112  0.0180 -0.6936
 1667TIP3   OH226415   2.225   0.057   4.225  0.0990  0.5068 -0.3252
 1667TIP3    H126416   2.143   0.030   4.184  0.6221 -0.6944 -0.6059
 1667TIP3    H226417   2.198   0.103   4.304 -0.8684  1.1983 -1.0579
 1668TIP3   OH226418   0.044   4.553   2.381 -0.0985 -0.9076 -0.3642
 1668TIP3    H126419   0.099   4.587   2.310  1.1224 -1.2273  0.4044
 1668TIP3    H226420   0.088   4.583   2.461 -0.8472 -1.4930  0.2729
 1669TIP3   OH226421   2.661   3.792  13.924  0.2205  0.6353 -0.3216
 1669TIP3    H126422   2.697   3.820  13.839  0.5975  0.8670 -0.0833
 1669TIP3    H226423   2.675   3.697  13.925  0.7332  0.7106 -0.2726
 1670TIP3   OH226424   0.654   5.672  13.612  0.2316 -0.2033  0.5244
 1670TIP3    H126425   0.648   5.667  13.708 -1.4406 -0.8940  0.3859
 1670TIP3    H226426   0.566   5.654  13.581  0.5424  1.0107 -1.1307
 1671TIP3   OH226427   0.185   0.097  11.827  0.4384 -0.1063  0.0392
 1671TIP3    H126428   0.252   0.035  11.798 -0.8711 -2.4759  1.8702
 1671TIP3    H226429   0.111   0.082  11.768  0.6469  0.8307 -0.4771
 1672TIP3   OH226430   6.393   2.542   4.346  0.1261  0.1520  0.0104
 1672TIP3    H126431   6.447   2.539   4.267 -0.3126  0.7722 -0.3124
 1672TIP3    H226432   6.323   2.603   4.325  0.1594  0.5282  0.9716
 1673TIP3   OH226433   3.134   4.496  12.230 -0.0515 -0.0367  0.4908
 1673TIP3    H126434   3.039   4.491  12.219 -0.1015 -1.0923  1.3285
 1673TIP3    H226435   3.147   4.564  12.297 -0.1652  0.6560 -0.1812
 1674TIP3   OH226436   3.577   2.646   1.313 -0.0793 -0.0614  0.2203
 1674TIP3    H126437   3.553   2.555   1.299 -0.9326 -0.1423  2.0781
 1674TIP3    H226438   3.555   2.690   1.230 -0.3938 -1.3764 -0.4077
 1675TIP3   OH226439   2.268   1.011   4.961  0.2310  0.0867  0.2115
 1675TIP3    H126440   2.312   1.001   4.877 -0.0165 -1.1494  0.2223
 1675TIP3    H226441   2.335   0.989   5.026 -1.0160 -4.3422  0.1607
 1676TIP3   OH226442   6.553   3.434   0.178 -0.4400  0.5151 -0.1519
 1676TIP3    H126443   6.495   3.503   0.209  0.3121  0.7865  0.6899
 1676TIP3    H226444   6.582   3.390   0.258  1.1209  0.8866 -0.4988
 1677TIP3   OH226445   2.646   2.710   1.963 -0.1781 -0.2888  0.7679
 1677TIP3    H126446   2.610   2.798   1.954  0.9882  0.0927 -0.1928
 1677TIP3    H226447   2.626   2.685   2.054  0.1332  1.2394  1.2616
 1678TIP3   OH226448   6.073   2.670   5.878 -0.3349 -0.0097  0.1577
 1678TIP3    H126449   6.128   2.704   5.947  0.6314 -2.4388  0.6509
 1678TIP3    H226450   5.984   2.688   5.907  0.0763 -0.4782  1.7647
 1679TIP3   OH226451   6.062   0.628   3.467  0.6692  0.3078 -0.4716
 1679TIP3    H126452   6.125   0.684   3.421 -1.8829  1.7420 -2.3366
 1679TIP3    H226453   6.046   0.673   3.550  0.1176  1.3493 -1.1315
 1680TIP3   OH226454   4.404   6.389  17.095  0.1929  0.1774  0.0670
 1680TIP3    H126455   4.341   6.367  17.027  0.0808  0.2631  0.1424
 1680TIP3    H226456   4.367   6.353  17.176 -1.1983  2.7562  0.6333
 1681TIP3   OH226457   3.597   1.332  14.540  0.3252  0.0211  0.0663
 1681TIP3    H126458   3.630   1.293  14.459  0.6956 -0.8042  0.6010
 1681TIP3    H226459   3.621   1.424  14.534  1.8121 -0.3624 -0.0238
 1682TIP3   OH226460   0.862   4.702   5.019 -0.0695 -0.4156 -0.0573
 1682TIP3    H126461   0.811   4.698   5.099 -0.2077  0.9997 -0.0678
 1682TIP3    H226462   0.875   4.795   5.002 -0.2029 -0.6809 -1.7802
 1683TIP3   OH226463   4.597   3.905   5.139  0.0701  0.0266 -0.4686
 1683TIP3    H126464   4.669   3.882   5.198 -0.3906  0.6056  0.3178
 1683TIP3    H226465   4.594   4.000   5.140 -0.3552  0.0218 -0.9381
 1684TIP3   OH226466   3.263   4.748  15.160 -0.0938 -0.1278  0.3470
 1684TIP3    H126467   3.310   4.777  15.081 -1.0761  3.3950  0.9627
 1684TIP3    H226468   3.333   4.724  15.222  0.7621  0.1393 -0.4999
 1685TIP3   OH226469   6.731   2.423  13.687  0.3299 -0.0942 -0.4392
 1685TIP3    H126470   6.763   2.402  13.775 -0.7003 -1.6645 -0.4062
 1685TIP3    H226471   6.807   2.455  13.640  1.5561 -2.0742  0.1438
 1686TIP3   OH226472   1.739   5.128   5.190 -0.1629 -0.4743  0.6832
 1686TIP3    H126473   1.784   5.111   5.107 -0.2814  0.7918  0.3537
 1686TIP3    H226474   1.802   5.101   5.257  0.2290 -0.7770  0.2019
 1687TIP3   OH226475   2.996   3.690   0.053 -0.6755 -0.2465  0.0955
 1687TIP3    H126476   3.024   3.600   0.033 -0.9358 -0.5581  1.0886
 1687TIP3    H226477   3.072   3.744   0.034  0.0258 -0.8768  1.0663
 1688TIP3   OH226478   1.366   6.614  10.864  0.1087  0.3524  0.4619
 1688TIP3    H126479   1.304   6.541  10.878  0.2155  0.0013 -0.7802
 1688TIP3    H226480   1.438   6.597  10.924 -0.0776 -0.3351  0.4938
 1689TIP3   OH226481   2.717   0.712   2.393 -0.3589 -0.0552 -0.0998
 1689TIP3    H126482   2.676   0.682   2.312 -0.7521 -0.4117  0.2290
 1689TIP3    H226483   2.811   0.694   2.380 -0.6406 -1.8521  0.2749
 1690TIP3   OH226484   2.725   5.746  10.443 -0.5034  0.7635  0.7928
 1690TIP3    H126485   2.723   5.689  10.520 -0.8458  0.5765  0.6417
 1690TIP3    H226486   2.668   5.703  10.379 -0.8182  1.3102  0.7068
 1691TIP3   OH226487   4.724   3.239   4.673 -0.0079  0.1003  0.2909
 1691TIP3    H126488   4.709   3.145   4.663 -0.0889 -0.1108  2.2260
 1691TIP3    H226489   4.674   3.279   4.601 -1.0222 -1.2514  0.2301
 1692TIP3   OH226490   5.439   0.437  12.229  0.0455  0.1750 -0.0428
 1692TIP3    H126491   5.343   0.440  12.228  0.0527  0.7587  0.7105
 1692TIP3    H226492   5.460   0.359  12.280 -0.0258  0.5437  0.5544
 1693TIP3   OH226493   0.685   4.235  17.115  0.7947  1.0288 -0.3763
 1693TIP3    H126494   0.636   4.235  17.033 -0.7712 -1.4741  0.4819
 1693TIP3    H226495   0.753   4.169  17.102 -0.0191 -0.0361  0.5970
 1694TIP3   OH226496   3.302   0.534  16.070  0.3458 -0.1342 -0.2992
 1694TIP3    H126497   3.292   0.446  16.106 -0.5877  0.3209  0.5693
 1694TIP3    H226498   3.363   0.577  16.129  1.0348 -0.2886 -0.8937
 1695TIP3   OH226499   1.613   4.386  13.561 -0.3406  0.6822 -0.2316
 1695TIP3    H126500   1.547   4.446  13.596 -0.5311  0.6479 -0.5303
 1695TIP3    H226501   1.672   4.441  13.511  0.0712  0.7642  0.3471
 1696TIP3   OH226502   4.961   3.169  15.736 -0.6361 -0.2308  0.0926
 1696TIP3    H126503   4.969   3.077  15.712 -0.2199 -0.2119  0.1599
 1696TIP3    H226504   4.911   3.208  15.664  0.2254 -0.2630 -0.5249
 1697TIP3   OH226505   0.672   2.352  16.726 -0.2150  0.4462  0.1185
 1697TIP3    H126506   0.693   2.443  16.749 -1.2459  1.2527 -2.0156
 1697TIP3    H226507   0.654   2.354  16.632  2.1042 -2.4161 -0.4509
 1698TIP3   OH226508   2.143   6.438  14.104  0.2002 -0.4769  0.3208
 1698TIP3    H126509   2.054   6.424  14.072  0.0302  1.8868 -0.3140
 1698TIP3    H226510   2.133   6.459  14.196  0.0705  0.1864  0.1543
 1699TIP3   OH226511   1.964   5.191   0.766 -0.3672 -0.2641  0.4975
 1699TIP3    H126512   1.917   5.133   0.706  1.6450  0.1172 -1.4952
 1699TIP3    H226513   2.026   5.134   0.811  0.0468 -0.0640  0.1833
 1700TIP3   OH226514   5.534   5.048   2.953  0.0745 -0.5333  0.2442
 1700TIP3    H126515   5.529   5.073   3.045 -0.3443  2.6563 -0.5732
 1700TIP3    H226516   5.627   5.051   2.932  0.1513 -1.0457  0.5268
 1701TIP3   OH226517   1.458   4.973   4.079 -0.6560  0.0852  0.4563
 1701TIP3    H126518   1.487   4.941   3.993  0.1855 -0.8015  1.0561
 1701TIP3    H226519   1.393   5.040   4.059 -0.5823 -0.2234 -0.8762
 1702TIP3   OH226520   4.785   4.708   0.003 -0.6212  0.2808 -0.7490
 1702TIP3    H126521   4.808   4.664   0.085 -1.5380  2.1748  0.5468
 1702TIP3    H226522   4.747   4.638  -0.051  1.9527 -1.4499 -0.4220
 1703TIP3   OH226523   2.570   3.288  16.228  0.4742 -0.2604 -0.6143
 1703TIP3    H126524   2.658   3.304  16.194 -0.6019  0.3947 -3.2157
 1703TIP3    H226525   2.516   3.278  16.149 -1.4097 -2.7218  0.9357
 1704TIP3   OH226526   2.194   0.198   4.460  0.0499 -0.2828  0.4847
 1704TIP3    H126527   2.175   0.128   4.523 -0.7017 -0.0669  0.5065
 1704TIP3    H226528   2.261   0.252   4.503 -0.2108 -0.3334  0.9551
 1705TIP3   OH226529   5.553   3.518  11.879 -0.8070  0.0580  0.2283
 1705TIP3    H126530   5.645   3.499  11.900 -0.7926  2.6364  2.9240
 1705TIP3    H226531   5.504   3.448  11.922 -0.3080  1.3626  3.0881
 1706TIP3   OH226532   3.685   0.849   1.611  0.6152  0.1589 -0.2971
 1706TIP3    H126533   3.641   0.917   1.663 -1.2229  1.0661 -2.9134
 1706TIP3    H226534   3.622   0.828   1.542  1.9842 -2.8010 -0.7254
 1707TIP3   OH226535   6.009   4.673   0.742  0.3517 -0.2203 -0.0603
 1707TIP3    H126536   6.048   4.760   0.745  0.4739 -0.3114  1.6069
 1707TIP3    H226537   5.915   4.688   0.740  0.3879 -0.0498 -0.5650
 1708TIP3   OH226538   6.222   1.392   3.265  0.2950 -0.4727 -0.0487
 1708TIP3    H126539   6.219   1.351   3.352  1.3027  1.4592  0.9438
 1708TIP3    H226540   6.297   1.352   3.222 -0.9484 -2.3457 -0.5243
 1709TIP3   OH226541   0.017   0.822  14.920  0.5025 -0.2631  0.4911
 1709TIP3    H126542   0.097   0.856  14.881 -0.6176  1.2895 -0.5198
 1709TIP3    H226543  -0.031   0.901  14.947 -1.0461 -1.1521  0.3585
 1710TIP3   OH226544   1.283   0.539   3.530 -0.0611 -0.1823 -0.2053
 1710TIP3    H126545   1.336   0.492   3.466  2.1703  1.6178  0.2659
 1710TIP3    H226546   1.310   0.631   3.521 -1.5410  0.4537  1.5593
 1711TIP3   OH226547   0.085   0.928  17.196 -0.1992 -0.3133 -0.4725
 1711TIP3    H126548   0.172   0.888  17.202  0.4401  1.1879  0.4405
 1711TIP3    H226549   0.078   0.957  17.105  0.0408 -0.9136 -0.6854
 1712TIP3   OH226550   5.192   4.217  14.201  0.3918  0.0140  0.1006
 1712TIP3    H126551   5.259   4.263  14.150  0.2775  0.6724  0.5261
 1712TIP3    H226552   5.114   4.272  14.192  0.2563 -0.0920  0.6329
 1713TIP3   OH226553   6.294   5.652  10.614  0.0354 -0.2519 -0.3018
 1713TIP3    H126554   6.259   5.728  10.660 -0.5169  0.2339 -1.4991
 1713TIP3    H226555   6.284   5.674  10.521  1.0147 -1.2583 -0.6599
 1714TIP3   OH226556   0.799   5.250   3.080 -0.2387  0.4090 -0.0501
 1714TIP3    H126557   0.809   5.325   3.138 -1.4506 -0.1264  0.8801
 1714TIP3    H226558   0.730   5.276   3.019 -0.3408  0.2177 -0.0155
 1715TIP3   OH226559   3.070   5.952   2.182  0.1994  0.0668 -0.1285
 1715TIP3    H126560   3.028   6.035   2.202  0.8050 -0.1517  2.0915
 1715TIP3    H226561   2.998   5.894   2.158 -0.3574  0.8204 -0.2893
 1716TIP3   OH226562   6.727   5.790  14.761 -0.0642 -0.5871  0.0552
 1716TIP3    H126563   6.692   5.879  14.759  2.1403  0.2713 -1.1927
 1716TIP3    H226564   6.651   5.735  14.741 -1.0364  1.1411 -1.1554
 1717TIP3   OH226565   6.685   6.550   1.860  0.4822 -0.1607  0.2071
 1717TIP3    H126566   6.707   6.622   1.920 -2.0574  0.9909 -0.1821
 1717TIP3    H226567   6.630   6.492   1.912 -1.2605  0.5455 -0.8339
 1718TIP3   OH226568   3.113   2.701   1.780  0.3159  0.9465  0.4145
 1718TIP3    H126569   3.048   2.766   1.751  1.0363  1.5285  0.0610
 1718TIP3    H226570   3.198   2.744   1.763  0.8257 -0.5994 -1.0630
 1719TIP3   OH226571   4.071   5.067  16.918 -0.0114 -0.4965  0.4124
 1719TIP3    H126572   4.154   5.067  16.871 -0.5435  0.2384 -0.5458
 1719TIP3    H226573   4.012   5.016  16.862 -0.8962  1.1480 -0.1705
 1720TIP3   OH226574   2.124   4.700  10.239 -0.1594  0.3246  0.7851
 1720TIP3    H126575   2.152   4.611  10.260  1.5072  0.3838 -1.0782
 1720TIP3    H226576   2.191   4.756  10.277 -1.2945  0.8135  2.0981
 1721TIP3   OH226577   4.287   5.852   4.273  0.4674  1.4017  0.3006
 1721TIP3    H126578   4.351   5.842   4.203 -0.6099  1.4599 -0.7146
 1721TIP3    H226579   4.227   5.919   4.241 -0.1499  1.2932  1.2047
 1722TIP3   OH226580   1.208   4.023  14.111 -0.2113 -0.4400 -0.5109
 1722TIP3    H126581   1.214   3.935  14.148 -1.6106 -0.0038  0.7692
 1722TIP3    H226582   1.173   4.077  14.181  1.8477  1.4298 -0.8547
 1723TIP3   OH226583   6.708   2.919  12.099 -0.4924 -0.2690 -0.7998
 1723TIP3    H126584   6.700   2.886  12.189  1.1309  0.0836 -0.5182
 1723TIP3    H226585   6.711   2.840  12.045 -0.1292 -0.5079 -0.4306
 1724TIP3   OH226586   2.652   0.973  16.764 -0.6261  0.4978 -0.1776
 1724TIP3    H126587   2.625   0.939  16.678  0.3206 -0.0995 -0.2424
 1724TIP3    H226588   2.569   0.986  16.810 -1.0504 -1.7463 -0.2240
 1725TIP3   OH226589   0.898   4.419   3.305  0.0096 -0.5660 -0.1047
 1725TIP3    H126590   0.834   4.354   3.276  0.2630  0.3728 -2.9087
 1725TIP3    H226591   0.845   4.495   3.328 -0.0835 -0.8247  0.5609
 1726TIP3   OH226592   4.991   4.132  12.535  0.2734 -0.2780 -0.0109
 1726TIP3    H126593   4.905   4.171  12.520  1.0786  2.7280  2.5798
 1726TIP3    H226594   4.972   4.041  12.560 -1.9912 -0.1400 -1.0715
 1727TIP3   OH226595   5.460   2.874  12.971 -0.3151 -0.1543 -0.0641
 1727TIP3    H126596   5.547   2.836  12.985 -0.0791  0.9895  1.7280
 1727TIP3    H226597   5.411   2.806  12.924  1.3054 -1.1097 -0.3843
 1728TIP3   OH226598   6.517   5.709  13.782 -0.8236  0.5570  0.0780
 1728TIP3    H126599   6.596   5.721  13.729 -1.3451  0.5006 -0.7247
 1728TIP3    H226600   6.445   5.731  13.723 -1.5165 -1.3008  0.1865
 1729TIP3   OH226601   3.434   6.211   5.680  0.3729 -0.3542  0.1445
 1729TIP3    H126602   3.349   6.243   5.651 -0.3245 -2.0435  0.2673
 1729TIP3    H226603   3.423   6.117   5.688  1.7288 -0.4050  1.9105
 1730TIP3   OH226604   2.067   4.973   1.871 -0.0940  0.1518  0.5143
 1730TIP3    H126605   2.104   5.002   1.787  0.4398 -1.4792  0.1592
 1730TIP3    H226606   2.001   4.909   1.847  0.1071 -0.3705  1.3442
 1731TIP3   OH226607   1.516   1.750   3.323 -0.0484 -0.1966  0.1848
 1731TIP3    H126608   1.434   1.740   3.372 -0.7006  3.1031 -0.1160
 1731TIP3    H226609   1.499   1.706   3.239 -0.9845 -0.7652  0.6583
 1732TIP3   OH226610   1.101   5.472  11.653  0.2119  0.1398  0.5505
 1732TIP3    H126611   1.035   5.402  11.650  0.3972 -0.1086  1.8448
 1732TIP3    H226612   1.175   5.432  11.698  0.6083  0.9334  0.5988
 1733TIP3   OH226613   3.545   4.178   5.687  0.0872  0.4803 -0.3348
 1733TIP3    H126614   3.469   4.218   5.645 -0.8579 -0.9106  0.0209
 1733TIP3    H226615   3.529   4.083   5.681  1.7753  0.1667 -0.2298
 1734TIP3   OH226616   3.888   2.749  15.452 -0.1923 -0.0595  0.0757
 1734TIP3    H126617   3.914   2.773  15.363 -0.6924  1.8618  0.4039
 1734TIP3    H226618   3.800   2.787  15.461 -0.4323 -0.8591  1.1374
 1735TIP3   OH226619   4.303   3.896  15.677  0.0304 -0.4702 -0.0723
 1735TIP3    H126620   4.216   3.937  15.674  0.4174  0.2400 -2.4182
 1735TIP3    H226621   4.334   3.915  15.766 -1.1462  1.5333 -0.0304
 1736TIP3   OH226622   2.690   2.625  11.353 -0.2229 -0.0728  0.5010
 1736TIP3    H126623   2.722   2.694  11.294 -0.6343 -0.8686 -0.6673
 1736TIP3    H226624   2.672   2.671  11.435 -0.2967  1.1810 -0.2003
 1737TIP3   OH226625   0.247   2.142  13.722  0.1931 -0.5534 -0.2524
 1737TIP3    H126626   0.186   2.103  13.660 -0.2748  0.1649 -0.2548
 1737TIP3    H226627   0.238   2.089  13.801 -0.1771 -0.6727 -0.3699
 1738TIP3   OH226628   0.440   4.766  13.795  0.0547  0.0174  0.4091
 1738TIP3    H126629   0.383   4.750  13.870 -1.2317  1.2489 -0.2833
 1738TIP3    H226630   0.388   4.821  13.736  0.4238 -2.1953 -2.1138
 1739TIP3   OH226631   3.910   2.052   5.993  0.0542  0.4026  0.0892
 1739TIP3    H126632   3.897   2.098   6.076  1.3091 -0.0034  0.5305
 1739TIP3    H226633   3.877   1.963   6.009 -0.0534  0.4323  0.0319
 1740TIP3   OH226634   2.478   4.097  15.632 -0.1653 -0.0291 -0.6279
 1740TIP3    H126635   2.462   4.055  15.717  0.9753  1.2677  0.2376
 1740TIP3    H226636   2.570   4.078  15.612 -0.2372  0.2617 -1.2571
 1741TIP3   OH226637   0.140   0.178  12.956  0.5814  0.4591  0.1716
 1741TIP3    H126638   0.218   0.160  12.904  0.8522  0.7056  0.4925
 1741TIP3    H226639   0.171   0.235  13.026  0.4427 -0.8656  1.3077
 1742TIP3   OH226640   4.968   4.699  12.787 -0.0073  0.0279  0.3556
 1742TIP3    H126641   5.050   4.742  12.812 -0.5079  0.5642  1.1121
 1742TIP3    H226642   4.953   4.635  12.857  0.4749 -1.0278 -0.5014
 1743TIP3   OH226643   1.246   1.213  14.824  0.0394  0.0505  0.3321
 1743TIP3    H126644   1.319   1.274  14.819  0.7956 -0.8116  0.5601
 1743TIP3    H226645   1.281   1.131  14.787 -0.4235 -0.7196  1.5657
 1744TIP3   OH226646   1.536   5.947   0.378 -0.3612  0.1489  0.1310
 1744TIP3    H126647   1.618   5.987   0.408  0.4091 -1.7870  0.7143
 1744TIP3    H226648   1.505   6.005   0.309  0.8185  1.6227  0.7982
 1745TIP3   OH226649   3.348   4.207  12.926 -0.5843 -0.2810  0.2476
 1745TIP3    H126650   3.346   4.249  13.012 -3.3986  0.7964 -0.3188
 1745TIP3    H226651   3.296   4.263  12.870 -1.6967 -2.8148 -1.3372
 1746TIP3   OH226652   4.279   3.583  14.221 -0.2107 -0.0405 -0.2164
 1746TIP3    H126653   4.365   3.624  14.226 -1.1594  2.0222 -0.0885
 1746TIP3    H226654   4.292   3.494  14.253  1.5269  0.7750  1.3847
 1747TIP3   OH226655   6.598   3.384  14.992 -0.1900  0.3689 -0.1561
 1747TIP3    H126656   6.677   3.380  14.938 -0.2948  0.8081 -0.3483
 1747TIP3    H226657   6.542   3.314  14.959  0.2849 -0.2085  0.2477
 1748TIP3   OH226658   4.564   4.066   4.051  0.0514 -0.4407 -0.3743
 1748TIP3    H126659   4.628   4.101   3.988 -1.1781 -1.0970 -2.0417
 1748TIP3    H226660   4.491   4.038   3.996 -2.0987  1.2440  1.5822
 1749TIP3   OH226661   2.787   5.769   0.630 -0.1600  0.1787  0.5092
 1749TIP3    H126662   2.825   5.763   0.718 -1.7761 -0.5198  1.1827
 1749TIP3    H226663   2.839   5.708   0.577  3.1629  3.2101  0.0575
 1750TIP3   OH226664   6.498   4.209  11.585 -0.2027 -0.4051  0.2411
 1750TIP3    H126665   6.450   4.264  11.523  0.3277 -1.3340 -1.0135
 1750TIP3    H226666   6.431   4.167  11.638 -0.6800 -0.0045 -0.0440
 1751TIP3   OH226667   5.971   5.901  15.637 -0.1529  0.5326 -0.2868
 1751TIP3    H126668   5.983   5.809  15.612 -0.0420  0.6167 -0.5479
 1751TIP3    H226669   6.054   5.943  15.614 -0.0413  0.6052  0.2623
 1752TIP3   OH226670   5.806   5.989  11.412 -0.4581  0.8741 -0.1171
 1752TIP3    H126671   5.759   6.063  11.376  0.1020  1.6376  0.7052
 1752TIP3    H226672   5.882   6.027  11.456  0.8078 -0.3038 -1.2023
 1753TIP3   OH226673   1.035   6.636   1.363 -0.1598  0.3271  0.1081
 1753TIP3    H126674   0.984   6.577   1.419  1.2054 -3.0423 -2.0733
 1753TIP3    H226675   1.114   6.653   1.414 -0.1826 -0.3947  0.3919
 1754TIP3   OH226676   6.438   3.417  11.446  0.3237 -0.0995  0.0322
 1754TIP3    H126677   6.370   3.421  11.514  0.4609  0.7592  0.1348
 1754TIP3    H226678   6.510   3.369  11.487  0.3963  0.3953  0.4942
 1755TIP3   OH226679   4.924   4.799   6.122  0.3742  0.1039 -0.3598
 1755TIP3    H126680   4.912   4.891   6.143 -0.0473  0.0074 -0.1535
 1755TIP3    H226681   5.017   4.790   6.104  0.5122  0.4622  0.1572
 1756TIP3   OH226682   4.908   0.163  14.520 -0.4088 -0.3071 -0.3755
 1756TIP3    H126683   4.899   0.105  14.595 -1.3915  0.4910  0.1365
 1756TIP3    H226684   4.889   0.107  14.444  0.1411 -1.0060 -0.0000
 1757TIP3   OH226685   1.594   4.444   5.685 -0.4253 -0.0747  0.1427
 1757TIP3    H126686   1.633   4.419   5.601  2.5191  1.8208  0.8595
 1757TIP3    H226687   1.559   4.363   5.721 -0.2503 -1.2107 -2.1797
 1758TIP3   OH226688   2.699   3.384  15.189 -0.3540 -0.2624  0.1226
 1758TIP3    H126689   2.627   3.440  15.159  0.3176  0.6777  0.2691
 1758TIP3    H226690   2.778   3.435  15.172  0.1396 -0.3605  2.0447
 1759TIP3   OH226691   0.592   4.894   4.993 -0.5603 -0.0644 -0.5504
 1759TIP3    H126692   0.551   4.969   5.036 -1.0371 -0.5457 -0.1563
 1759TIP3    H226693   0.682   4.921   4.979 -0.5417  0.3110  0.2468
 1760TIP3   OH226694   0.011   5.009   5.823  0.2334 -0.1524  0.1153
 1760TIP3    H126695   0.091   5.031   5.869  0.2406 -0.2604  0.1549
 1760TIP3    H226696  -0.025   4.935   5.871 -0.2037  0.2769  0.4558
 1761TIP3   OH226697   6.728   1.003   3.500  0.3616  0.7633 -0.0455
 1761TIP3    H126698   6.773   1.015   3.416 -0.7350  1.3167 -0.5591
 1761TIP3    H226699   6.693   1.090   3.521  0.1463  0.4987  0.7073
 1762TIP3   OH226700   6.489   2.285   2.542  0.3084  0.2638  0.0080
 1762TIP3    H126701   6.469   2.259   2.452  0.7734 -0.1520  0.0266
 1762TIP3    H226702   6.418   2.247   2.594 -0.1674  0.8225 -0.2251
 1763TIP3   OH226703   5.406   6.242  16.319  0.2460 -0.2391 -0.1405
 1763TIP3    H126704   5.331   6.265  16.264  0.2814  1.9410  0.6730
 1763TIP3    H226705   5.368   6.218  16.404  0.3772 -0.8014 -0.2365
 1764TIP3   OH226706   1.468   3.284   4.684 -0.1539  0.0332  0.1219
 1764TIP3    H126707   1.456   3.274   4.590 -0.1444 -0.5993  0.1846
 1764TIP3    H226708   1.484   3.195   4.716 -1.9281 -0.0148  0.9596
 1765TIP3   OH226709   2.243   4.449   5.377  0.4881 -0.3198 -0.0108
 1765TIP3    H126710   2.254   4.438   5.282  0.6151  2.0484 -0.2823
 1765TIP3    H226711   2.148   4.448   5.390  0.4600 -0.1649 -0.2086
 1766TIP3   OH226712   2.845   6.718  14.057  0.7245  0.4291 -0.6161
 1766TIP3    H126713   2.753   6.740  14.041  0.4632 -1.4217 -1.8093
 1766TIP3    H226714   2.870   6.773  14.131 -2.1486 -1.0179  1.5519
 1767TIP3   OH226715   4.827   2.670   3.079  0.3100 -0.1168  1.1477
 1767TIP3    H126716   4.800   2.609   3.148  1.6349  0.2107  1.9914
 1767TIP3    H226717   4.917   2.643   3.058  0.0795  0.0867 -0.1159
 1768TIP3   OH226718   6.007   0.836   5.685 -0.4423 -0.5796  0.0956
 1768TIP3    H126719   6.042   0.893   5.754  0.3468 -0.3013 -0.5280
 1768TIP3    H226720   6.083   0.815   5.630 -0.9119 -1.4651 -0.2191
 1769TIP3   OH226721   4.392   6.583   4.576 -0.0045 -0.1639  0.0151
 1769TIP3    H126722   4.301   6.565   4.554  0.0858  0.5015 -0.9433
 1769TIP3    H226723   4.389   6.623   4.663 -0.5667 -0.7621  0.2697
 1770TIP3   OH226724   4.844   4.433  15.618 -0.3711 -0.1095  0.4063
 1770TIP3    H126725   4.876   4.513  15.577  0.5727  0.6509  2.5257
 1770TIP3    H226726   4.857   4.365  15.552  0.1269  1.2330 -0.9100
 1771TIP3   OH226727   5.406   0.404  15.442 -0.2551  0.7081 -0.5957
 1771TIP3    H126728   5.342   0.441  15.503 -0.9402 -0.6917 -0.4629
 1771TIP3    H226729   5.489   0.443  15.469 -0.5277  0.0244  1.3304
 1772TIP3   OH226730   0.350   2.204   0.265 -0.2127  0.3628  0.2060
 1772TIP3    H126731   0.286   2.154   0.315 -0.9841  3.5026  2.5840
 1772TIP3    H226732   0.310   2.218   0.180 -0.8995 -1.1942  0.2753
 1773TIP3   OH226733   4.177   5.126   3.758  0.0117  0.0331  0.3359
 1773TIP3    H126734   4.209   5.159   3.841  0.7606  0.0674  0.0356
 1773TIP3    H226735   4.248   5.143   3.696  0.1132 -1.4456  0.0257
 1774TIP3   OH226736   4.047   3.979   3.863 -0.1665 -0.2494  0.8519
 1774TIP3    H126737   4.076   4.013   3.947  1.1915  1.5008 -0.2715
 1774TIP3    H226738   4.119   3.924   3.833  0.7005  1.5324 -0.4862
 1775TIP3   OH226739   3.420   5.825   5.239 -0.2559 -0.3798  0.1089
 1775TIP3    H126740   3.503   5.779   5.229 -0.4901 -1.2297  1.7663
 1775TIP3    H226741   3.378   5.782   5.314 -1.7272  0.7113 -0.0628
 1776TIP3   OH226742   4.892   0.799   4.720 -0.5899 -0.1899  0.3765
 1776TIP3    H126743   4.956   0.779   4.652  0.7220 -0.7351  1.7267
 1776TIP3    H226744   4.944   0.843   4.788 -2.4044  3.0338 -0.2265
 1777TIP3   OH226745   0.687   3.823   4.841  0.0568  0.3416 -0.5441
 1777TIP3    H126746   0.747   3.896   4.855 -0.4631  1.3446 -3.2591
 1777TIP3    H226747   0.600   3.861   4.857 -0.0647 -0.3158  0.3797
 1778TIP3   OH226748   4.751   6.309  12.776 -0.0114 -0.1218 -0.2963
 1778TIP3    H126749   4.832   6.259  12.781 -0.2818 -0.7780 -2.0362
 1778TIP3    H226750   4.758   6.358  12.694  0.6469  3.4545  1.7975
 1779TIP3   OH226751   3.591   0.789  10.971 -0.0614  0.2744  0.4556
 1779TIP3    H126752   3.672   0.776  11.021  0.3019  0.2669 -0.1333
 1779TIP3    H226753   3.584   0.884  10.960 -0.5943  0.3370  1.2548
 1780TIP3   OH226754   6.644   3.642   5.894 -0.1359  0.4586 -0.7721
 1780TIP3    H126755   6.679   3.722   5.855  1.3579 -0.1265 -0.6502
 1780TIP3    H226756   6.677   3.571   5.838  1.2423 -0.3082  0.9503
 1781TIP3   OH226757   0.851   1.606  13.541 -0.1202 -0.0178 -0.0119
 1781TIP3    H126758   0.846   1.553  13.621 -0.5444 -2.6364 -1.6936
 1781TIP3    H226759   0.824   1.693  13.568  2.1393 -0.2159  3.2234
 1782TIP3   OH226760   0.984   1.377   3.241  0.3083 -0.6136  0.1282
 1782TIP3    H126761   1.005   1.354   3.331 -1.7597 -1.0077  0.5144
 1782TIP3    H226762   0.911   1.439   3.247 -0.4187 -1.3051 -1.3025
 1783TIP3   OH226763   1.983   2.724   2.962  0.3653 -0.2481 -0.1205
 1783TIP3    H126764   1.935   2.725   2.879 -1.8883 -0.9369  1.1679
 1783TIP3    H226765   2.032   2.642   2.960 -0.9066 -1.0164 -0.0932
 1784TIP3   OH226766   4.562   4.767  16.195 -0.4573 -0.2405 -0.1339
 1784TIP3    H126767   4.541   4.678  16.222  0.9429  0.0191  1.9344
 1784TIP3    H226768   4.634   4.756  16.132 -0.0472 -0.5470  0.3877
 1785TIP3   OH226769   4.750   1.872   4.094  0.1169 -0.3033  0.3901
 1785TIP3    H126770   4.723   1.906   4.179  0.6931 -0.5959  0.6920
 1785TIP3    H226771   4.732   1.778   4.099  2.4544 -0.7306  1.0962
 1786TIP3   OH226772   6.603   1.473   2.675 -0.2595  0.1401 -0.0907
 1786TIP3    H126773   6.687   1.496   2.634 -1.4832  2.4073 -1.5059
 1786TIP3    H226774   6.547   1.449   2.601 -1.5921  1.1582  0.5745
 1787TIP3   OH226775   2.626   5.393  11.085 -0.4703  0.3729 -0.4320
 1787TIP3    H126776   2.700   5.332  11.086 -1.7703 -1.2514 -1.7723
 1787TIP3    H226777   2.613   5.413  10.993  0.1874  3.0358  0.0113
 1788TIP3   OH226778   0.447   4.785  16.506  0.0542  0.1499  0.0655
 1788TIP3    H126779   0.422   4.855  16.446  2.2829  0.3923 -0.6287
 1788TIP3    H226780   0.389   4.796  16.581 -1.8078  0.7303 -1.4067
 1789TIP3   OH226781   2.350   4.646   4.929 -0.3390 -0.5873  0.0769
 1789TIP3    H126782   2.347   4.741   4.933  1.1788 -0.5420  0.5676
 1789TIP3    H226783   2.333   4.625   4.837  1.1340  0.2566 -0.4045
 1790TIP3   OH226784   4.335   4.286   0.790 -0.0156  0.2775  0.7637
 1790TIP3    H126785   4.241   4.296   0.804 -0.1596  1.4058 -0.7859
 1790TIP3    H226786   4.372   4.372   0.812  0.4512  0.2778  0.0065
 1791TIP3   OH226787   3.310   4.129   2.365 -0.4293 -0.1407 -0.1149
 1791TIP3    H126788   3.334   4.054   2.420  0.6235 -0.8881 -1.5577
 1791TIP3    H226789   3.382   4.191   2.376 -0.9400  0.3390  0.5021
 1792TIP3   OH226790   2.027   4.429   2.064 -0.1154 -0.5248 -0.2104
 1792TIP3    H126791   2.018   4.415   1.970  0.8778  0.2978 -0.4362
 1792TIP3    H226792   2.052   4.521   2.073  1.5569 -1.0426  0.7294
 1793TIP3   OH226793   0.279   5.321  15.062  0.0358 -0.3437 -0.5557
 1793TIP3    H126794   0.187   5.319  15.036 -0.1270 -1.1142  0.0409
 1793TIP3    H226795   0.323   5.264  14.999  0.2781  0.8053 -1.4448
 1794TIP3   OH226796   4.726   4.575   4.691 -0.1911 -0.1954  0.0474
 1794TIP3    H126797   4.666   4.544   4.623  0.8976 -1.5125 -0.3343
 1794TIP3    H226798   4.706   4.522   4.768  0.0174 -0.1542  0.1321
 1795TIP3   OH226799   2.908   2.443  12.676  0.0469  0.3122 -0.2691
 1795TIP3    H126800   2.852   2.384  12.728 -0.1701  0.0262 -0.8204
 1795TIP3    H226801   2.860   2.454  12.594  0.6586  0.3278 -0.6184
 1796TIP3   OH226802   3.945   0.980   1.149  0.0938 -0.7438 -0.1139
 1796TIP3    H126803   3.875   0.989   1.214  0.2171 -0.3092 -0.0427
 1796TIP3    H226804   3.949   1.065   1.105  2.3092  0.1133  1.6383
 1797TIP3   OH226805   2.689   0.604   3.295  0.5533 -0.1009 -0.2106
 1797TIP3    H126806   2.605   0.557   3.292  0.2936  0.2936  0.7407
 1797TIP3    H226807   2.667   0.692   3.266  0.6005  0.0610  0.2467
 1798TIP3   OH226808   6.705   3.449  11.877  0.4380 -0.6409  0.7383
 1798TIP3    H126809   6.666   3.379  11.825 -0.8096  0.8756 -0.4166
 1798TIP3    H226810   6.798   3.448  11.854 -0.1114  0.0711 -1.6317
 1799TIP3   OH226811   0.529   4.289  15.671 -0.0531 -0.2803  0.4257
 1799TIP3    H126812   0.533   4.367  15.726  1.0048 -0.2330  0.2917
 1799TIP3    H226813   0.445   4.295  15.627  1.1771  2.2315 -1.7090
 1800TIP3   OH226814   1.666   2.100   1.407 -0.5076 -0.2310  0.3716
 1800TIP3    H126815   1.699   2.122   1.495  0.8665 -0.5767 -0.0507
 1800TIP3    H226816   1.688   2.008   1.396  0.7422  0.2060 -0.9519
 1801TIP3   OH226817   3.882   3.652   4.656 -0.4229  0.1625 -0.3050
 1801TIP3    H126818   3.850   3.707   4.584 -0.5696 -0.8069 -0.9936
 1801TIP3    H226819   3.843   3.566   4.639  0.8422 -0.4862  0.0464
 1802TIP3   OH226820   1.451   2.964  13.361  0.0710 -0.0176 -0.6216
 1802TIP3    H126821   1.545   2.961  13.346  0.2588  0.5055  0.4128
 1802TIP3    H226822   1.436   2.901  13.431 -0.0554  1.4030  0.6427
 1803TIP3   OH226823   3.443   0.843  14.808 -0.1202  0.1281 -0.3371
 1803TIP3    H126824   3.495   0.837  14.728  1.4465  1.0832  0.5994
 1803TIP3    H226825   3.377   0.774  14.797  1.1031 -0.8858 -1.6995
 1804TIP3   OH226826   3.546   3.328   0.134  0.5738 -0.5964  0.9169
 1804TIP3    H126827   3.623   3.383   0.146  0.5897 -0.3184 -0.3234
 1804TIP3    H226828   3.479   3.388   0.103  0.5495 -1.2359 -0.3196
 1805TIP3   OH226829   1.431   2.799  10.881  0.8284 -0.1662 -0.2194
 1805TIP3    H126830   1.402   2.759  10.799  1.4665 -0.7555 -0.1598
 1805TIP3    H226831   1.386   2.884  10.883 -0.2373 -0.7155 -0.5204
 1806TIP3   OH226832   0.785   3.032  11.400  0.2740  0.4227  0.6756
 1806TIP3    H126833   0.793   3.083  11.480 -0.8497  2.1701 -0.2824
 1806TIP3    H226834   0.846   3.073  11.339 -0.3433  0.3947  0.0294
 1807TIP3   OH226835   4.020   0.779  10.662  0.2691  0.1625  0.4878
 1807TIP3    H126836   4.030   0.808  10.753 -1.2306 -1.0189  1.0597
 1807TIP3    H226837   3.934   0.737  10.660  1.1116 -1.5682 -0.9970
 1808TIP3   OH226838   4.890   1.972   3.636 -0.1053 -0.0765  0.3744
 1808TIP3    H126839   4.805   2.017   3.643 -0.1775 -0.3502  1.3819
 1808TIP3    H226840   4.951   2.041   3.609 -0.6841  0.0758 -0.5673
 1809TIP3   OH226841   4.400   0.073  13.629  0.4808  0.8312 -0.3910
 1809TIP3    H126842   4.327   0.112  13.580  1.7324  1.6261 -1.6310
 1809TIP3    H226843   4.397   0.117  13.714 -1.5139 -0.3437  0.1815
 1810TIP3   OH226844   1.312   0.767   6.431 -0.3353  1.0491  0.1270
 1810TIP3    H126845   1.349   0.680   6.445  0.7076  1.1484 -1.8068
 1810TIP3    H226846   1.225   0.764   6.471  0.4799 -0.2302  1.8516
 1811TIP3   OH226847   0.527   0.956  13.645 -0.2882  0.9114  0.4822
 1811TIP3    H126848   0.592   0.947  13.575 -1.2220 -1.2411 -0.1453
 1811TIP3    H226849   0.534   1.048  13.673  0.8959  1.4959 -1.6405
 1812TIP3   OH226850   5.308   1.030  11.455 -0.4753 -0.8228 -0.4707
 1812TIP3    H126851   5.258   0.976  11.517 -0.8406  1.5697  1.3640
 1812TIP3    H226852   5.399   1.006  11.471 -0.5713 -0.2499  0.9592
 1813TIP3   OH226853   3.787   3.614  13.774 -0.2215  0.5656 -0.1427
 1813TIP3    H126854   3.825   3.699  13.751  0.6079 -0.2016 -1.6729
 1813TIP3    H226855   3.862   3.558  13.793 -0.8238  0.5987  2.5306
 1814TIP3   OH226856   5.185   2.415   6.030 -0.7049 -0.4641  0.0917
 1814TIP3    H126857   5.251   2.469   6.074 -0.2102  1.0106 -2.3884
 1814TIP3    H226858   5.104   2.466   6.038 -0.4736  0.1397 -1.2530
 1815TIP3   OH226859   5.485   2.135  10.525 -0.1205  0.3021 -0.7945
 1815TIP3    H126860   5.548   2.127  10.596  0.6383  0.0717 -1.4797
 1815TIP3    H226861   5.532   2.105  10.447 -0.8955  0.6597 -1.4171
 1816TIP3   OH226862   0.057   0.790  10.418  0.7476 -0.2201  0.1224
 1816TIP3    H126863   0.092   0.864  10.368 -0.5510 -0.5341 -1.2930
 1816TIP3    H226864  -0.037   0.793  10.402  0.1281  0.3969  3.5967
 1817TIP3   OH226865   4.566   1.550  13.937  0.2353  0.2804 -0.2971
 1817TIP3    H126866   4.613   1.628  13.966  2.3784 -1.1147  0.1462
 1817TIP3    H226867   4.500   1.534  14.005  1.4288  0.3142  0.8891
 1818TIP3   OH226868   2.338   5.335   3.027 -0.0297 -0.1228 -0.2139
 1818TIP3    H126869   2.414   5.364   2.977 -0.1659  1.2368  0.3520
 1818TIP3    H226870   2.322   5.246   2.996  1.3352 -0.1577 -0.8714
 1819TIP3   OH226871   0.270   4.384  12.264  0.0901  0.2417  0.2697
 1819TIP3    H126872   0.282   4.443  12.189  1.3514  0.6083  0.7371
 1819TIP3    H226873   0.232   4.305  12.227  2.5034 -0.3258 -1.0784
 1820TIP3   OH226874   4.177   3.855   5.807 -0.1497  0.4834 -0.0681
 1820TIP3    H126875   4.087   3.840   5.777 -0.5191 -0.4999  1.4432
 1820TIP3    H226876   4.204   3.771   5.843  0.5208  1.3959  1.6264
 1821TIP3   OH226877   5.770   3.544  16.762  0.2715 -0.0303 -0.1598
 1821TIP3    H126878   5.748   3.471  16.819 -0.9862 -0.0301 -0.6433
 1821TIP3    H226879   5.856   3.520  16.725  0.4780 -0.6330  0.7030
 1822TIP3   OH226880   4.319   2.797   4.897 -0.2481  0.1847 -0.0410
 1822TIP3    H126881   4.237   2.792   4.847  0.4040 -0.0417 -1.0939
 1822TIP3    H226882   4.382   2.834   4.836 -0.2917  3.2296  1.7116
 1823TIP3   OH226883   6.334   1.563  15.485 -0.6409  0.4507 -0.2121
 1823TIP3    H126884   6.329   1.468  15.487 -2.1553  0.5412  1.2640
 1823TIP3    H226885   6.318   1.586  15.393  0.9878 -0.7514 -0.8174
 1824TIP3   OH226886   5.624   0.323  10.126 -0.4705 -0.1471  0.4962
 1824TIP3    H126887   5.584   0.307  10.041 -1.2294  1.0802  0.6113
 1824TIP3    H226888   5.651   0.414  10.123  0.5246 -0.4170  1.1584
 1825TIP3   OH226889   2.927   3.397  11.189 -0.0787 -0.3423 -0.2218
 1825TIP3    H126890   2.980   3.427  11.263 -0.6469 -1.3367  0.6084
 1825TIP3    H226891   2.886   3.476  11.155 -2.4403 -0.2310  2.6161
 1826TIP3   OH226892   3.743   0.181  16.453  0.3261  0.2882  0.2108
 1826TIP3    H126893   3.676   0.124  16.416 -1.0683  1.4491  0.8867
 1826TIP3    H226894   3.725   0.181  16.547  0.8819  1.0947  0.3205
 1827TIP3   OH226895   0.290   3.122  13.697  1.0028 -0.1129 -0.2101
 1827TIP3    H126896   0.208   3.076  13.714  2.3776 -1.9904  1.5298
 1827TIP3    H226897   0.319   3.089  13.612 -0.8142  1.7762 -1.6203
 1828TIP3   OH226898   2.871   4.559  14.451  0.0987 -0.2318 -0.1454
 1828TIP3    H126899   2.897   4.523  14.366  0.2678  1.3318 -0.7640
 1828TIP3    H226900   2.890   4.653  14.444 -2.3411  0.3528  0.6741
 1829TIP3   OH226901   6.314   3.552   3.825  0.1111  0.2661  0.6947
 1829TIP3    H126902   6.295   3.630   3.773  1.5482 -0.7471 -1.3951
 1829TIP3    H226903   6.250   3.554   3.896  1.3601  4.3724  1.8064
 1830TIP3   OH226904   5.731   1.382  14.157  0.2900  0.5072  0.1377
 1830TIP3    H126905   5.703   1.295  14.187  0.9599  1.0399  2.4315
 1830TIP3    H226906   5.661   1.412  14.100 -0.3144 -1.2169 -0.0575
 1831TIP3   OH226907   2.753   1.433  16.114  0.9076 -0.3548  0.3165
 1831TIP3    H126908   2.704   1.446  16.195 -0.3088 -0.6827 -0.3457
 1831TIP3    H226909   2.699   1.474  16.047  2.6526  1.2724 -0.1176
 1832TIP3   OH226910   1.827   4.665  12.658  0.5419 -0.7207 -0.2962
 1832TIP3    H126911   1.784   4.727  12.599 -1.8605 -0.9672  1.1335
 1832TIP3    H226912   1.787   4.580  12.637  1.4331 -1.2230  0.0160
 1833TIP3   OH226913   5.989   1.483   4.228  0.2338  0.8070 -0.2480
 1833TIP3    H126914   6.029   1.552   4.174 -0.2346  2.0495  0.9534
 1833TIP3    H226915   5.902   1.469   4.189  0.6308  0.3290 -0.9678
 1834TIP3   OH226916   1.566   0.505  11.562  0.2565 -0.1834  0.2154
 1834TIP3    H126917   1.612   0.474  11.639  1.0111 -1.0763 -0.5822
 1834TIP3    H226918   1.596   0.595  11.551 -0.4095  0.1892  1.3738
 1835TIP3   OH226919   5.304   1.073  12.335 -0.3093  0.4977 -0.0980
 1835TIP3    H126920   5.374   1.023  12.377  2.2089  1.7066 -2.6397
 1835TIP3    H226921   5.293   1.150  12.389  2.1251  1.5089 -0.9824
 1836TIP3   OH226922   2.542   5.020  12.527  0.1344 -0.4314 -0.2591
 1836TIP3    H126923   2.579   4.998  12.613  0.9524 -0.5550 -0.6413
 1836TIP3    H226924   2.531   5.115  12.529 -0.1702 -0.4734  0.1088
 1837TIP3   OH226925   0.642   0.874   1.147 -0.1959  0.7755  0.0924
 1837TIP3    H126926   0.714   0.841   1.093  0.1090 -0.0466  0.9849
 1837TIP3    H226927   0.655   0.969   1.149  0.3524  0.7153 -0.4727
 1838TIP3   OH226928   6.230   2.077   4.637  0.1296 -0.2212 -0.4661
 1838TIP3    H126929   6.198   2.107   4.552  1.5226  0.7388 -0.6716
 1838TIP3    H226930   6.312   2.030   4.616  0.0518 -0.6870  0.2606
 1839TIP3   OH226931   0.411   1.291  11.835 -0.2489 -0.0892  0.2170
 1839TIP3    H126932   0.417   1.196  11.834 -1.3166 -0.1562 -1.4808
 1839TIP3    H226933   0.498   1.320  11.862 -0.0500 -1.5466  1.1739
 1840TIP3   OH226934   6.767   4.096  15.105  0.2716 -0.5426  0.3725
 1840TIP3    H126935   6.766   4.178  15.055 -2.4411 -2.0020 -2.1723
 1840TIP3    H226936   6.857   4.066  15.100  0.3194 -0.0392 -2.7157
 1841TIP3   OH226937   1.636   5.401   4.471  0.8005  0.6474  0.3348
 1841TIP3    H126938   1.595   5.336   4.414  2.2274 -2.0613  2.3032
 1841TIP3    H226939   1.566   5.431   4.529 -0.1272  1.7545 -1.3296
 1842TIP3   OH226940   0.877   6.778  11.694  0.5139  0.3790 -0.4176
 1842TIP3    H126941   0.891   6.688  11.664 -0.3681 -0.1192  0.6280
 1842TIP3    H226942   0.795   6.804  11.651 -1.0819 -0.5469  1.9431
 1843TIP3   OH226943   1.104   3.149   1.948 -0.8897  0.1504  0.1032
 1843TIP3    H126944   1.061   3.144   1.863 -1.0085 -1.1225  0.2302
 1843TIP3    H226945   1.159   3.227   1.943 -3.1341  1.7651 -0.0936
 1844TIP3   OH226946   5.057   3.063  14.261  0.5077 -0.3897 -0.4785
 1844TIP3    H126947   5.118   3.136  14.267  1.9184 -1.6343  0.8716
 1844TIP3    H226948   4.989   3.083  14.326  0.8410 -0.2345 -0.1782
 1845TIP3   OH226949   4.140   1.459   3.092  0.5295 -0.4571  0.3419
 1845TIP3    H126950   4.107   1.393   3.154 -0.6644 -0.0396  0.1691
 1845TIP3    H226951   4.154   1.410   3.011  1.9896 -0.9836  0.9091
 1846TIP3   OH226952   0.185   6.270  14.874 -0.3131  0.5068 -0.1270
 1846TIP3    H126953   0.176   6.184  14.834  0.4991 -0.2615  1.2740
 1846TIP3    H226954   0.096   6.303  14.881 -0.7298 -0.6358  0.1705
 1847TIP3   OH226955   1.943   0.795  16.087  0.2956  0.0670  0.1487
 1847TIP3    H126956   2.012   0.859  16.072 -0.0833  0.4442  0.0155
 1847TIP3    H226957   1.900   0.785  16.002 -1.0213  1.2441  0.6450
 1848TIP3   OH226958   6.395   4.950  10.861  0.0139 -0.3557  0.2995
 1848TIP3    H126959   6.483   4.927  10.892  0.6375  0.0367 -1.1200
 1848TIP3    H226960   6.336   4.898  10.915  1.1697 -1.4200  0.5640
 1849TIP3   OH226961   4.666   4.569  11.442  0.4527  0.5655 -0.5227
 1849TIP3    H126962   4.713   4.493  11.477  0.5630  0.3840 -1.0631
 1849TIP3    H226963   4.623   4.608  11.519  0.9197  0.3324 -0.1421
 1850TIP3   OH226964   4.786   0.350   2.324  0.5379 -0.5445  0.2285
 1850TIP3    H126965   4.795   0.325   2.415  0.0117 -1.5407  0.0152
 1850TIP3    H226966   4.863   0.403   2.305  0.9255 -0.8053  1.0909
 1851TIP3   OH226967   0.815   4.725   0.859 -0.4562 -0.5145 -0.1040
 1851TIP3    H126968   0.725   4.757   0.856 -0.8276 -1.5888 -0.8763
 1851TIP3    H226969   0.808   4.636   0.894  0.3440 -0.4450  0.2332
 1852TIP3   OH226970   3.518   1.557  16.657  0.5205  0.3656 -0.1159
 1852TIP3    H126971   3.435   1.528  16.695 -0.1985  2.1650 -0.2468
 1852TIP3    H226972   3.582   1.545  16.727 -0.0584  0.0119  0.3584
 1853TIP3   OH226973   3.057   2.766   1.421  0.1700 -0.0047  0.4615
 1853TIP3    H126974   3.011   2.738   1.342  0.0655 -1.7040  1.1098
 1853TIP3    H226975   2.988   2.800   1.478 -0.1069 -1.2354  0.8695
 1854TIP3   OH226976   3.501   0.835   1.892 -0.3388  0.0145  0.1637
 1854TIP3    H126977   3.513   0.930   1.895 -1.8197  0.2263 -0.1928
 1854TIP3    H226978   3.586   0.801   1.865  0.7112  1.1052  1.9283
 1855TIP3   OH226979   0.692   2.232  12.036 -0.1593  0.4668 -0.3023
 1855TIP3    H126980   0.690   2.162  11.971  1.6823 -0.3162  0.4092
 1855TIP3    H226981   0.614   2.284  12.020 -0.1609 -0.2014 -2.5829
 1856TIP3   OH226982   1.195   5.722  16.694  0.3079  0.4893  0.0680
 1856TIP3    H126983   1.135   5.792  16.721 -0.9084 -0.8299  0.8127
 1856TIP3    H226984   1.171   5.704  16.604  0.5561  0.9418 -0.0954
 1857TIP3   OH226985   0.562   6.348   0.756  0.3996  0.0769  0.2567
 1857TIP3    H126986   0.528   6.407   0.689  1.6801  1.0818  0.4812
 1857TIP3    H226987   0.624   6.292   0.709  1.6327  1.0772  0.6790
 1858TIP3   OH226988   4.849   2.774  15.397  0.3408  0.1604  0.1880
 1858TIP3    H126989   4.923   2.721  15.368  0.5974 -0.3012  1.6735
 1858TIP3    H226990   4.881   2.820  15.475 -1.0864 -0.4188  1.1248
 1859TIP3   OH226991   5.118   0.088   5.163 -0.5039 -0.5229 -0.0483
 1859TIP3    H126992   5.151   0.154   5.103 -1.0165  0.8289  1.1256
 1859TIP3    H226993   5.194   0.034   5.184  0.3258  0.7870  0.3740
 1860TIP3   OH226994   3.000   4.848  17.019 -0.1416 -0.1593  0.4665
 1860TIP3    H126995   2.980   4.757  17.042  0.5306 -0.8770 -1.5635
 1860TIP3    H226996   2.918   4.882  16.983  0.0496 -0.5081 -0.3151
 1861TIP3   OH226997   4.490   5.918  12.547 -0.2956  0.0331  0.3142
 1861TIP3    H126998   4.535   5.947  12.468 -0.5382  0.0345  0.1763
 1861TIP3    H226999   4.398   5.938  12.531 -0.3829 -0.2291  0.4795
 1862TIP3   OH227000   0.190   4.517   4.874 -0.3573  0.0641  0.1903
 1862TIP3    H127001   0.258   4.539   4.938 -1.0985  1.6366  0.4755
 1862TIP3    H227002   0.131   4.459   4.922  1.0448 -1.7303 -0.2216
 1863TIP3   OH227003   6.240   5.801   2.759  0.0851  0.4996 -0.6247
 1863TIP3    H127004   6.177   5.732   2.738 -0.5064  1.0483 -0.6786
 1863TIP3    H227005   6.210   5.836   2.843  1.5433 -0.6533  0.3839
 1864TIP3   OH227006   2.626   1.536  16.951  0.0549 -0.3778 -0.4563
 1864TIP3    H127007   2.544   1.569  16.988 -1.4119 -3.3330 -0.8990
 1864TIP3    H227008   2.623   1.561  16.859 -0.5207 -0.8192 -0.5539
 1865TIP3   OH227009   4.938   1.198  13.906 -0.4494 -0.2086 -0.5967
 1865TIP3    H127010   4.967   1.107  13.900 -1.6403 -0.8168  2.1675
 1865TIP3    H227011   5.001   1.241  13.964  0.3426  0.8692 -2.2092
 1866TIP3   OH227012   4.029   1.578  10.649 -0.1747 -0.0024 -0.1967
 1866TIP3    H127013   3.992   1.494  10.624  0.2180 -0.7931  1.7796
 1866TIP3    H227014   4.099   1.594  10.585 -2.2663  0.3374 -2.4580
 1867TIP3   OH227015   1.936   2.132   0.242 -0.1619  0.1196 -0.3766
 1867TIP3    H127016   2.028   2.115   0.264  0.3292  2.0994 -0.7253
 1867TIP3    H227017   1.905   2.051   0.203  0.9007 -1.1883  1.4253
 1868TIP3   OH227018   3.584   2.986  17.156 -0.1103  0.3102  0.3103
 1868TIP3    H127019   3.627   2.954  17.236  1.1768  1.8451  0.2513
 1868TIP3    H227020   3.496   3.010  17.185 -0.0462 -0.2658  1.0062
 1869TIP3   OH227021   5.956   4.284   6.330 -0.1948  0.1820 -0.2995
 1869TIP3    H127022   5.885   4.348   6.328  1.3601  2.0097  0.9829
 1869TIP3    H227023   5.920   4.210   6.380 -1.9854  0.0303 -1.7507
 1870TIP3   OH227024   2.321   1.209  15.429 -0.9260  0.4142  0.5937
 1870TIP3    H127025   2.407   1.170  15.443 -0.9033  0.7925  1.5217
 1870TIP3    H227026   2.333   1.265  15.352 -0.5101 -0.0307  0.3328
 1871TIP3   OH227027   5.961   0.654   6.051  0.0239 -0.0614 -0.3552
 1871TIP3    H127028   5.944   0.723   6.116  1.5651  0.0359 -0.0201
 1871TIP3    H227029   5.875   0.634   6.014 -0.8095  0.2566  1.3447
 1872TIP3   OH227030   5.065   6.001  13.371 -0.2631  0.3807 -0.3345
 1872TIP3    H127031   4.978   5.974  13.342 -1.0899  1.2783  1.2105
 1872TIP3    H227032   5.078   5.955  13.454  0.6947  0.3193 -0.5124
 1873TIP3   OH227033   0.137   1.400  13.213 -0.1104  0.3475 -0.5264
 1873TIP3    H127034   0.050   1.371  13.241 -1.0139  1.2557 -2.3275
 1873TIP3    H227035   0.131   1.495  13.209  0.4836  0.3405 -2.1099
 1874TIP3   OH227036   2.836   1.267   5.139 -0.4620  0.7160  0.0463
 1874TIP3    H127037   2.843   1.197   5.074 -0.5155  1.6154 -0.9367
 1874TIP3    H227038   2.769   1.325   5.105  0.1514  1.6834  0.4588
 1875TIP3   OH227039   1.243   3.436   3.398  0.4002 -0.1473  0.3211
 1875TIP3    H127040   1.242   3.353   3.445 -0.5467 -0.3181  0.0021
 1875TIP3    H227041   1.300   3.420   3.323 -1.9055 -1.3278 -1.2102
 1876TIP3   OH227042   5.952   5.947   4.101 -0.4189  0.2179  0.2027
 1876TIP3    H127043   5.905   5.991   4.030 -0.1240  0.3442  0.0824
 1876TIP3    H227044   5.905   5.865   4.114 -0.7171  0.3800  0.1359
 1877TIP3   OH227045   3.983   5.750  16.551  0.5096  0.3002  0.0369
 1877TIP3    H127046   3.974   5.677  16.613 -1.1422  1.0283  0.6841
 1877TIP3    H227047   3.901   5.799  16.559  1.1519  1.6253 -1.1782
 1878TIP3   OH227048   6.156   1.299  11.952  0.0201 -0.0108 -0.3147
 1878TIP3    H127049   6.093   1.230  11.972  1.3471 -1.9918 -2.7512
 1878TIP3    H227050   6.221   1.293  12.021 -0.6042 -0.2627  0.2560
 1879TIP3   OH227051   4.298   1.483   4.782 -0.0584  0.4497  0.2047
 1879TIP3    H127052   4.356   1.450   4.850 -0.1689  1.8473  1.0038
 1879TIP3    H227053   4.280   1.407   4.727  1.1042 -0.3966  0.9604
 1880TIP3   OH227054   1.636   4.634  16.273  0.9649 -0.5587  0.8177
 1880TIP3    H127055   1.665   4.667  16.358 -0.0909  2.7474 -0.0356
 1880TIP3    H227056   1.699   4.669  16.210 -0.7401  0.7164 -0.2280
 1881TIP3   OH227057   0.347   4.683   5.072  0.1297 -0.0906  0.0148
 1881TIP3    H127058   0.410   4.741   5.029 -0.2268 -0.1473 -0.5795
 1881TIP3    H227059   0.400   4.610   5.104  0.3369 -0.2100 -0.6058
 1882TIP3   OH227060   0.473   1.950   5.785  0.0392 -0.4888  0.0362
 1882TIP3    H127061   0.476   1.907   5.870 -0.6808  2.1292  1.4566
 1882TIP3    H227062   0.528   2.028   5.796 -1.2303  0.6474 -1.4452
 1883TIP3   OH227063   0.911   5.904  13.599 -0.3783  0.4611  0.0306
 1883TIP3    H127064   0.972   5.853  13.653 -1.3914 -0.0275  0.7154
 1883TIP3    H227065   0.881   5.842  13.532 -0.1803  0.6818 -0.2614
 1884TIP3   OH227066   2.881   1.884   5.395 -0.2056 -0.3713  0.5188
 1884TIP3    H127067   2.789   1.908   5.406 -0.0441  0.1787  0.7294
 1884TIP3    H227068   2.902   1.832   5.472  0.0325  0.6830  1.1758
 1885TIP3   OH227069   5.227   4.595   3.022 -0.0270 -0.0969 -0.2806
 1885TIP3    H127070   5.189   4.682   3.015  0.2683  0.1014  0.5886
 1885TIP3    H227071   5.152   4.537   3.033 -0.3062 -0.0942 -2.0705
 1886TIP3   OH227072   6.365   2.662  14.715 -0.5163 -0.0870  0.2984
 1886TIP3    H127073   6.277   2.699  14.704 -0.4281 -0.0257 -0.2088
 1886TIP3    H227074   6.350   2.568  14.729 -0.7510  0.1536  1.7511
 1887TIP3   OH227075   5.776   1.548  11.262  0.6326 -0.5136 -0.3074
 1887TIP3    H127076   5.683   1.537  11.241  0.8360 -0.4198 -1.2756
 1887TIP3    H227077   5.785   1.641  11.283  0.1399 -0.8887  1.7149
 1888TIP3   OH227078   4.984   1.025   3.114 -0.2463 -0.3164 -0.0795
 1888TIP3    H127079   4.978   0.952   3.176  0.1932 -0.4694 -0.2191
 1888TIP3    H227080   5.068   1.013   3.070 -0.1892  0.2490 -0.1332
 1889TIP3   OH227081   6.192   2.162  14.641  0.1699  0.3929 -0.2359
 1889TIP3    H127082   6.236   2.078  14.629 -0.0830  0.4638 -1.6849
 1889TIP3    H227083   6.171   2.165  14.735 -0.1178 -1.2960 -0.2424
 1890TIP3   OH227084   0.909   3.891   0.850 -0.3445  0.0286  0.2308
 1890TIP3    H127085   0.869   3.961   0.901  2.3358  2.5698 -1.0123
 1890TIP3    H227086   0.973   3.851   0.908 -2.9722 -2.5244  1.4654
 1891TIP3   OH227087   1.986   2.084  16.885 -0.7875  0.2371  0.5506
 1891TIP3    H127088   2.012   2.065  16.795  1.4788 -0.4668  1.3120
 1891TIP3    H227089   1.904   2.133  16.877 -2.6710 -3.0810 -1.7818
 1892TIP3   OH227090   6.615   0.337  11.659 -0.1962  0.0685 -0.0623
 1892TIP3    H127091   6.544   0.310  11.601  0.1710  0.1803 -0.5690
 1892TIP3    H227092   6.695   0.315  11.611  0.1088 -0.0722  0.5133
 1893TIP3   OH227093   2.015   5.070  14.381 -0.0792  0.0234 -0.2621
 1893TIP3    H127094   1.958   5.147  14.377  1.0864  0.8211 -1.5932
 1893TIP3    H227095   1.954   4.997  14.393 -1.2382  1.0794  0.4189
 1894TIP3   OH227096   2.369   4.938   5.271 -0.6624 -0.2322 -0.1780
 1894TIP3    H127097   2.329   4.853   5.290 -2.1562  0.8418  1.6881
 1894TIP3    H227098   2.300   4.988   5.227 -0.3226  0.5378  0.1452
 1895TIP3   OH227099   5.347   2.912   3.440 -0.0721  0.0914  0.3090
 1895TIP3    H127100   5.396   2.835   3.468  1.8004  0.4277 -1.9556
 1895TIP3    H227101   5.408   2.962   3.387 -1.8652  2.2008  0.1558
 1896TIP3   OH227102   6.259   1.372   2.218 -0.2678  0.7508 -0.4175
 1896TIP3    H127103   6.225   1.433   2.153 -2.5031  0.6674  0.6473
 1896TIP3    H227104   6.344   1.345   2.183 -0.5980  2.1579 -2.3626
 1897TIP3   OH227105   1.210   5.841  10.758  0.0581  0.1260 -0.2948
 1897TIP3    H127106   1.192   5.793  10.678  1.1212 -0.6454 -0.0872
 1897TIP3    H227107   1.235   5.929  10.729 -0.7280  0.2008 -0.7421
 1898TIP3   OH227108   1.550   0.704   0.444 -0.3696  0.3026  0.3174
 1898TIP3    H127109   1.519   0.647   0.373  1.2767 -1.0592  0.6669
 1898TIP3    H227110   1.519   0.662   0.524 -1.1629  1.1759  0.4748
 1899TIP3   OH227111   4.423   4.249  16.301  0.7877 -0.5698 -0.1916
 1899TIP3    H127112   4.486   4.197  16.252 -0.8327 -0.1865 -2.7735
 1899TIP3    H227113   4.352   4.188  16.321  0.0992 -0.0141 -0.9110
 1900TIP3   OH227114   0.640   3.194  13.309  0.0986  0.0660  0.0893
 1900TIP3    H127115   0.589   3.237  13.241 -0.6077 -1.5446 -0.4259
 1900TIP3    H227116   0.731   3.204  13.281  0.1409  3.2472  1.1881
 1901TIP3   OH227117   2.090   5.712   3.176  0.7218 -0.6743 -0.5279
 1901TIP3    H127118   2.155   5.782   3.182  1.7745 -1.6298 -0.7975
 1901TIP3    H227119   2.102   5.676   3.089  0.0645 -1.0960 -0.4470
 1902TIP3   OH227120   0.805   5.248   4.393  0.6201  0.4209 -0.8032
 1902TIP3    H127121   0.719   5.262   4.355 -0.1869  0.5108  0.9834
 1902TIP3    H227122   0.825   5.156   4.376 -1.1003 -0.3527  1.2349
 1903TIP3   OH227123   5.562   5.576  15.119  0.3105 -0.1193 -0.8450
 1903TIP3    H127124   5.494   5.572  15.187 -0.8161 -2.8449 -2.0645
 1903TIP3    H227125   5.642   5.594  15.168 -0.9471  1.0731  0.8676
 1904TIP3   OH227126   3.375   3.920   5.186  0.2045  0.6529  0.0462
 1904TIP3    H127127   3.437   3.856   5.221 -0.4391  0.0915  0.1715
 1904TIP3    H227128   3.407   3.939   5.098  0.9331  0.8690  0.3644
 1905TIP3   OH227129   1.912   5.983  13.043  0.1785 -0.0410  0.0755
 1905TIP3    H127130   1.957   5.947  12.967  0.1712  0.2554 -0.0708
 1905TIP3    H227131   1.947   6.072  13.052  0.6192 -0.2786  0.7715
 1906TIP3   OH227132   0.703   4.449  12.827  0.0191 -0.1557 -0.1459
 1906TIP3    H127133   0.708   4.490  12.913  0.5363 -1.1954  0.3229
 1906TIP3    H227134   0.738   4.361  12.839  1.9114  0.3293 -1.8395
 1907TIP3   OH227135   3.015   0.971   3.902  0.8796  0.1653  0.3041
 1907TIP3    H127136   2.969   1.053   3.881 -0.1340  0.2371  2.6814
 1907TIP3    H227137   3.031   0.930   3.817  0.4247  2.3090 -0.8520
 1908TIP3   OH227138   3.889   5.951   1.302  0.0611 -0.4076  0.0563
 1908TIP3    H127139   3.836   5.918   1.375 -2.1649  1.3653 -0.6839
 1908TIP3    H227140   3.856   5.905   1.225  1.6882 -1.4972 -0.0143
 1909TIP3   OH227141   2.103   2.837   0.070 -0.5877  0.1043 -0.0320
 1909TIP3    H127142   2.192   2.824   0.102 -0.0347 -2.2218 -2.2973
 1909TIP3    H227143   2.064   2.749   0.070 -2.8736  1.0568  0.7999
 1910TIP3   OH227144   5.889   3.586   1.921 -0.4404 -0.1046  0.2246
 1910TIP3    H127145   5.900   3.647   1.994 -0.2522 -1.2334  1.1527
 1910TIP3    H227146   5.920   3.635   1.844  2.5135 -0.0179  1.3900
 1911TIP3   OH227147   4.171   1.214   3.359  0.4088 -0.2381 -0.1725
 1911TIP3    H127148   4.225   1.164   3.420 -1.1292  0.2043  1.5946
 1911TIP3    H227149   4.190   1.306   3.380 -2.2329 -0.0488  1.6310
 1912TIP3   OH227150   0.383   3.073   2.102  0.2006  0.0974  0.0154
 1912TIP3    H127151   0.338   3.118   2.173 -0.2534  0.3488 -0.4265
 1912TIP3    H227152   0.330   3.092   2.025  0.4996 -0.4585 -0.3283
 1913TIP3   OH227153   4.661   1.192  13.906 -0.0495 -0.2620  0.0941
 1913TIP3    H127154   4.627   1.182  13.994  0.1369 -0.7688  0.1105
 1913TIP3    H227155   4.756   1.200  13.917 -0.0565  0.0135 -0.0348
 1914TIP3   OH227156   2.180   2.539   2.088  0.0102 -0.6905 -0.4900
 1914TIP3    H127157   2.260   2.568   2.131 -0.2324 -0.0668 -0.4584
 1914TIP3    H227158   2.120   2.518   2.160  1.0616 -3.7817 -0.4647
 1915TIP3   OH227159   2.768   3.406   0.280 -0.3152 -0.2594 -0.3201
 1915TIP3    H127160   2.812   3.472   0.333 -1.8201  0.3683  0.1991
 1915TIP3    H227161   2.813   3.324   0.299  0.3756  0.3063  0.4637
 1916TIP3   OH227162   4.373   1.821   2.135 -0.5399 -0.3498  0.7170
 1916TIP3    H127163   4.383   1.914   2.115 -0.8457 -0.9003 -2.1698
 1916TIP3    H227164   4.290   1.816   2.183 -2.0084  0.5207 -1.6599
 1917TIP3   OH227165   6.651   6.754  12.066  0.6416  0.0595  0.1293
 1917TIP3    H127166   6.642   6.664  12.098  1.1209  0.5628  1.7026
 1917TIP3    H227167   6.563   6.791  12.072  0.7697  0.2194  1.0939
 1918TIP3   OH227168   0.601   6.457   4.781 -0.0675  0.6445  0.1672
 1918TIP3    H127169   0.607   6.475   4.687  0.3675 -2.9836 -0.5584
 1918TIP3    H227170   0.507   6.454   4.798 -0.1476  1.6390 -0.0856
 1919TIP3   OH227171   3.651   6.317  11.419  0.4649 -0.1263  0.2098
 1919TIP3    H127172   3.571   6.353  11.457  0.2662  0.6904 -0.9431
 1919TIP3    H227173   3.627   6.294  11.329  1.4654 -0.0906 -0.0763
 1920TIP3   OH227174   1.659   5.731  11.822 -0.4519 -0.2420 -0.7284
 1920TIP3    H127175   1.699   5.807  11.864 -0.0274  0.1531 -1.8517
 1920TIP3    H227176   1.567   5.754  11.813 -1.1341 -1.4263  2.4961
 1921TIP3   OH227177   3.522   0.253   2.771  0.2390 -0.5355 -0.4595
 1921TIP3    H127178   3.465   0.177   2.780 -0.9843  0.0143 -3.0081
 1921TIP3    H227179   3.478   0.322   2.820  0.5473 -1.0583  0.5532
 1922TIP3   OH227180   6.440   3.612  10.860  0.7056 -0.1535  0.1314
 1922TIP3    H127181   6.355   3.577  10.833  0.1526  0.8729  0.5557
 1922TIP3    H227182   6.440   3.703  10.831  0.0763  1.0267  3.5219
 1923TIP3   OH227183   3.797   1.508  14.063 -0.2449  0.1086  0.1613
 1923TIP3    H127184   3.888   1.480  14.054  0.2156  1.2903  0.9864
 1923TIP3    H227185   3.795   1.559  14.144 -1.5811  0.3389  0.0045
 1924TIP3   OH227186   5.203   4.329   6.415 -0.1410  0.3420  0.6593
 1924TIP3    H127187   5.236   4.255   6.365 -0.3440  0.2488  0.6645
 1924TIP3    H227188   5.109   4.313   6.424 -0.4659  1.3586 -0.6724
 1925TIP3   OH227189   6.198   4.331   1.210  0.0051  0.1603 -0.5474
 1925TIP3    H127190   6.271   4.334   1.148  1.1841  0.0994  0.8140
 1925TIP3    H227191   6.185   4.423   1.235 -2.0068  0.4682 -2.6314
 1926TIP3   OH227192   2.036   4.662  15.613 -0.0825  0.2552 -0.0097
 1926TIP3    H127193   2.041   4.756  15.592 -1.1739  0.3336  0.0820
 1926TIP3    H227194   2.127   4.631  15.604  0.6748  1.7587  1.9976
 1927TIP3   OH227195   4.142   0.716   4.723 -0.5198  0.1460 -0.6317
 1927TIP3    H127196   4.092   0.749   4.648 -2.0659  1.1403  0.7930
 1927TIP3    H227197   4.077   0.673   4.778  0.2755  0.9642  0.9963
 1928TIP3   OH227198   5.412   6.569   4.555 -0.0037 -0.7944 -0.0143
 1928TIP3    H127199   5.450   6.484   4.575  0.5910 -0.4521  0.3314
 1928TIP3    H227200   5.423   6.578   4.460  0.4224 -0.8744  0.0247
 1929TIP3   OH227201   3.813   5.268   3.120  0.5706 -0.5171  0.2381
 1929TIP3    H127202   3.753   5.320   3.067 -0.0454 -1.0322  0.4307
 1929TIP3    H227203   3.899   5.285   3.082  0.4310  0.9306  0.5253
 1930TIP3   OH227204   6.431   2.874   2.461 -0.0910  0.8402 -0.2234
 1930TIP3    H127205   6.376   2.796   2.471  0.2377  0.8102  1.4274
 1930TIP3    H227206   6.370   2.947   2.473 -0.0988  0.8216 -0.1500
 1931TIP3   OH227207   5.519   0.470  16.476 -0.0043  0.0421 -0.1876
 1931TIP3    H127208   5.493   0.543  16.420 -0.7265 -0.3457 -0.3618
 1931TIP3    H227209   5.440   0.416  16.483  0.7492 -1.1230 -0.6790
 1932TIP3   OH227210   6.225   3.119   2.178 -0.1888  0.3740  0.3632
 1932TIP3    H127211   6.301   3.068   2.206 -0.9230  0.1705  2.0303
 1932TIP3    H227212   6.229   3.118   2.082  2.0174  0.5335  0.4276
 1933TIP3   OH227213   5.601   3.247  13.849 -0.5021 -0.3633  0.2295
 1933TIP3    H127214   5.617   3.209  13.763  0.5622 -0.3321  0.4053
 1933TIP3    H227215   5.641   3.185  13.910 -2.3742 -1.0367  0.7904
 1934TIP3   OH227216   4.177   2.432  17.170 -0.5492  0.2551  0.8049
 1934TIP3    H127217   4.217   2.388  17.245  0.6720 -0.4315 -0.2533
 1934TIP3    H227218   4.238   2.419  17.098 -0.1651  3.6657  0.4424
 1935TIP3   OH227219   0.629   2.504  14.951  0.4205  0.1916  0.4073
 1935TIP3    H127220   0.708   2.488  14.900  0.8890 -1.8241  1.7195
 1935TIP3    H227221   0.638   2.595  14.982  0.4218  1.2361 -2.5139
 1936TIP3   OH227222   5.625   1.534  16.143 -0.2316  0.2496 -0.3480
 1936TIP3    H127223   5.584   1.592  16.078 -0.0817 -0.9272 -1.5192
 1936TIP3    H227224   5.559   1.526  16.213 -0.3860  1.5460 -0.3426
 1937TIP3   OH227225   4.614   0.493   1.827  0.7057 -0.0648  0.5659
 1937TIP3    H127226   4.650   0.436   1.894  1.3103 -0.2064  0.1211
 1937TIP3    H227227   4.676   0.566   1.821  0.8556 -0.2374 -0.0972
 1938TIP3   OH227228   3.093   5.653   1.555 -0.0955 -0.0957 -0.2960
 1938TIP3    H127229   3.179   5.617   1.577 -0.9975 -1.2730  1.3717
 1938TIP3    H227230   3.037   5.630   1.629 -1.2809  2.7989 -0.1976
 1939TIP3   OH227231   1.472   1.494  11.131 -0.9699  0.1667 -0.0541
 1939TIP3    H127232   1.481   1.511  11.225  1.9851  0.4815 -0.3278
 1939TIP3    H227233   1.550   1.443  11.109 -0.6348  1.7503 -2.6968
 1940TIP3   OH227234   2.085   5.116   3.234  0.4307  0.1538  0.3173
 1940TIP3    H127235   2.127   5.061   3.168  0.0948  0.9900 -0.6060
 1940TIP3    H227236   1.995   5.081   3.239  0.6157 -0.2618  0.7305
 1941TIP3   OH227237   1.915   4.567  17.160 -0.3751 -0.8380  0.1090
 1941TIP3    H127238   1.989   4.627  17.171 -1.2424  0.3327 -0.4167
 1941TIP3    H227239   1.922   4.538  17.069 -0.2629 -1.1446  0.2138
 1942TIP3   OH227240   1.471   1.526   2.008  0.0223  0.3951 -0.0047
 1942TIP3    H127241   1.409   1.597   1.988 -1.1400 -0.7169 -0.4227
 1942TIP3    H227242   1.430   1.478   2.080  0.2245 -0.5642 -0.5252
 1943TIP3   OH227243   0.038   6.738  14.447  0.0813 -0.2079  0.0171
 1943TIP3    H127244   0.020   6.672  14.514 -0.4528 -1.4650 -1.3252
 1943TIP3    H227245   0.132   6.735  14.435  0.2638  0.5090  1.1833
 1944TIP3   OH227246   5.203   0.695  11.439 -0.2482  0.0978 -0.0768
 1944TIP3    H127247   5.120   0.742  11.446 -0.5518 -0.4261 -0.2039
 1944TIP3    H227248   5.209   0.645  11.520  0.8415  1.6060  0.7970
 1945TIP3   OH227249   4.447   2.424  13.844 -0.5800  0.2206  0.1435
 1945TIP3    H127250   4.441   2.508  13.889  1.2959  0.1297  0.6307
 1945TIP3    H227251   4.509   2.373  13.897 -1.8561 -1.5459 -0.0352
 1946TIP3   OH227252   5.978   4.140   1.226 -0.1651  0.2020  0.2289
 1946TIP3    H127253   6.059   4.182   1.196  0.4840 -0.5837  0.8391
 1946TIP3    H227254   5.962   4.178   1.312 -0.4288  0.3398  0.1178
 1947TIP3   OH227255   3.762   0.326   3.907  0.0411 -0.5518 -0.4002
 1947TIP3    H127256   3.738   0.364   3.992  0.8807 -0.9535  0.0252
 1947TIP3    H227257   3.755   0.398   3.845  1.5674  0.2959  0.3950
 1948TIP3   OH227258   1.164   5.721  11.751 -0.4467 -0.4022 -0.5043
 1948TIP3    H127259   1.088   5.753  11.799 -0.1678 -1.0278  0.3715
 1948TIP3    H227260   1.131   5.648  11.699 -0.1064 -1.8420  1.2438
 1949TIP3   OH227261   0.485   3.785  12.995 -0.1608 -0.0899  0.1484
 1949TIP3    H127262   0.463   3.818  12.908 -1.4281 -0.2067  0.4251
 1949TIP3    H227263   0.405   3.795  13.046  0.5334 -0.1691  1.2646
 1950TIP3   OH227264   6.007   6.644  16.618 -0.6053  0.1033  0.3054
 1950TIP3    H127265   5.924   6.602  16.596 -0.4315  0.7896 -1.8108
 1950TIP3    H227266   6.011   6.720  16.560  1.6709 -0.1299  0.1197
 1951TIP3   OH227267   0.766   0.725  15.281  0.0632  0.3101  0.0374
 1951TIP3    H127268   0.804   0.647  15.320 -1.4006 -0.2328  0.4014
 1951TIP3    H227269   0.831   0.753  15.216  0.7513 -0.9998  0.1413
 1952TIP3   OH227270   4.966   4.772  12.025  0.3557  0.8238 -0.1411
 1952TIP3    H127271   4.894   4.716  11.996  1.2697  0.1653 -1.1568
 1952TIP3    H227272   5.036   4.712  12.048  0.2786  1.4166  1.7881
 1953TIP3   OH227273   5.624   0.736   5.144 -0.1291 -0.6119  0.1072
 1953TIP3    H127274   5.602   0.809   5.202  2.5642 -1.2764  2.0649
 1953TIP3    H227275   5.686   0.774   5.081 -0.2921 -0.7472 -0.1371
 1954TIP3   OH227276   5.079   5.366   0.170 -0.3202  0.1093 -0.0872
 1954TIP3    H127277   5.144   5.312   0.125 -1.3662 -1.0773 -0.2130
 1954TIP3    H227278   5.074   5.446   0.117  0.5458 -0.0715 -0.4511
 1955TIP3   OH227279   5.642   3.298  12.216 -0.2103 -0.1100  0.0843
 1955TIP3    H127280   5.697   3.311  12.139 -0.9651  1.8419 -0.1410
 1955TIP3    H227281   5.557   3.270  12.181 -0.5000  0.5985  0.2168
 1956TIP3   OH227282   0.288   0.437  11.072  0.4526 -0.7627  0.0611
 1956TIP3    H127283   0.262   0.381  11.145 -0.8183  0.6029  0.6803
 1956TIP3    H227284   0.383   0.427  11.067  0.5908 -0.6377  2.1000
 1957TIP3   OH227285   3.984   0.815   4.977  0.1572  0.3983  0.2683
 1957TIP3    H127286   3.972   0.750   5.046  0.5211 -0.7783 -0.7749
 1957TIP3    H227287   4.002   0.896   5.024 -0.3092 -0.2433  1.5752
 1958TIP3   OH227288   4.589   6.548  11.303 -0.5013  0.3869  0.0323
 1958TIP3    H127289   4.544   6.468  11.329 -1.0909  0.3559 -1.0707
 1958TIP3    H227290   4.659   6.518  11.245 -0.1305  0.5982  0.3594
 1959TIP3   OH227291   6.025   6.366  15.156 -0.2162 -0.4101  0.2754
 1959TIP3    H127292   5.970   6.443  15.141  2.5779  1.6853  0.4003
 1959TIP3    H227293   6.090   6.368  15.086  2.5192 -0.1736  2.7079
 1960TIP3   OH227294   5.435   0.044  11.592  0.0920 -0.3701  0.7919
 1960TIP3    H127295   5.393   0.123  11.626  1.4381  1.6717 -2.0223
 1960TIP3    H227296   5.364  -0.007  11.554 -0.6608 -0.0806  1.7848
 1961TIP3   OH227297   3.049   2.401   2.710 -0.3147  0.0976 -0.1312
 1961TIP3    H127298   2.956   2.375   2.712 -0.2995  0.0896  0.8916
 1961TIP3    H227299   3.052   2.472   2.646 -0.8346 -0.6239 -0.9670
 1962TIP3   OH227300   1.335   0.711  17.182  0.3715  0.2934 -0.2661
 1962TIP3    H127301   1.304   0.708  17.092  0.3390 -0.1814 -0.2376
 1962TIP3    H227302   1.368   0.800  17.193  2.3983 -0.2641 -1.4371
 1963TIP3   OH227303   1.647   1.880  16.303  0.2100  0.3649  0.3697
 1963TIP3    H127304   1.615   1.790  16.296  0.7240  0.1593  0.6920
 1963TIP3    H227305   1.741   1.871  16.318  0.0379  0.9352  1.8135
 1964TIP3   OH227306   4.185   1.678   2.287 -0.2436 -0.3762 -0.1119
 1964TIP3    H127307   4.176   1.585   2.266  1.0195 -0.5069 -0.1280
 1964TIP3    H227308   4.249   1.680   2.359  1.2637  0.6104 -1.4510
 1965TIP3   OH227309   5.577   5.791   4.441  0.3040 -0.0334 -0.2555
 1965TIP3    H127310   5.644   5.766   4.504 -0.3786  2.2547  1.4697
 1965TIP3    H227311   5.496   5.795   4.493 -0.5752  0.3365 -1.6176
 1966TIP3   OH227312   1.549   0.349   1.047  0.5573  0.3218  0.3964
 1966TIP3    H127313   1.489   0.352   1.122 -0.4156 -0.0360 -0.3604
 1966TIP3    H227314   1.561   0.440   1.022 -0.9087  0.3084 -0.4146
 1967TIP3   OH227315   1.137   1.721  13.642  0.3675 -0.1444  0.1904
 1967TIP3    H127316   1.100   1.660  13.705 -0.8543 -0.2449 -0.6018
 1967TIP3    H227317   1.214   1.676  13.606  0.1871 -0.7005  0.5092
 1968TIP3   OH227318   6.041   0.319  15.459  0.2143 -0.5690 -0.8282
 1968TIP3    H127319   6.077   0.407  15.455 -0.6211 -0.1549  0.3891
 1968TIP3    H227320   6.031   0.302  15.553 -2.7777 -0.6598 -1.1172
 1969TIP3   OH227321   1.325   5.633   3.112  0.1577  0.3691  0.7722
 1969TIP3    H127322   1.331   5.720   3.153 -3.1405 -0.0265  2.2653
 1969TIP3    H227323   1.341   5.650   3.019 -0.5996  2.6086  1.0093
 1970TIP3   OH227324   0.492   2.608  11.829 -0.2979  0.2154 -0.3020
 1970TIP3    H127325   0.488   2.591  11.923 -3.1535 -0.8366 -0.5685
 1970TIP3    H227326   0.510   2.522  11.790  0.3457  0.5529 -0.7656
 1971TIP3   OH227327   0.291   1.488   0.420  0.2216  0.5655 -0.7601
 1971TIP3    H127328   0.360   1.514   0.481 -1.5879  2.4843  0.5288
 1971TIP3    H227329   0.313   1.532   0.338  1.7647 -0.6969 -1.0427
 1972TIP3   OH227330   2.025   3.163   0.782 -0.2761 -0.2657 -0.1545
 1972TIP3    H127331   2.103   3.180   0.835 -0.2367 -2.5477  0.5639
 1972TIP3    H227332   2.057   3.157   0.692  0.1941  0.0174 -0.0086
 1973TIP3   OH227333   4.637   6.062   0.545  0.6818  0.0911 -0.3745
 1973TIP3    H127334   4.699   6.055   0.618  0.2361  1.0701  0.1117
 1973TIP3    H227335   4.658   6.146   0.503  0.7531 -0.3376 -1.2079
 1974TIP3   OH227336   5.014   4.877  10.515  0.0021 -0.4176 -0.2900
 1974TIP3    H127337   5.035   4.813  10.583  0.1291 -0.0404  0.0261
 1974TIP3    H227338   4.945   4.835  10.464 -0.8223 -0.2719  0.6957
 1975TIP3   OH227339   2.297   4.773   3.283  0.0081 -0.0822 -0.0814
 1975TIP3    H127340   2.298   4.792   3.377  1.6193  0.5936 -0.2130
 1975TIP3    H227341   2.381   4.730   3.266  0.3566  1.0985 -1.4644
 1976TIP3   OH227342   0.639   5.924   0.354  0.1840  0.7428 -0.4027
 1976TIP3    H127343   0.567   5.864   0.373  0.0366  1.2905  0.8198
 1976TIP3    H227344   0.658   5.966   0.438  1.8700  0.6661 -0.7338
 1977TIP3   OH227345   2.313   1.682   5.558  0.1216 -0.6369 -0.2666
 1977TIP3    H127346   2.306   1.746   5.629  0.5562  0.3954 -1.1307
 1977TIP3    H227347   2.255   1.717   5.489 -0.1893 -1.5489 -0.4819
 1978TIP3   OH227348   0.264   6.423   4.448  0.2752  0.1219 -0.0919
 1978TIP3    H127349   0.244   6.515   4.430  0.8028  0.4262  0.8319
 1978TIP3    H227350   0.291   6.422   4.540  1.3182 -0.7824 -0.3972
 1979TIP3   OH227351   4.384   6.393  10.922 -0.3551  0.1636  0.3522
 1979TIP3    H127352   4.338   6.379  11.005 -0.4098  0.7162  0.4224
 1979TIP3    H227353   4.374   6.311  10.874 -2.9625  0.8784 -0.3918
 1980TIP3   OH227354   0.852   5.502   6.351  0.0026  0.1990  0.4533
 1980TIP3    H127355   0.861   5.487   6.257 -2.4095 -0.1248  0.2408
 1980TIP3    H227356   0.815   5.589   6.358 -0.4794 -0.0516  1.0808
 1981TIP3   OH227357   5.440   0.064   5.319  0.1713 -0.4444 -0.4296
 1981TIP3    H127358   5.455   0.154   5.292  0.0990 -0.6544 -1.1861
 1981TIP3    H227359   5.528   0.027   5.329  0.1985 -0.3943 -0.4799
 1982TIP3   OH227360   1.059   5.392  14.561  0.0084  0.6840 -0.0189
 1982TIP3    H127361   1.089   5.335  14.632  1.7203  0.2509 -1.0561
 1982TIP3    H227362   1.022   5.469  14.605  0.6599  0.2276  1.3397
 1983TIP3   OH227363   0.355   3.242  13.249 -0.3973 -0.0799 -0.1863
 1983TIP3    H127364   0.336   3.334  13.265 -1.9338 -0.3861 -0.2264
 1983TIP3    H227365   0.291   3.215  13.184  0.9192 -0.8360 -1.1782
 1984TIP3   OH227366   6.318   3.821   4.009 -0.0873 -0.1654  0.3344
 1984TIP3    H127367   6.276   3.803   3.925  1.4477 -1.8006 -0.1409
 1984TIP3    H227368   6.246   3.826   4.072 -1.2031  0.3618 -0.9625
 1985TIP3   OH227369   1.400   4.049   6.879 -0.0097  0.1774 -0.2965
 1985TIP3    H127370   1.342   4.051   6.803 -0.0079 -3.3048 -0.4519
 1985TIP3    H227371   1.488   4.037   6.842  0.4051  1.8519  0.1138
 1986TIP3   OH227372   4.362   3.331  14.309  0.7267  0.8285  0.3845
 1986TIP3    H127373   4.401   3.326  14.396  0.4670 -0.9945  0.4059
 1986TIP3    H227374   4.434   3.311  14.249  0.6418  0.9903  0.2247
 1987TIP3   OH227375   6.361   3.085  12.382  0.1799 -0.3316  0.1216
 1987TIP3    H127376   6.323   3.096  12.469 -0.9401  1.6892 -0.5966
 1987TIP3    H227377   6.435   3.146  12.380 -0.9929  1.0943 -0.9963
 1988TIP3   OH227378   5.009   4.282   2.719 -0.0299 -0.1094 -0.4869
 1988TIP3    H127379   5.037   4.249   2.633  0.5701  1.3235 -0.8724
 1988TIP3    H227380   5.091   4.298   2.766 -0.3771 -2.1687  0.8895
 1989TIP3   OH227381   3.762   5.888  16.657 -0.4781 -0.1542 -0.4415
 1989TIP3    H127382   3.763   5.946  16.733  0.9941 -0.6922 -0.0329
 1989TIP3    H227383   3.679   5.840  16.664 -0.9880  0.7928  0.0510
 1990TIP3   OH227384   2.725   3.327   1.573 -0.7849  0.2638  0.8514
 1990TIP3    H127385   2.679   3.395   1.623 -1.9459  1.0316 -1.1724
 1990TIP3    H227386   2.758   3.372   1.495  2.0860 -0.6327  1.4851
 1991TIP3   OH227387   2.037   3.656  16.378 -0.5027 -0.3577  0.1943
 1991TIP3    H127388   2.078   3.705  16.449  0.8512  1.9351 -2.1287
 1991TIP3    H227389   2.052   3.564  16.402  0.0450  0.3508  2.7757
 1992TIP3   OH227390   0.534   4.248  14.913  0.1254 -0.2584  0.2713
 1992TIP3    H127391   0.449   4.226  14.951  1.0326 -2.3340  1.2216
 1992TIP3    H227392   0.591   4.263  14.989  1.3145 -1.8485 -0.2733
 1993TIP3   OH227393   5.266   5.300   1.382  0.2388 -0.1644 -0.3526
 1993TIP3    H127394   5.243   5.393   1.386 -1.0455 -0.4924  0.0444
 1993TIP3    H227395   5.287   5.285   1.289 -0.9784  0.1947 -0.6965
 1994TIP3   OH227396   3.496   0.286   4.594 -0.3688  0.2138  0.3377
 1994TIP3    H127397   3.576   0.266   4.642 -0.3132 -2.4557 -0.8214
 1994TIP3    H227398   3.435   0.317   4.661  0.4837 -1.1735  1.7809
 1995TIP3   OH227399   6.605   6.774   3.716  0.6879 -0.0950  0.5687
 1995TIP3    H127400   6.605   6.766   3.621 -1.2439 -1.0433  0.6274
 1995TIP3    H227401   6.515   6.754   3.742  1.1685  0.2488  2.5883
 1996TIP3   OH227402   4.420   4.976  15.379  0.3953  0.0173 -0.1662
 1996TIP3    H127403   4.359   4.921  15.427 -1.1335  0.4249 -1.5986
 1996TIP3    H227404   4.505   4.933  15.389 -0.1851 -0.7478  1.5491
 1997TIP3   OH227405   5.659   2.844  12.224 -0.2995 -0.9108  0.8574
 1997TIP3    H127406   5.606   2.909  12.269  2.2578  1.0342  1.1644
 1997TIP3    H227407   5.666   2.771  12.286 -2.2534 -1.0465  0.9428
 1998TIP3   OH227408   3.402   0.493  13.824  0.4765  0.2014 -0.0125
 1998TIP3    H127409   3.348   0.416  13.842  0.6568 -0.0698 -0.5977
 1998TIP3    H227410   3.364   0.530  13.744 -1.1141  2.1197  1.5868
 1999TIP3   OH227411   4.430   4.649  13.545 -0.3509 -0.1490 -0.4224
 1999TIP3    H127412   4.473   4.639  13.459  0.4485  1.6797 -0.2689
 1999TIP3    H227413   4.497   4.624  13.608 -0.8712 -1.2903 -0.3212
 2000TIP3   OH227414   1.035   5.431   5.626 -0.1124  0.6642 -0.0645
 2000TIP3    H127415   1.016   5.496   5.694 -0.1612 -0.1110  0.6609
 2000TIP3    H227416   0.974   5.452   5.556 -1.9742 -0.2500  1.2516
 2001TIP3   OH227417   1.495   4.478   3.012  0.3274  0.6416  0.3859
 2001TIP3    H127418   1.450   4.550   3.057 -0.9403 -1.0805  1.9051
 2001TIP3    H227419   1.463   4.483   2.922 -0.1400  1.6458  0.5979
 2002TIP3   OH227420   2.098   2.207   2.627 -0.2936 -0.4415 -0.6060
 2002TIP3    H127421   2.114   2.301   2.631 -2.6039 -0.1072  1.2659
 2002TIP3    H227422   2.114   2.185   2.535  0.2030  1.7598 -1.0892
 2003TIP3   OH227423   2.784   2.204   3.436  0.1394  0.4091 -0.2171
 2003TIP3    H127424   2.810   2.207   3.529 -2.6472 -2.8023  0.7692
 2003TIP3    H227425   2.787   2.295   3.408  2.1339  1.3335  2.7218
 2004TIP3   OH227426   0.968   0.561  11.248  0.2887 -0.0365  0.1681
 2004TIP3    H127427   0.964   0.598  11.160 -2.6933 -1.2298 -0.2763
 2004TIP3    H227428   1.008   0.630  11.301 -3.0595  3.0116 -1.0554
 2005TIP3   OH227429   2.456   6.148  12.198  0.1563  0.1905  0.2450
 2005TIP3    H127430   2.525   6.131  12.261 -0.3362 -1.8504  0.2776
 2005TIP3    H227431   2.460   6.073  12.138 -1.1737  0.7035 -0.5008
 2006TIP3   OH227432   2.361   1.614   3.431  0.5290  0.2468 -0.5886
 2006TIP3    H127433   2.435   1.621   3.492  1.0720 -1.7144 -0.9661
 2006TIP3    H227434   2.298   1.557   3.476 -0.5747  1.5661 -0.4477
 2007TIP3   OH227435   6.151   2.299   3.569  0.4428  0.6432  0.1410
 2007TIP3    H127436   6.130   2.388   3.543 -0.9752  0.8191  1.7832
 2007TIP3    H227437   6.246   2.293   3.564  0.6971  2.8707  1.9808
 2008TIP3   OH227438   2.834   0.781  11.067  0.2768 -0.1638 -0.4843
 2008TIP3    H127439   2.905   0.774  11.131 -0.1673 -0.0912  0.0170
 2008TIP3    H227440   2.878   0.777  10.982  0.7758 -1.1819 -0.1835
 2009TIP3   OH227441   5.279   3.472  13.754  0.3843 -0.3272 -0.1155
 2009TIP3    H127442   5.272   3.447  13.846  1.4527  1.6198  0.5424
 2009TIP3    H227443   5.373   3.490  13.741 -0.2574  3.3720 -0.4224
 2010TIP3   OH227444   0.539   4.085   2.398  0.3172  0.4931 -0.3720
 2010TIP3    H127445   0.494   4.121   2.322 -1.5010 -2.3171 -0.6732
 2010TIP3    H227446   0.618   4.045   2.362 -0.7656 -1.2309 -0.8807
 2011TIP3   OH227447   6.470   3.007   1.067  0.5830  0.0272 -0.0889
 2011TIP3    H127448   6.379   2.979   1.077  0.4100  0.6879  0.2318
 2011TIP3    H227449   6.485   3.068   1.139  0.2211  2.5977 -2.1192
 2012TIP3   OH227450   0.558   2.486  15.284 -0.4896  0.0849 -0.2224
 2012TIP3    H127451   0.643   2.503  15.325 -0.8323 -0.6961  0.8372
 2012TIP3    H227452   0.578   2.470  15.192  0.6153 -0.9836  0.1893
 2013TIP3   OH227453   1.397   1.247   4.621 -0.5810 -0.2866 -0.5005
 2013TIP3    H127454   1.362   1.264   4.708 -0.7812 -0.8556 -0.4635
 2013TIP3    H227455   1.477   1.299   4.617 -0.5306 -0.3106  0.0554
 2014TIP3   OH227456   0.673   1.578  14.874 -0.0669  0.0524  0.9366
 2014TIP3    H127457   0.731   1.507  14.903 -3.5837 -3.7811 -0.8104
 2014TIP3    H227458   0.687   1.582  14.779  0.1901  1.8189  1.0471
 2015TIP3   OH227459   3.123   2.996   1.267  0.4266 -0.1416  0.6378
 2015TIP3    H127460   3.153   2.921   1.319 -2.7605 -0.1361  2.6492
 2015TIP3    H227461   3.148   3.073   1.318  0.7643  0.0289  0.2167
 2016TIP3   OH227462   4.579   6.400   3.788  0.6105  0.2730 -0.4768
 2016TIP3    H127463   4.648   6.415   3.853  0.2998 -1.2471  0.2068
 2016TIP3    H227464   4.621   6.344   3.722  0.1891 -0.1846 -0.3517
 2017TIP3   OH227465   2.541   2.030   1.883  0.2055 -0.3379  0.5484
 2017TIP3    H127466   2.595   2.003   1.958  0.6588 -2.4369 -0.4791
 2017TIP3    H227467   2.452   2.033   1.918  0.7204  1.2987  1.7986
 2018TIP3   OH227468   4.281   6.360   2.815  0.4568  0.2262 -0.2396
 2018TIP3    H127469   4.370   6.361   2.778  0.5901 -0.7261  0.0482
 2018TIP3    H227470   4.282   6.430   2.879  0.9883  0.2660 -0.2848
 2019TIP3   OH227471   2.340   4.863  14.099 -0.3369 -0.3172 -0.0803
 2019TIP3    H127472   2.299   4.923  14.161 -0.4051  0.5853 -0.9678
 2019TIP3    H227473   2.430   4.895  14.090 -0.3662 -0.3513 -0.5414
 2020TIP3   OH227474   4.152   0.546  14.032 -0.0456 -0.5996  0.7023
 2020TIP3    H127475   4.247   0.542  14.046  0.0008  1.1829  1.0170
 2020TIP3    H227476   4.142   0.554  13.937  0.0890 -1.3497  0.6209
 2021TIP3   OH227477   5.684   4.762  13.801 -0.0906  0.0766  0.0525
 2021TIP3    H127478   5.620   4.727  13.738  0.1143  1.3912 -0.9265
 2021TIP3    H227479   5.659   4.723  13.885 -1.0114 -0.9106 -0.6630
 2022TIP3   OH227480   1.506   0.558   1.748  0.3773 -0.6113  0.5201
 2022TIP3    H127481   1.559   0.558   1.827  0.3763 -0.9617  0.5205
 2022TIP3    H227482   1.523   0.473   1.707 -0.7869 -1.0500  0.9276
 2023TIP3   OH227483   1.654   2.332  14.620 -0.1692 -0.3197 -0.2578
 2023TIP3    H127484   1.668   2.398  14.551 -0.5038  0.5798  0.5186
 2023TIP3    H227485   1.559   2.323  14.625 -0.1275 -0.7346 -0.2441
 2024TIP3   OH227486   1.963   6.486  15.427 -0.2073 -0.6852  0.3768
 2024TIP3    H127487   1.935   6.518  15.513 -0.5524 -2.9940  1.1615
 2024TIP3    H227488   1.936   6.555  15.366 -0.1090  0.9036  2.0811
 2025TIP3   OH227489   4.886   4.807   4.966 -0.3788 -0.0862  0.3024
 2025TIP3    H127490   4.808   4.818   4.912  0.7072  0.4902 -1.1647
 2025TIP3    H227491   4.958   4.839   4.912  0.9308 -0.9194  1.5174
 2026TIP3   OH227492   3.684   1.563   0.767 -0.1755  0.2897 -1.1058
 2026TIP3    H127493   3.750   1.573   0.836 -0.7764  0.1507 -0.5110
 2026TIP3    H227494   3.735   1.560   0.686  0.5059  0.8869 -0.7077
 2027TIP3   OH227495   1.138   1.439   5.631 -0.7450 -0.2722  0.2747
 2027TIP3    H127496   1.201   1.457   5.562  0.8157  2.1190  2.2267
 2027TIP3    H227497   1.183   1.378   5.690 -1.6177 -1.3692 -0.1782
 2028TIP3   OH227498   3.254   1.300  14.367  0.1115 -0.0094  0.5588
 2028TIP3    H127499   3.257   1.369  14.301  0.0495  1.7055  2.2943
 2028TIP3    H227500   3.338   1.255  14.358  1.1807  1.8297  0.9577
 2029TIP3   OH227501   4.512   3.737   6.147 -0.1156  0.1218 -0.3855
 2029TIP3    H127502   4.526   3.796   6.220  2.3297 -4.1953  2.8608
 2029TIP3    H227503   4.425   3.699   6.162  0.2486 -0.5185  0.1245
 2030TIP3   OH227504   5.510   2.996   4.772  0.1295  0.6214 -0.0718
 2030TIP3    H127505   5.439   3.034   4.720  0.3637 -3.1571 -3.4727
 2030TIP3    H227506   5.590   3.037   4.738  0.1384 -0.6272 -1.6238
 2031TIP3   OH227507   6.636   0.941   5.707 -0.1496  0.1567 -0.3071
 2031TIP3    H127508   6.660   0.848   5.712 -0.8166  0.0148  0.3318
 2031TIP3    H227509   6.692   0.976   5.638  1.1626 -0.3987  0.4484
 2032TIP3   OH227510   4.749   0.136  14.021  0.0062 -0.1269  0.3512
 2032TIP3    H127511   4.700   0.064  13.982 -0.7972  0.9541 -0.6863
 2032TIP3    H227512   4.832   0.097  14.047 -1.1157 -1.8221  1.4717
 2033TIP3   OH227513   2.636   5.023   5.169 -0.0742  0.6064 -0.3291
 2033TIP3    H127514   2.667   5.113   5.157 -0.4745  0.9188  0.9398
 2033TIP3    H227515   2.560   5.031   5.225  0.0239 -0.5579 -0.0149
 2034TIP3   OH227516   4.072   4.388   0.793 -0.3082 -0.4270 -0.4836
 2034TIP3    H127517   4.007   4.332   0.752 -0.9273  0.1438 -0.2834
 2034TIP3    H227518   4.026   4.429   0.866  0.4873 -0.6164  0.1334
 2035TIP3   OH227519   0.752   2.718   2.207  0.0913 -0.3947  0.0391
 2035TIP3    H127520   0.758   2.807   2.242 -1.1927  0.7416 -2.5490
 2035TIP3    H227521   0.834   2.706   2.159  0.2866 -0.6599  0.4290
 2036TIP3   OH227522   5.213   6.304   2.846  0.2502  0.5229  0.2115
 2036TIP3    H127523   5.272   6.379   2.846  1.6851 -0.5616 -2.1136
 2036TIP3    H227524   5.221   6.267   2.934  2.4510  0.8432  0.1709
 2037TIP3   OH227525   1.957   0.457   0.571  0.8757 -0.3660  0.3117
 2037TIP3    H127526   1.967   0.531   0.631 -1.1218  0.0046  0.2151
 2037TIP3    H227527   1.863   0.441   0.567  1.2685 -2.9153  0.2968
 2038TIP3   OH227528   1.861   1.789  17.226  0.6601 -0.2252 -0.2851
 2038TIP3    H127529   1.859   1.879  17.195  0.7805  0.0028  0.3505
 2038TIP3    H227530   1.924   1.791  17.299 -2.0565 -0.0419  2.1322
 2039TIP3   OH227531   2.645   1.312  10.678  0.2111  0.1709  0.6555
 2039TIP3    H127532   2.583   1.266  10.621  0.3248  1.7229 -0.7729
 2039TIP3    H227533   2.671   1.389  10.627  0.0655  1.7861  2.9424
 2040TIP3   OH227534   4.346   4.402  12.738  0.4360 -0.0996  0.1377
 2040TIP3    H127535   4.282   4.410  12.809 -2.0579 -0.5959 -1.9934
 2040TIP3    H227536   4.378   4.491  12.723 -0.6747  0.3412  0.3742
 2041TIP3   OH227537   2.069   2.658  14.309  0.2589  0.6890 -0.5411
 2041TIP3    H127538   2.092   2.744  14.274  2.4551  0.9115  1.3738
 2041TIP3    H227539   2.129   2.598  14.265  0.3283  0.4475 -0.1144
 2042TIP3   OH227540   5.542   3.115  11.910 -0.0188  0.5126  0.0950
 2042TIP3    H127541   5.606   3.137  11.842 -1.2329 -0.4825 -1.4023
 2042TIP3    H227542   5.483   3.053  11.868 -0.7838 -0.1433  2.0837
 2043TIP3   OH227543   4.573   3.271  10.647  0.0478  0.1398 -0.2462
 2043TIP3    H127544   4.660   3.294  10.614  0.5148  0.5258  1.2262
 2043TIP3    H227545   4.580   3.179  10.672 -0.5216 -0.3681 -1.8822
 2044TIP3   OH227546   6.007   6.121  11.770  1.0296 -0.1613  0.4415
 2044TIP3    H127547   6.053   6.067  11.705  0.2530  0.5044 -0.6722
 2044TIP3    H227548   6.026   6.078  11.854 -0.0646 -2.5111 -0.4802
 2045TIP3   OH227549   5.992   6.635  15.354  0.0062 -0.1647  0.6772
 2045TIP3    H127550   5.961   6.644  15.445 -2.2274  1.4617 -0.1971
 2045TIP3    H227551   5.993   6.725  15.321 -0.5249 -0.8874 -1.3224
 2046TIP3   OH227552   5.817   2.030  15.696 -0.2522  0.2133  0.1102
 2046TIP3    H127553   5.849   2.026  15.606 -1.5132  0.6266 -0.3742
 2046TIP3    H227554   5.787   2.120  15.707  1.1218  0.5259  1.3860
 2047TIP3   OH227555   3.699   1.662   2.365 -0.1684 -0.5426 -0.4731
 2047TIP3    H127556   3.682   1.598   2.296 -0.9696 -2.1925  1.2152
 2047TIP3    H227557   3.794   1.662   2.376 -0.1968 -1.6744 -0.2473
 2048TIP3   OH227558   3.636   0.547  13.939  0.4578  0.1698  0.2133
 2048TIP3    H127559   3.645   0.638  13.911 -1.0695 -0.2444 -1.7906
 2048TIP3    H227560   3.552   0.519  13.902  0.8602 -2.0199  0.8745
 2049TIP3   OH227561   4.678   4.838   4.764 -0.1951  0.3889 -0.3150
 2049TIP3    H127562   4.594   4.826   4.808  0.1974  0.1624  0.3703
 2049TIP3    H227563   4.690   4.758   4.713 -0.0043  0.0598  0.2400
 2050TIP3   OH227564   1.842   1.608   3.130 -0.5957 -0.2169  0.1297
 2050TIP3    H127565   1.786   1.607   3.207 -1.0469 -0.9562 -0.2017
 2050TIP3    H227566   1.785   1.579   3.059  0.2004 -0.9469 -0.2125
 2051TIP3   OH227567   5.765   3.788  15.376  0.1582 -0.4720  0.1492
 2051TIP3    H127568   5.703   3.724  15.410  0.5590 -1.0337 -0.1714
 2051TIP3    H227569   5.791   3.839  15.452  1.2969 -1.9323  0.7440
 2052TIP3   OH227570   3.917   6.134  11.989 -0.6409  0.1762 -0.3891
 2052TIP3    H127571   3.892   6.070  12.055  0.8439 -0.3413 -0.3094
 2052TIP3    H227572   3.841   6.191  11.981 -0.5611  0.7724  2.4062
 2053TIP3   OH227573   5.080   3.487  16.189  0.5649  0.3636  0.9222
 2053TIP3    H127574   5.159   3.522  16.229  0.8885 -0.1097  0.6997
 2053TIP3    H227575   5.101   3.479  16.096  0.3602 -0.0452  0.9121
 2054TIP3   OH227576   1.737   0.929  11.668 -0.0346  0.1918  0.0580
 2054TIP3    H127577   1.832   0.940  11.662  0.0005 -0.6007 -0.8498
 2054TIP3    H227578   1.701   1.014  11.641  0.3690 -0.1071 -1.4068
 2055TIP3   OH227579   6.080   6.701  14.008  0.0845  0.2160  0.0127
 2055TIP3    H127580   6.082   6.660  14.094 -0.3460  0.7957  0.2936
 2055TIP3    H227581   6.165   6.746  14.001  0.6706 -0.9257 -0.4027
 2056TIP3   OH227582   4.117   6.373   3.209 -0.0721  0.5751  0.2950
 2056TIP3    H127583   4.079   6.287   3.228 -1.6937  0.9369 -1.1708
 2056TIP3    H227584   4.075   6.400   3.127  1.2627  2.2715  0.1450
 2057TIP3   OH227585   2.185   5.533   0.230 -0.5783  0.3754  0.2763
 2057TIP3    H127586   2.280   5.527   0.221 -0.2938  2.1469  1.7214
 2057TIP3    H227587   2.152   5.537   0.140  0.6055 -1.5064 -0.2527
 2058TIP3   OH227588   6.543   2.568   5.416  0.8170 -0.4088  0.6988
 2058TIP3    H127589   6.575   2.481   5.393  1.1157 -0.2767  0.6241
 2058TIP3    H227590   6.569   2.624   5.343  1.0134 -0.1664  0.9535
 2059TIP3   OH227591   1.472   3.629   4.675 -0.4633  0.5321  0.4938
 2059TIP3    H127592   1.535   3.567   4.638 -0.1051  0.9380  0.4167
 2059TIP3    H227593   1.481   3.707   4.620  3.1170  2.7414  3.9667
 2060TIP3   OH227594   6.439   6.524  15.117  0.1985  0.5834 -0.4651
 2060TIP3    H127595   6.368   6.460  15.114  0.8078 -0.2168  1.2666
 2060TIP3    H227596   6.517   6.472  15.137  0.5462  1.9596  2.0489
 2061TIP3   OH227597   0.019   1.506   3.030 -0.2840 -0.2764 -0.6190
 2061TIP3    H127598   0.050   1.579   2.977 -0.4301 -0.7504 -1.3700
 2061TIP3    H227599  -0.036   1.546   3.097 -0.9724  0.2469 -1.4758
 2062TIP3   OH227600   3.898   5.396  16.044  0.2614 -0.3585  0.1077
 2062TIP3    H127601   3.809   5.419  16.071 -0.0469 -0.5036 -0.7545
 2062TIP3    H227602   3.951   5.405  16.123 -0.5432 -0.3688  0.6473
 2063TIP3   OH227603   4.044   6.662   6.055  0.1736  0.4473 -0.0040
 2063TIP3    H127604   4.067   6.627   6.141  0.4638 -0.2484 -0.3581
 2063TIP3    H227605   3.953   6.689   6.064  0.3494  0.8339  0.6615
 2064TIP3   OH227606   2.712   2.286  16.286 -0.0328  0.3770 -0.0630
 2064TIP3    H127607   2.751   2.361  16.330 -0.9264  0.2064  1.0323
 2064TIP3    H227608   2.648   2.324  16.226  1.5621  0.6384 -1.6203
 2065TIP3   OH227609   5.778   0.151   2.156  0.0081  0.4105  0.1640
 2065TIP3    H127610   5.860   0.134   2.110 -0.6286 -1.0208 -0.4821
 2065TIP3    H227611   5.757   0.242   2.135  0.8077  0.4080 -0.6585
 2066TIP3   OH227612   6.476   4.284  14.923 -0.0335  0.3277  0.0917
 2066TIP3    H127613   6.501   4.368  14.961 -0.5935  0.0818  1.0277
 2066TIP3    H227614   6.383   4.295  14.900 -0.2129 -0.1563  0.5707
 2067TIP3   OH227615   6.685   0.809  12.206  0.8616  0.5289  0.6163
 2067TIP3    H127616   6.738   0.771  12.277  0.7762 -1.1236 -0.1899
 2067TIP3    H227617   6.598   0.773  12.219  1.2568 -1.3018 -1.3849
 2068TIP3   OH227618   0.336   5.989   5.961 -0.4712  0.0830 -0.2805
 2068TIP3    H127619   0.418   5.954   5.927  1.0356  1.8658  1.4415
 2068TIP3    H227620   0.320   5.939   6.041 -0.3542  0.6574  0.1037
 2069TIP3   OH227621   6.052   1.562  15.563  0.3787 -0.2318 -0.4229
 2069TIP3    H127622   6.121   1.574  15.628 -0.4044  0.6894  0.2385
 2069TIP3    H227623   6.063   1.471  15.534  2.6461  0.2683 -1.2367
 2070TIP3   OH227624   6.646   2.168  12.845  0.2971  0.7100 -0.4707
 2070TIP3    H127625   6.693   2.160  12.762 -0.3009  1.7378 -0.9132
 2070TIP3    H227626   6.556   2.189  12.819 -0.2248 -0.3930  0.3928
 2071TIP3   OH227627   3.634   0.354   3.171  0.4243 -0.0418 -0.3196
 2071TIP3    H127628   3.725   0.380   3.162  0.1725  1.0339  0.2091
 2071TIP3    H227629   3.589   0.400   3.100  0.1016  0.3716  0.1512
 2072TIP3   OH227630   5.200   1.277  11.558  0.1692 -0.2851 -0.3836
 2072TIP3    H127631   5.224   1.254  11.648 -1.1458 -1.0499 -0.2188
 2072TIP3    H227632   5.205   1.194  11.511  0.3437  0.0234 -0.9145
 2073TIP3   OH227633   5.763   1.675  11.811  0.1657 -0.4282 -0.4134
 2073TIP3    H127634   5.815   1.597  11.832 -1.4866 -1.6530 -0.7595
 2073TIP3    H227635   5.735   1.708  11.897 -1.2064 -1.6862 -0.3560
 2074TIP3   OH227636   5.016   5.344   0.598  0.0965  0.1972  0.7167
 2074TIP3    H127637   5.062   5.262   0.611 -0.3920 -0.0755  0.7249
 2074TIP3    H227638   5.073   5.395   0.540 -0.1998 -0.6408 -0.3254
 2075TIP3   OH227639   3.385   3.106  11.164  0.2157 -0.4934 -0.0636
 2075TIP3    H127640   3.304   3.153  11.144  0.1509  0.1244  1.5869
 2075TIP3    H227641   3.454   3.171  11.152  0.2583 -0.3849  0.7225
 2076TIP3   OH227642   4.792   0.024   5.039  0.1496 -0.2926  0.2464
 2076TIP3    H127643   4.852   0.045   5.111 -0.2386  0.7606  0.2681
 2076TIP3    H227644   4.821  -0.062   5.008 -0.0769 -1.0474  2.0670
 2077TIP3   OH227645   5.450   2.192  16.717 -0.7133 -0.3694 -0.2224
 2077TIP3    H127646   5.433   2.275  16.761  0.7580 -0.7193  1.0728
 2077TIP3    H227647   5.544   2.177  16.729 -0.8830 -2.0286 -0.7608
 2078TIP3   OH227648   2.649   3.469   2.272 -0.4112 -0.2849  0.1790
 2078TIP3    H127649   2.717   3.483   2.339 -1.4709  1.1765  0.9878
 2078TIP3    H227650   2.579   3.423   2.319 -1.1561  0.7400  0.0892
 2079TIP3   OH227651   3.550   5.848   6.514 -0.0563 -0.0512  0.5109
 2079TIP3    H127652   3.483   5.789   6.549  0.1554  0.3329  1.5670
 2079TIP3    H227653   3.501   5.914   6.465 -0.2150 -2.0068 -2.1032
 2080TIP3   OH227654   1.333   1.681  14.853 -0.3830 -0.3000 -0.6225
 2080TIP3    H127655   1.294   1.723  14.777  2.1588  0.5888 -1.4710
 2080TIP3    H227656   1.306   1.737  14.927 -1.5351 -0.2738 -1.0513
 2081TIP3   OH227657   2.905   3.714  16.965  0.0425 -0.2956 -0.0897
 2081TIP3    H127658   2.875   3.624  16.981  0.8107 -0.5061  0.2267
 2081TIP3    H227659   2.859   3.767  17.030  1.0793 -0.7546  1.0407
 2082TIP3   OH227660   2.460   3.271   6.117 -0.6915  0.4865 -0.0543
 2082TIP3    H127661   2.497   3.253   6.030 -0.7036 -0.7610  0.1981
 2082TIP3    H227662   2.403   3.197   6.135 -1.9480  1.5203  0.3404
 2083TIP3   OH227663   4.370   1.703  14.323  0.0005  0.1769 -0.3378
 2083TIP3    H127664   4.330   1.786  14.296  1.5092  1.5843  1.6228
 2083TIP3    H227665   4.371   1.706  14.419  3.0881 -0.5978 -0.2705
 2084TIP3   OH227666   1.491   0.278   0.411 -0.2364  0.1894 -0.8800
 2084TIP3    H127667   1.416   0.332   0.387 -1.1536  0.0065  1.4492
 2084TIP3    H227668   1.453   0.205   0.460  1.6098  1.0717  1.9721
 2085TIP3   OH227669   4.794   4.437   1.720 -0.2291 -0.5828  0.6726
 2085TIP3    H127670   4.832   4.523   1.700 -2.5257  0.2235 -0.5108
 2085TIP3    H227671   4.769   4.443   1.812  1.3079 -0.6625  1.1022
 2086TIP3   OH227672   3.450   0.814  14.057 -0.4484 -0.2213 -0.8533
 2086TIP3    H127673   3.452   0.862  13.974 -2.0873  0.1463 -0.6900
 2086TIP3    H227674   3.542   0.795  14.075  0.1817  2.0847 -1.3757
 2087TIP3   OH227675   2.951   3.821   0.279 -0.4194  0.2365  0.7155
 2087TIP3    H127676   2.959   3.766   0.201 -0.1349  0.7778  0.3571
 2087TIP3    H227677   2.861   3.808   0.308 -1.5552  2.5171 -1.5892
 2088TIP3   OH227678   0.944   2.596   6.801  1.0806  0.4377  0.2277
 2088TIP3    H127679   1.026   2.550   6.783  0.2098 -1.3943  0.8895
 2088TIP3    H227680   0.887   2.572   6.728 -0.1404 -1.4005  1.7653
 2089TIP3   OH227681   1.766   2.127   3.465  0.0270 -0.0335  0.3952
 2089TIP3    H127682   1.767   2.124   3.560  0.0843 -0.0524  0.3943
 2089TIP3    H227683   1.779   2.036   3.438 -1.2403 -0.2216  0.3769
 2090TIP3   OH227684   0.278   1.645  15.813 -0.6153  0.1792 -0.2722
 2090TIP3    H127685   0.329   1.599  15.880  0.0407  2.7651  1.0968
 2090TIP3    H227686   0.186   1.628  15.837 -0.3899  1.2260  1.4657
 2091TIP3   OH227687   0.378   5.266   4.528  0.5878  0.4237 -0.1459
 2091TIP3    H127688   0.363   5.234   4.617  0.5335  0.0381 -0.2933
 2091TIP3    H227689   0.444   5.207   4.493  0.9758  0.8805 -0.1923
 2092TIP3   OH227690   4.837   0.316  16.072 -0.4685 -1.3253 -0.6146
 2092TIP3    H127691   4.856   0.372  15.996 -0.7966  0.6390  0.7357
 2092TIP3    H227692   4.743   0.326  16.087 -0.7612 -3.1694 -1.0662
 2093TIP3   OH227693   0.446   2.409   5.814  0.3432 -0.1409 -0.1664
 2093TIP3    H127694   0.371   2.358   5.844  1.2870 -0.6657  1.3295
 2093TIP3    H227695   0.429   2.498   5.844 -0.3898  0.0512 -1.1294
 2094TIP3   OH227696   3.660   4.750   3.444  0.9373  0.3942  0.0403
 2094TIP3    H127697   3.686   4.842   3.448 -1.2785  0.9855  1.5747
 2094TIP3    H227698   3.652   4.723   3.535 -2.8881  0.0278 -0.3457
 2095TIP3   OH227699   2.010   2.045   1.218 -0.3363  0.8488 -0.6567
 2095TIP3    H127700   1.951   2.080   1.151 -1.5695 -0.7582 -0.4636
 2095TIP3    H227701   2.090   2.025   1.171 -0.8144  0.7637 -1.4481
 2096TIP3   OH227702   0.848   6.468  13.727 -0.4696 -0.5583  0.1048
 2096TIP3    H127703   0.885   6.557  13.726 -2.2724  0.2061  0.2109
 2096TIP3    H227704   0.912   6.416  13.679  0.8205  0.7177  0.3920
 2097TIP3   OH227705   6.283   6.613   3.636  0.5313 -0.1252 -0.1858
 2097TIP3    H127706   6.312   6.528   3.668  3.8766 -0.6961 -4.2367
 2097TIP3    H227707   6.202   6.595   3.589  0.3444 -0.7779  0.3769
 2098TIP3   OH227708   3.971   6.023   5.400 -0.3945 -0.7495  0.1339
 2098TIP3    H127709   4.024   6.092   5.359  0.1884 -0.8254  0.7491
 2098TIP3    H227710   4.028   5.947   5.401 -1.0651 -1.2667 -0.6059
 2099TIP3   OH227711   0.300   5.925  14.253  0.0150 -0.1411 -0.2805
 2099TIP3    H127712   0.245   5.919  14.332  0.4665 -0.8510 -0.0203
 2099TIP3    H227713   0.380   5.878  14.276  0.9413  1.3238 -0.4843
 2100TIP3   OH227714   0.177   6.023   5.005 -0.0294  0.5446 -0.4950
 2100TIP3    H127715   0.091   5.999   5.040  1.1480  1.2312  3.0181
 2100TIP3    H227716   0.229   5.944   5.014  0.3527  0.8028 -0.4399
 2101TIP3   OH227717   1.282   5.387   2.245  0.4376  0.6172 -0.4427
 2101TIP3    H127718   1.216   5.348   2.188  0.3594 -0.1887  0.1932
 2101TIP3    H227719   1.357   5.328   2.240  0.0278 -0.0549  1.1524
 2102TIP3   OH227720   3.682   4.159   1.511  0.2768 -0.0186 -0.5328
 2102TIP3    H127721   3.718   4.123   1.592  0.2615 -0.2817 -0.6407
 2102TIP3    H227722   3.740   4.127   1.443  0.7606  0.8744 -0.5421
 2103TIP3   OH227723   4.930   3.185  14.846 -0.3118  0.3292 -0.0785
 2103TIP3    H127724   4.881   3.114  14.804 -0.5672 -0.0473  0.8509
 2103TIP3    H227725   4.870   3.222  14.910 -0.2277  1.4931 -0.6460
 2104TIP3   OH227726   4.955   4.542  13.689 -0.2210  0.3904  0.2659
 2104TIP3    H127727   4.911   4.470  13.735  0.8900  0.8965  2.1946
 2104TIP3    H227728   4.884   4.595  13.653 -1.0868 -0.7602  0.2414
 2105TIP3   OH227729   6.442   6.622   3.926 -0.1458  0.1959 -0.2075
 2105TIP3    H127730   6.378   6.693   3.940 -0.5411 -0.3241  0.6667
 2105TIP3    H227731   6.392   6.553   3.882  0.3828  0.6784 -1.5815
 2106TIP3   OH227732   6.163   1.179   4.998  0.3431 -0.2697 -0.0915
 2106TIP3    H127733   6.068   1.167   4.994  0.1624  1.0767  0.0631
 2106TIP3    H227734   6.182   1.241   4.928  0.9987  0.0963  0.4061
 2107TIP3   OH227735   2.624   6.360  11.655  0.0331 -0.3016  0.2270
 2107TIP3    H127736   2.604   6.381  11.746  3.0337  0.4537  0.7845
 2107TIP3    H227737   2.577   6.279  11.638 -0.9324 -0.2077  2.3036
 2108TIP3   OH227738   0.572   1.748  13.836 -0.4826  0.3620  0.4894
 2108TIP3    H127739   0.657   1.757  13.793 -0.5540  1.8526  0.6318
 2108TIP3    H227740   0.518   1.700  13.774  0.3776 -0.3447  0.2812
 2109TIP3   OH227741   3.341   3.732  10.902 -0.6576 -0.7121 -0.1394
 2109TIP3    H127742   3.406   3.662  10.907  0.1338  0.0761  0.8292
 2109TIP3    H227743   3.331   3.749  10.808  0.9964 -0.4251 -0.2786
 2110TIP3   OH227744   0.306   1.295   0.081 -0.3156  0.8753  0.5978
 2110TIP3    H127745   0.279   1.211   0.120  0.0291  1.3737  1.9218
 2110TIP3    H227746   0.395   1.309   0.113  0.0279  1.2365 -0.4896
 2111TIP3   OH227747   2.452   1.167   4.053 -0.2569  0.2268  0.1412
 2111TIP3    H127748   2.423   1.166   3.961 -2.2722 -0.5828  0.7504
 2111TIP3    H227749   2.532   1.114   4.053 -0.4315 -0.0620 -1.1013
 2112TIP3   OH227750   3.099   3.007   6.392 -0.0489 -0.1153 -0.0752
 2112TIP3    H127751   3.033   3.010   6.462  0.3603  3.0274  0.2868
 2112TIP3    H227752   3.055   3.048   6.317  0.4695 -0.8323 -0.7664
 2113TIP3   OH227753   1.255   6.618  13.637 -0.2534 -0.4074 -0.2198
 2113TIP3    H127754   1.166   6.651  13.654 -0.9958 -1.6855 -1.5381
 2113TIP3    H227755   1.289   6.677  13.569 -0.2057 -0.1042  0.0665
 2114TIP3   OH227756   0.913   6.378  13.053  0.3020  0.1775  0.6388
 2114TIP3    H127757   0.987   6.364  12.995  0.7751  0.5805  1.1363
 2114TIP3    H227758   0.909   6.299  13.107  0.5241  0.2598  0.7772
 2115TIP3   OH227759   0.881   6.548   3.081 -0.2465 -0.1680  0.3787
 2115TIP3    H127760   0.965   6.593   3.076  1.0042 -2.0378  3.0238
 2115TIP3    H227761   0.900   6.468   3.130 -2.6018 -3.0402 -3.0880
 2116TIP3   OH227762   6.547   2.124   3.474  0.0742 -0.5826  0.3269
 2116TIP3    H127763   6.550   2.068   3.552  0.6077 -0.1402  0.6246
 2116TIP3    H227764   6.612   2.086   3.415 -0.9054 -1.4107 -0.2460
 2117TIP3   OH227765   6.659   1.352  11.376  0.2758 -0.1959  0.3669
 2117TIP3    H127766   6.602   1.428  11.367 -2.7752 -2.3371  0.8037
 2117TIP3    H227767   6.730   1.381  11.433 -0.2174  2.6277 -0.4186
 2118TIP3   OH227768   4.719   2.051   5.306 -0.9548  0.0769 -0.2700
 2118TIP3    H127769   4.702   1.957   5.317  0.4960 -0.1121  0.3569
 2118TIP3    H227770   4.798   2.055   5.252 -0.5619  0.9346  0.3637
 2119TIP3   OH227771   4.281   1.225   4.649  0.3035  0.2465  0.6464
 2119TIP3    H127772   4.286   1.136   4.684  0.4176  0.3231  0.8238
 2119TIP3    H227773   4.327   1.221   4.565 -2.3435 -0.6031 -0.8280
 2120TIP3   OH227774   5.812   6.235  17.202  0.0714  0.1425  0.3642
 2120TIP3    H127775   5.845   6.244  17.113  1.0066 -2.2346  0.4111
 2120TIP3    H227776   5.730   6.186  17.193 -2.1007  3.6128  0.4859
 2121TIP3   OH227777   5.694   5.284  11.426  0.4598 -0.7242  0.0826
 2121TIP3    H127778   5.673   5.333  11.347  1.6519 -0.7314 -0.2409
 2121TIP3    H227779   5.789   5.270  11.422  0.2921 -2.1714  0.6658
 2122TIP3   OH227780   5.362   6.764   0.193 -0.2164  0.1656  0.3501
 2122TIP3    H127781   5.275   6.778   0.232 -1.6009 -0.7989 -2.2743
 2122TIP3    H227782   5.357   6.677   0.154  0.6721  1.5306 -2.9568
 2123TIP3   OH227783   1.343   5.241  11.164  0.0379  0.6582  0.2660
 2123TIP3    H127784   1.357   5.323  11.212 -0.1716  1.0895 -0.4034
 2123TIP3    H227785   1.278   5.263  11.098 -0.2268 -0.1257  0.2642
 2124TIP3   OH227786   5.584   1.212  12.477  0.2314  0.0050 -0.0788
 2124TIP3    H127787   5.615   1.194  12.566  1.2040 -0.2935 -0.4622
 2124TIP3    H227788   5.627   1.144  12.424 -0.7954 -0.1694 -0.6869
 2125TIP3   OH227789   3.481   6.378   3.907  0.1535 -0.3915 -0.3404
 2125TIP3    H127790   3.496   6.349   3.817  0.5726  0.7091 -0.6271
 2125TIP3    H227791   3.390   6.354   3.925  0.0015 -0.4104 -1.1283
 2126TIP3   OH227792   5.932   5.197  11.646  0.2642  0.6247  0.0428
 2126TIP3    H127793   5.848   5.232  11.674 -0.2939 -0.3277 -0.4010
 2126TIP3    H227794   5.944   5.231  11.557  1.2122  2.2243  0.7520
 2127TIP3   OH227795   3.842   4.469   2.619 -0.7084 -0.1850  0.2694
 2127TIP3    H127796   3.758   4.459   2.665  0.4229 -1.4029  2.1129
 2127TIP3    H227797   3.887   4.385   2.632  0.7333  0.3997 -0.8476
 2128TIP3   OH227798   4.451   0.213  11.514  0.1673 -0.2306  0.2036
 2128TIP3    H127799   4.482   0.278  11.450  0.4916  0.7108  1.2907
 2128TIP3    H227800   4.362   0.241  11.535  0.4579  0.1242  0.9947
 2129TIP3   OH227801   5.245   0.422   1.465  0.2981  1.2623 -0.5365
 2129TIP3    H127802   5.213   0.495   1.516  0.7777 -0.1114  1.7879
 2129TIP3    H227803   5.291   0.366   1.528 -0.5742 -1.3303 -2.1216
 2130TIP3   OH227804   2.841   4.902   3.058 -0.3035 -0.0698  0.7371
 2130TIP3    H127805   2.933   4.876   3.066  0.1119  1.3035  0.4663
 2130TIP3    H227806   2.825   4.958   3.134 -0.7835  0.0775  0.5297
 2131TIP3   OH227807   3.567   3.050  13.860 -1.1826  0.2177  0.6034
 2131TIP3    H127808   3.602   3.037  13.772 -0.0696 -0.0973  1.0861
 2131TIP3    H227809   3.521   2.968  13.879 -1.5701  0.3521  0.2534
 2132TIP3   OH227810   4.398   3.125   1.638 -0.0053 -0.1618  0.0572
 2132TIP3    H127811   4.341   3.154   1.709  2.1503  0.8707  1.4093
 2132TIP3    H227812   4.342   3.129   1.560 -1.7834  0.7950  1.3450
 2133TIP3   OH227813   6.581   5.681  12.948  0.2038 -0.3308 -0.4691
 2133TIP3    H127814   6.607   5.589  12.951  1.6840  0.0537 -1.1185
 2133TIP3    H227815   6.595   5.714  13.037  1.8746 -0.1621 -0.7773
 2134TIP3   OH227816   4.198   6.345  14.801  0.3399  0.1544  0.5971
 2134TIP3    H127817   4.137   6.400  14.850  0.0361  1.1134 -0.8312
 2134TIP3    H227818   4.145   6.309  14.730  1.2449  0.3942 -0.2104
 2135TIP3   OH227819   0.218   5.168   0.326 -0.0063 -0.1084 -0.3602
 2135TIP3    H127820   0.236   5.097   0.266 -0.6138 -0.4060 -0.1996
 2135TIP3    H227821   0.124   5.160   0.345 -0.0513  0.6504 -0.2417
 2136TIP3   OH227822   4.648   2.741  13.461  0.2368 -0.7572  0.3694
 2136TIP3    H127823   4.611   2.675  13.520 -0.7507 -0.9814 -0.5113
 2136TIP3    H227824   4.728   2.700  13.428 -0.7591 -1.8257 -0.7565
 2137TIP3   OH227825   4.564   1.661   0.907  0.7696  0.3244 -0.6310
 2137TIP3    H127826   4.654   1.653   0.875 -0.0096 -1.8755 -2.3642
 2137TIP3    H227827   4.510   1.661   0.828 -0.7046  2.8727  0.3252
 2138TIP3   OH227828   5.072   5.785  16.979 -0.0923 -0.2523 -0.1304
 2138TIP3    H127829   5.109   5.755  16.895  0.0814  0.0632 -0.1681
 2138TIP3    H227830   4.980   5.801  16.959 -0.1249 -0.4992 -0.1787
 2139TIP3   OH227831   5.127   5.371  14.666  0.4028  0.1307 -0.3254
 2139TIP3    H127832   5.156   5.284  14.692 -2.2041 -0.7134 -0.1232
 2139TIP3    H227833   5.099   5.362  14.576 -0.6078  0.5666 -0.0631
 2140TIP3   OH227834   3.699   4.015   5.173  0.7979 -0.6763 -0.2660
 2140TIP3    H127835   3.735   4.068   5.102  0.5944  0.3258  0.3672
 2140TIP3    H227836   3.664   4.079   5.235  1.4430 -1.5339  0.9891
 2141TIP3   OH227837   3.061   5.120   2.702  0.6336  0.4014  0.0394
 2141TIP3    H127838   3.143   5.072   2.693 -0.0384 -0.8719  0.6102
 2141TIP3    H227839   3.080   5.207   2.667  2.6228  0.5419  1.3823
 2142TIP3   OH227840   5.912   6.122  16.541  0.2323 -0.1186 -0.1145
 2142TIP3    H127841   5.860   6.169  16.606  0.2908  0.2319 -0.3264
 2142TIP3    H227842   6.002   6.152  16.556  0.2839 -0.2422 -0.1813
 2143TIP3   OH227843   1.108   4.566  12.788 -0.5796 -0.2891  0.3651
 2143TIP3    H127844   1.120   4.471  12.787  2.8674  0.1049 -0.5257
 2143TIP3    H227845   1.079   4.587  12.699 -3.0507 -0.6421  1.0409
 2144TIP3   OH227846   2.735   2.655   0.542 -0.2168 -0.0312  0.0305
 2144TIP3    H127847   2.741   2.676   0.635  0.0684  0.4473 -0.0940
 2144TIP3    H227848   2.649   2.689   0.515  0.3301  1.1709 -0.2170
 2145TIP3   OH227849   6.583   3.177   5.291  1.0164  0.1080 -0.6240
 2145TIP3    H127850   6.649   3.123   5.334 -1.6960 -0.4274  3.1359
 2145TIP3    H227851   6.532   3.116   5.239  0.4863 -0.3132  0.3771
 2146TIP3   OH227852   1.640   3.051  16.891  0.0684 -0.2396 -0.2006
 2146TIP3    H127853   1.669   3.002  16.814  0.9996  0.3933 -0.2637
 2146TIP3    H227854   1.646   3.143  16.865 -2.2586 -0.0791 -0.2913
 2147TIP3   OH227855   4.297   3.421   4.439 -0.2446 -0.4108 -0.4407
 2147TIP3    H127856   4.350   3.395   4.514 -1.1126 -0.9174  0.0077
 2147TIP3    H227857   4.207   3.421   4.472 -0.6814 -1.0572 -1.5884
 2148TIP3   OH227858   1.602   3.760   0.389 -0.5027  0.1986  0.7164
 2148TIP3    H127859   1.656   3.785   0.464 -0.0589 -1.0192  0.8140
 2148TIP3    H227860   1.542   3.834   0.377  1.7157  1.9490  0.0922
 2149TIP3   OH227861   1.383   6.087  10.923 -0.2098  0.4208  0.3249
 2149TIP3    H127862   1.412   6.000  10.952  0.2700  0.7959  0.9740
 2149TIP3    H227863   1.418   6.094  10.834  0.1012  0.1107  0.4184
 2150TIP3   OH227864   0.638   3.340  15.846  0.0168  0.1704  0.4092
 2150TIP3    H127865   0.699   3.365  15.777  0.6076 -1.3299  0.3759
 2150TIP3    H227866   0.610   3.252  15.823 -1.3162  0.4177  1.0241
 2151TIP3   OH227867   0.170   6.010  14.761  0.8175  0.0980  0.0451
 2151TIP3    H127868   0.085   5.967  14.749  1.8081 -2.0368  0.3807
 2151TIP3    H227869   0.225   5.943  14.802  2.7515  1.3482 -0.4238
 2152TIP3   OH227870   3.257   5.200  15.290  0.6149  0.3051 -0.0457
 2152TIP3    H127871   3.210   5.132  15.338 -1.4773  0.8004 -1.3002
 2152TIP3    H227872   3.199   5.276  15.292  1.3730  0.9628 -1.6103
 2153TIP3   OH227873   6.574   5.464  13.919  0.1564  0.5577 -0.1539
 2153TIP3    H127874   6.505   5.441  13.980  1.5686  0.8289  1.5997
 2153TIP3    H227875   6.542   5.543  13.874 -1.2927 -0.2005 -0.4589
 2154TIP3   OH227876   4.355   5.781  15.801  0.3025  1.0237  0.0375
 2154TIP3    H127877   4.357   5.871  15.835  0.1696  0.6050  1.1745
 2154TIP3    H227878   4.278   5.742  15.842 -0.2151  0.6944 -1.2532
 2155TIP3   OH227879   6.639   3.104   3.127 -0.3286 -0.0944  0.5291
 2155TIP3    H127880   6.711   3.074   3.183  0.4037  0.4653 -0.1175
 2155TIP3    H227881   6.679   3.119   3.042 -0.9106  1.7104  0.5632
 2156TIP3   OH227882   1.396   1.799   2.178 -0.9207 -0.0737 -0.2041
 2156TIP3    H127883   1.332   1.860   2.213  0.3797  0.7726  0.7827
 2156TIP3    H227884   1.421   1.745   2.253  0.4901  0.4941 -0.2402
 2157TIP3   OH227885   3.130   5.223  11.682  0.2766  0.4427 -0.2263
 2157TIP3    H127886   3.202   5.285  11.670 -0.2054  0.8972 -0.8150
 2157TIP3    H227887   3.093   5.245  11.767  1.1286 -0.1020  0.2958
 2158TIP3   OH227888   1.376   1.194   0.737  0.2071  0.2348  0.4108
 2158TIP3    H127889   1.436   1.264   0.711  0.7233  0.5067  2.2609
 2158TIP3    H227890   1.411   1.115   0.696  1.4153  0.5288  0.8578
 2159TIP3   OH227891   2.780   1.856   1.442  0.6363  0.0540  0.2154
 2159TIP3    H127892   2.765   1.772   1.485  0.2010  0.3019  0.5468
 2159TIP3    H227893   2.875   1.870   1.450  1.1127 -1.5455 -1.9752
 2160TIP3   OH227894   1.456   3.606  16.847 -0.1543 -0.1760 -0.1590
 2160TIP3    H127895   1.389   3.616  16.780  1.2024  1.5244 -1.3024
 2160TIP3    H227896   1.407   3.600  16.929 -1.6912  1.3737 -0.9380
 2161TIP3   OH227897   6.686   0.233  11.909 -0.1432 -0.4905 -0.2178
 2161TIP3    H127898   6.666   0.237  11.815 -1.0120  0.2942  0.0019
 2161TIP3    H227899   6.675   0.140  11.931 -1.2048 -0.4632 -0.6116
 2162TIP3   OH227900   2.000   1.186   0.801 -0.1314 -0.4866  0.1644
 2162TIP3    H127901   2.080   1.138   0.824 -1.5018 -3.2277 -0.5417
 2162TIP3    H227902   1.930   1.122   0.814 -2.2823  2.0208  1.2198
 2163TIP3   OH227903   0.791   0.533   5.008  0.2331  0.6482 -0.0628
 2163TIP3    H127904   0.864   0.578   5.050 -0.5450  2.4061 -0.5122
 2163TIP3    H227905   0.824   0.506   4.923  0.4083  1.3714 -0.2333
 2164TIP3   OH227906   1.944   5.810   3.950 -0.3339  0.2923 -0.1592
 2164TIP3    H127907   2.004   5.877   3.981  0.4910 -0.4115 -0.1897
 2164TIP3    H227908   1.953   5.812   3.855 -0.9605  0.7351 -0.2067
 2165TIP3   OH227909   4.615   1.831  16.626  0.2409 -0.4976  0.3858
 2165TIP3    H127910   4.537   1.886  16.632  1.0835  0.8177 -0.6210
 2165TIP3    H227911   4.581   1.742  16.623 -1.1658 -0.0120  1.4019
 2166TIP3   OH227912   5.959   3.206   1.029 -0.2555  0.0010 -0.0836
 2166TIP3    H127913   5.983   3.264   0.957  0.0985 -0.1523 -0.0954
 2166TIP3    H227914   5.932   3.125   0.986  1.4301 -0.6191 -0.0060
 2167TIP3   OH227915   0.254   5.045  12.896  0.5914 -0.2015 -0.4406
 2167TIP3    H127916   0.293   5.057  12.983  1.6530  0.9282 -1.0592
 2167TIP3    H227917   0.324   5.068  12.835 -1.1037  2.0714 -1.5751
 2168TIP3   OH227918   5.134   1.086  13.572  0.2978  0.3656  0.0119
 2168TIP3    H127919   5.172   1.099  13.658 -1.1004  2.4138  0.3577
 2168TIP3    H227920   5.060   1.027  13.587  0.2054  0.5243  0.1726
 2169TIP3   OH227921   1.179   5.759   0.263  0.4660 -0.0001  0.0836
 2169TIP3    H127922   1.155   5.842   0.221  1.0690 -0.2460 -0.7738
 2169TIP3    H227923   1.123   5.753   0.339 -2.2057 -0.5915 -1.8710
 2170TIP3   OH227924   6.203   4.187  17.147  0.4829  0.0569 -0.1153
 2170TIP3    H127925   6.170   4.240  17.074  2.8745  0.5566 -0.8832
 2170TIP3    H227926   6.215   4.100  17.110  1.5639  0.2764 -0.2848
 2171TIP3   OH227927   3.452   3.788  13.891  0.5913  0.4134  0.4993
 2171TIP3    H127928   3.457   3.694  13.903 -0.8349  0.4771  1.6912
 2171TIP3    H227929   3.531   3.822  13.933  2.5330 -0.4130 -2.2879
 2172TIP3   OH227930   2.287   2.298   2.009 -0.3056  0.2314  0.2386
 2172TIP3    H127931   2.249   2.383   2.031 -0.3607  0.9616 -2.4200
 2172TIP3    H227932   2.218   2.252   1.960  0.5578 -0.3367 -0.4865
 2173TIP3   OH227933   4.784   4.369  11.601  0.0793  0.1621  0.3057
 2173TIP3    H127934   4.838   4.445  11.623  1.4202 -0.7290  0.1370
 2173TIP3    H227935   4.846   4.296  11.596 -1.2266 -0.9938  0.7120
 2174TIP3   OH227936   0.412   2.029  14.727  0.0206 -0.1715 -0.2237
 2174TIP3    H127937   0.365   2.021  14.644 -0.8588 -0.3653  0.2874
 2174TIP3    H227938   0.418   1.939  14.759 -0.1249 -0.0335  0.1905
 2175TIP3   OH227939   2.481   4.161  13.612 -0.2121  0.6015  0.1089
 2175TIP3    H127940   2.484   4.066  13.621 -1.0121  0.7150  1.6253
 2175TIP3    H227941   2.565   4.184  13.573 -0.5186 -0.8444 -1.5059
 2176TIP3   OH227942   0.623   1.306   3.918  0.2723 -0.4158  0.1642
 2176TIP3    H127943   0.687   1.296   3.989 -0.9774 -0.7601  1.2446
 2176TIP3    H227944   0.569   1.380   3.945  0.1172 -0.2123 -0.6933
 2177TIP3   OH227945   3.074   2.963  13.375 -0.7459  0.1784  0.0462
 2177TIP3    H127946   3.122   2.881  13.385  1.2586  1.2376 -0.6719
 2177TIP3    H227947   3.061   2.995  13.464  0.2781  0.1064  0.2200
 2178TIP3   OH227948   5.603   6.597   3.389 -0.2014  0.1821  0.0685
 2178TIP3    H127949   5.676   6.619   3.447 -1.0762 -0.8181  1.5953
 2178TIP3    H227950   5.526   6.634   3.433 -0.6961  0.7090 -1.2172
 2179TIP3   OH227951   3.037   6.340  12.015 -0.3632 -0.3767  0.0006
 2179TIP3    H127952   3.094   6.303  12.083 -0.1743 -1.5977 -0.8159
 2179TIP3    H227953   2.956   6.289  12.021 -0.2697 -0.6297 -0.8352
 2180TIP3   OH227954   0.256   3.189   5.156 -0.2294  0.4154 -0.1355
 2180TIP3    H127955   0.290   3.153   5.074  0.6434 -0.5550  0.6359
 2180TIP3    H227956   0.180   3.135   5.177 -0.4914  0.7049 -0.3389
 2181TIP3   OH227957   4.727   3.748   4.619  0.1230 -0.0355  0.0354
 2181TIP3    H127958   4.759   3.664   4.586 -1.2542 -0.2711 -0.7386
 2181TIP3    H227959   4.660   3.724   4.683  0.1434  0.4739  0.2443
 2182TIP3   OH227960   0.684   2.290  11.143  0.0999 -0.1585 -0.2337
 2182TIP3    H127961   0.591   2.309  11.145  0.1485  0.0626 -0.0829
 2182TIP3    H227962   0.691   2.209  11.092 -0.0521  0.5528 -1.4036
 2183TIP3   OH227963   2.503   1.438  17.211  0.1230  0.2026  0.0403
 2183TIP3    H127964   2.597   1.435  17.225  0.1527  0.7134 -0.0331
 2183TIP3    H227965   2.483   1.531  17.200  0.1137 -0.1411 -3.3154
 2184TIP3   OH227966   2.486   3.384   5.203 -0.1508 -0.2436  0.2529
 2184TIP3    H127967   2.424   3.455   5.216 -2.1481 -2.1835  1.6248
 2184TIP3    H227968   2.549   3.393   5.275  0.6701  1.1722 -0.6126
 2185TIP3   OH227969   2.953   0.197   6.170  0.4643 -0.0079  0.3269
 2185TIP3    H127970   2.866   0.211   6.133  1.0276  1.2504 -0.5709
 2185TIP3    H227971   2.957   0.259   6.244  0.8578  0.4700 -0.0910
 2186TIP3   OH227972   0.112   6.549  15.751  0.5445 -0.0840 -0.4186
 2186TIP3    H127973   0.077   6.577  15.667  0.9295 -1.8565 -1.2055
 2186TIP3    H227974   0.150   6.463  15.733  2.6449  0.4956  1.0666
 2187TIP3   OH227975   4.035   4.358  17.186  0.0506  0.1636 -0.1113
 2187TIP3    H127976   3.996   4.381  17.270  0.9031 -0.3498  0.4236
 2187TIP3    H227977   3.965   4.313  17.138 -0.3626  0.2604  0.4028
 2188TIP3   OH227978   2.883   1.944   4.861 -0.3402 -0.2159 -0.3252
 2188TIP3    H127979   2.975   1.932   4.887 -0.5228  1.1600  1.0189
 2188TIP3    H227980   2.833   1.924   4.940 -1.1782 -0.4266 -0.9054
 2189TIP3   OH227981   1.716   2.558   1.273  0.1603 -0.2668  0.2051
 2189TIP3    H127982   1.634   2.508   1.272  0.4664 -0.7739 -0.2633
 2189TIP3    H227983   1.785   2.491   1.272  0.5744  0.1574 -0.0333
 2190TIP3   OH227984   1.397   1.459   1.643 -0.2012 -0.2820  0.0103
 2190TIP3    H127985   1.396   1.396   1.571  3.3427  0.2631 -0.5996
 2190TIP3    H227986   1.392   1.544   1.601  0.0499 -0.0110  0.5208
 2191TIP3   OH227987   1.680   1.497   6.238 -0.0202  0.1614  0.1964
 2191TIP3    H127988   1.670   1.578   6.287 -0.1299  0.0957  0.2824
 2191TIP3    H227989   1.647   1.429   6.297 -0.3953  0.1110 -0.0686
 2192TIP3   OH227990   3.617   1.929  15.858 -0.0613 -0.3646 -0.0523
 2192TIP3    H127991   3.665   1.894  15.933 -0.6400  0.9414  0.9386
 2192TIP3    H227992   3.685   1.959  15.797  0.4109 -1.6904 -0.1989
 2193TIP3   OH227993   5.822   0.862   4.960  0.0847  0.1356  0.1872
 2193TIP3    H127994   5.811   0.775   4.922 -1.1011 -0.3991  1.6793
 2193TIP3    H227995   5.896   0.900   4.913 -0.0457 -1.2790 -1.1989
 2194TIP3   OH227996   1.756   0.776   0.610  0.0708  0.3523  0.5025
 2194TIP3    H127997   1.695   0.724   0.558 -0.1732  0.3255  0.8124
 2194TIP3    H227998   1.760   0.860   0.565 -1.5270  0.9453  1.4235
 2195TIP3   OH227999   2.763   1.095  14.636  0.7076  0.3310  0.7437
 2195TIP3    H128000   2.810   1.170  14.673  2.0291  0.7669 -1.7439
 2195TIP3    H228001   2.829   1.049  14.584 -0.7985 -0.9554 -0.0594
 2196TIP3   OH228002   1.610   0.071  12.732  0.2647  0.4971  0.0670
 2196TIP3    H128003   1.520   0.101  12.719 -0.3140 -0.2576  2.1057
 2196TIP3    H228004   1.618  -0.007  12.677 -0.2801  0.6310 -0.2068
 2197TIP3   OH228005   1.591   2.393  15.834 -0.1584  0.0612  0.0546
 2197TIP3    H128006   1.630   2.456  15.773 -1.0175  0.1269 -0.4458
 2197TIP3    H228007   1.526   2.445  15.882 -1.2131 -0.5449 -0.6978
 2198TIP3   OH228008   0.539   4.592   1.042 -0.3277 -0.3584  0.2707
 2198TIP3    H128009   0.446   4.575   1.057 -0.2918  0.1228  1.0431
 2198TIP3    H228010   0.577   4.595   1.129  0.2316  0.4936 -0.0001
 2199TIP3   OH228011   3.362   2.727   0.521  0.4826 -0.2523 -0.0924
 2199TIP3    H128012   3.372   2.633   0.508  1.1881 -0.1157 -0.5334
 2199TIP3    H228013   3.438   2.766   0.478 -0.5417  0.6150 -1.1335
 2200TIP3   OH228014   1.888   4.317   4.836  0.2604  0.3972 -0.0088
 2200TIP3    H128015   1.955   4.323   4.904 -1.2899  0.0692  1.5982
 2200TIP3    H228016   1.888   4.224   4.811  0.7798  0.5022 -0.3865
 2201TIP3   OH228017   2.866   3.647   0.804  0.3317  0.1477 -0.2199
 2201TIP3    H128018   2.776   3.630   0.833  0.4454 -0.5671 -0.2762
 2201TIP3    H228019   2.876   3.741   0.811 -0.3620  0.2089 -0.0196
 2202TIP3   OH228020   6.303   4.756   4.961 -0.1135 -0.1462  0.1153
 2202TIP3    H128021   6.327   4.724   4.873  0.3333 -0.1704  0.2431
 2202TIP3    H228022   6.246   4.688   4.996  1.9690 -1.5014  0.9375
 2203TIP3   OH228023   4.488   2.830   2.096  0.2054 -0.1864  0.3761
 2203TIP3    H128024   4.562   2.891   2.098  0.0402  0.0196  0.0999
 2203TIP3    H228025   4.446   2.845   2.012 -0.2443 -0.2019  0.5985
 2204TIP3   OH228026   1.631   2.897  11.589 -0.0369  0.4989 -0.2482
 2204TIP3    H128027   1.670   2.916  11.503  0.0267  0.8953 -0.1323
 2204TIP3    H228028   1.655   2.806  11.606 -0.5219  0.2451 -0.9047
 2205TIP3   OH228029   5.453   5.450  16.748 -0.0237  0.0581  0.9714
 2205TIP3    H128030   5.466   5.541  16.774 -2.1831  0.8916 -0.7177
 2205TIP3    H228031   5.414   5.408  16.825  1.2053  0.4632  1.8360
 2206TIP3   OH228032   1.336   3.346  15.040 -0.0158  0.5096 -0.3457
 2206TIP3    H128033   1.419   3.301  15.050  0.1581  0.9356  0.0994
 2206TIP3    H228034   1.357   3.439  15.047 -0.5902  0.6014  0.1871
 2207TIP3   OH228035   1.104   4.279   4.038  0.7669 -0.0873  0.4704
 2207TIP3    H128036   1.068   4.198   4.002  1.6764 -0.6107  0.7318
 2207TIP3    H228037   1.146   4.253   4.120 -0.9465  1.0464  1.7320
 2208TIP3   OH228038   3.656   4.626  11.121  0.0020  0.5737  0.4940
 2208TIP3    H128039   3.605   4.575  11.184  1.4052 -0.5942  0.7327
 2208TIP3    H228040   3.746   4.621  11.155  0.5869  0.8641 -0.9917
 2209TIP3   OH228041   4.925   4.104  11.746 -0.0992  0.1486  0.0844
 2209TIP3    H128042   4.977   4.024  11.739 -0.3505  0.0468 -0.6583
 2209TIP3    H228043   4.983   4.174  11.715  0.6124  0.4776  2.0612
 2210TIP3   OH228044   1.611   2.855   0.775  0.1831 -0.1277  0.2411
 2210TIP3    H128045   1.693   2.834   0.730 -0.5167 -0.6978 -0.7640
 2210TIP3    H228046   1.618   2.949   0.794  1.2965 -0.2819  0.6340
 2211TIP3   OH228047   6.003   1.153   3.270  0.0879  0.0720  0.0387
 2211TIP3    H128048   5.911   1.170   3.289  0.1640  2.8248 -1.7522
 2211TIP3    H228049   6.051   1.197   3.341  0.0518 -1.9470  1.3566
 2212TIP3   OH228050   0.360   1.705  12.955  0.0754 -0.1962  0.2325
 2212TIP3    H128051   0.302   1.755  13.013  0.5230 -0.0154  0.5352
 2212TIP3    H228052   0.435   1.763  12.942 -0.6982  0.3835 -1.7586
 2213TIP3   OH228053   6.157   3.717  12.433  0.3942  0.0038  0.0239
 2213TIP3    H128054   6.183   3.629  12.405  2.1314  0.8054 -1.0075
 2213TIP3    H228055   6.223   3.775  12.394  0.5342  1.5624  2.4798
 2214TIP3   OH228056   1.024   5.938   0.049  0.1339 -0.5025 -0.1348
 2214TIP3    H128057   0.963   5.874   0.086  0.6898 -1.3946 -0.7255
 2214TIP3    H228058   1.088   5.885   0.002  2.0578  0.3327  1.4701
 2215TIP3   OH228059   4.936   6.636  11.960  0.1035  0.3981 -0.0357
 2215TIP3    H128060   4.965   6.681  11.881 -1.7755  0.8975 -0.4613
 2215TIP3    H228061   4.922   6.545  11.932 -0.9452  0.6623 -0.3814
 2216TIP3   OH228062   4.718   2.826  13.883  0.2406  0.1569 -0.3075
 2216TIP3    H128063   4.766   2.835  13.801  0.7363  2.8325  0.2218
 2216TIP3    H228064   4.772   2.871  13.948 -1.8388  1.2352  0.7481
 2217TIP3   OH228065   2.823   6.689   3.130 -0.2949  0.2457 -0.5864
 2217TIP3    H128066   2.766   6.765   3.139 -0.4222  0.2647 -1.4714
 2217TIP3    H228067   2.764   6.614   3.135 -0.7592  0.3072 -3.7186
 2218TIP3   OH228068   0.012   3.904  12.818 -0.1753  0.4075 -0.4469
 2218TIP3    H128069  -0.041   3.836  12.776 -1.2242  0.6881  0.3897
 2218TIP3    H228070  -0.012   3.899  12.910 -0.0268  1.7020 -0.3288
 2219TIP3   OH228071   5.969   2.716  16.147  0.7982  0.4124  0.1525
 2219TIP3    H128072   5.921   2.748  16.224 -0.1925 -0.4613 -0.0983
 2219TIP3    H228073   6.011   2.636  16.177 -0.7491 -0.7063 -0.5984
 2220TIP3   OH228074   0.896   1.410  13.740  0.1049 -0.3177 -0.2040
 2220TIP3    H128075   0.987   1.436  13.759 -0.2479  1.1559 -0.4885
 2220TIP3    H228076   0.865   1.371  13.822  1.1067 -1.1461 -0.2116
 2221TIP3   OH228077   0.185   2.728   6.241 -0.2800  0.1583  0.5248
 2221TIP3    H128078   0.126   2.729   6.316  2.5482 -2.2985  2.9322
 2221TIP3    H228079   0.253   2.791   6.265 -1.1337  1.9201 -1.5741
 2222TIP3   OH228080   6.729   4.509   4.225 -0.4812 -0.2907 -0.3249
 2222TIP3    H128081   6.762   4.439   4.281  1.6689  1.0916  0.1812
 2222TIP3    H228082   6.771   4.496   4.141  0.3080  0.6560 -0.0896
 2223TIP3   OH228083   2.167   0.115   1.133  0.1396 -0.6443  0.1340
 2223TIP3    H128084   2.106   0.187   1.142  0.7404  0.1177 -1.6175
 2223TIP3    H228085   2.211   0.131   1.049  2.3091 -1.4861  1.0583
 2224TIP3   OH228086   2.753   0.498   6.023 -0.7332  0.1646  0.8969
 2224TIP3    H128087   2.837   0.540   6.042 -1.2033  1.0636  1.0144
 2224TIP3    H228088   2.694   0.527   6.093 -1.6404  1.0507 -0.2030
 2225TIP3   OH228089   2.538   3.292   5.810  0.1371  0.0941  0.1337
 2225TIP3    H128090   2.447   3.321   5.798 -0.1437 -0.2912  1.2259
 2225TIP3    H228091   2.583   3.369   5.845  0.8461  1.0715 -2.8396
 2226TIP3   OH228092   1.074   4.119   1.529 -0.4155  0.3623  0.0805
 2226TIP3    H128093   1.131   4.115   1.606 -1.4797  3.2427  1.0865
 2226TIP3    H228094   1.018   4.042   1.537  1.8479 -1.3301  0.2197
 2227TIP3   OH228095   3.283   3.405   2.739  0.5921  0.3722  0.5782
 2227TIP3    H128096   3.224   3.365   2.676  1.4451 -0.4470  0.2944
 2227TIP3    H228097   3.245   3.384   2.825  0.3131  0.1053  0.3863
 2228TIP3   OH228098   2.921   6.427  15.244  0.0440  0.2015 -0.1215
 2228TIP3    H128099   2.963   6.507  15.276  1.0793 -0.4725  0.2095
 2228TIP3    H228100   2.961   6.411  15.159 -0.4181  0.2197 -0.3438
 2229TIP3   OH228101   2.869   4.455  12.880 -0.6743  0.5451 -0.2135
 2229TIP3    H128102   2.962   4.434  12.884 -1.0805 -1.4098 -0.5209
 2229TIP3    H228103   2.857   4.496  12.795 -0.1291  0.5864 -0.2697
 2230TIP3   OH228104   0.799   6.731   4.171  0.2603 -0.1569  0.5700
 2230TIP3    H128105   0.839   6.815   4.148 -0.7356 -0.0015 -0.6306
 2230TIP3    H228106   0.722   6.754   4.222  1.8102 -0.4674  3.1227
 2231TIP3   OH228107   4.778   2.263   1.273  0.7377 -0.0626 -0.3169
 2231TIP3    H128108   4.761   2.171   1.290 -0.0596  0.2157  0.4442
 2231TIP3    H228109   4.842   2.289   1.339  0.3929  0.1113 -0.0467
 2232TIP3   OH228110   2.958   2.684   4.528  0.7484 -0.1733 -0.6139
 2232TIP3    H128111   3.013   2.619   4.484 -0.2353 -0.8166 -0.9213
 2232TIP3    H228112   2.894   2.709   4.461  0.3581  0.1796 -0.1095
 2233TIP3   OH228113   6.070   1.150  16.417  0.2108  0.0096 -0.9311
 2233TIP3    H128114   6.030   1.236  16.409 -0.5051 -0.2648 -0.3373
 2233TIP3    H228115   6.163   1.167  16.426  0.4358  0.6050 -3.8887
 2234TIP3   OH228116   6.418   0.924  11.972  0.2400 -0.0263 -0.0960
 2234TIP3    H128117   6.390   0.945  11.883 -0.4674  2.3975  0.6494
 2234TIP3    H228118   6.433   0.830  11.971 -0.6097 -0.1736 -2.5400
 2235TIP3   OH228119   1.647   1.164  12.041 -0.2203 -0.4352  0.2522
 2235TIP3    H128120   1.571   1.211  12.074 -0.0784  1.3277 -1.8292
 2235TIP3    H228121   1.610   1.100  11.979 -0.1627 -0.8687  0.6677
 2236TIP3   OH228122   6.348   2.869  10.743  0.7492  0.1406  0.1799
 2236TIP3    H128123   6.425   2.830  10.701  0.6879 -0.0830  0.2753
 2236TIP3    H228124   6.384   2.913  10.820  0.5436 -1.6277  1.3215
 2237TIP3   OH228125   1.154   1.539   4.193  0.4038 -0.3802  0.3632
 2237TIP3    H128126   1.154   1.588   4.110  2.3983 -0.8640  0.0442
 2237TIP3    H228127   1.095   1.466   4.178 -1.5970  1.1965  0.3951
 2238TIP3   OH228128   3.761   3.434   1.314 -0.3096 -0.4605 -0.0285
 2238TIP3    H128129   3.679   3.458   1.271 -0.0377  0.6563  0.0656
 2238TIP3    H228130   3.742   3.442   1.408 -0.1567 -0.4171 -0.0008
 2239TIP3   OH228131   2.896   6.380   4.305  0.1254  0.4307 -0.6540
 2239TIP3    H128132   2.893   6.285   4.315  0.4342  0.4337 -0.5288
 2239TIP3    H228133   2.957   6.395   4.233  1.4274  0.6017  0.4561
 2240TIP3   OH228134   6.736   0.380   4.395 -0.7267  1.0976 -0.2490
 2240TIP3    H128135   6.738   0.471   4.425 -0.0190  0.5044  1.5645
 2240TIP3    H228136   6.669   0.338   4.449 -0.6975  0.4121 -0.7385
 2241TIP3   OH228137   3.478   1.936   3.438  0.3418 -0.1747 -0.1259
 2241TIP3    H128138   3.499   2.018   3.394 -1.6074  1.2708  1.5370
 2241TIP3    H228139   3.518   1.943   3.524  0.1303 -0.9515  0.0435
 2242TIP3   OH228140   4.323   1.769   3.854 -0.1686 -0.2384 -0.5710
 2242TIP3    H128141   4.267   1.833   3.898  2.4608  1.0512  1.0333
 2242TIP3    H228142   4.410   1.810   3.851  0.8090 -2.3182 -2.6355
 2243TIP3   OH228143   3.008   5.051  14.276  0.5404 -0.0693  0.3857
 2243TIP3    H128144   3.087   5.102  14.256 -0.5693  1.6180  0.2381
 2243TIP3    H228145   2.936   5.102  14.239 -0.4049 -2.9776 -1.9868
 2244TIP3   OH228146   2.713   0.473  13.794 -0.4039 -0.4096 -0.7791
 2244TIP3    H128147   2.715   0.378  13.809 -3.8010 -0.6635 -1.4771
 2244TIP3    H228148   2.733   0.511  13.879  0.8594 -1.7238 -0.4540
 2245TIP3   OH228149   3.918   0.553  15.652 -0.2592  0.0868 -0.1856
 2245TIP3    H128150   3.896   0.556  15.745 -0.2604 -0.4042 -0.1700
 2245TIP3    H228151   3.872   0.628  15.614 -2.9368 -1.6040 -0.3787
 2246TIP3   OH228152   3.584   5.846   3.062 -0.0446  0.1112  0.5308
 2246TIP3    H128153   3.581   5.939   3.082 -1.6881  0.1433  0.2026
 2246TIP3    H228154   3.658   5.836   3.002 -0.2715  1.3086  0.0465
 2247TIP3   OH228155   6.609   3.747   2.165 -0.0634  0.2976  0.0227
 2247TIP3    H128156   6.576   3.835   2.151  1.4736  0.5598 -2.3546
 2247TIP3    H228157   6.617   3.710   2.077  0.2433 -1.8525  0.9141
 2248TIP3   OH228158   1.781   2.633   0.854  0.4068  0.0249 -0.4022
 2248TIP3    H128159   1.781   2.537   0.850 -0.6662  0.0168 -0.1939
 2248TIP3    H228160   1.730   2.660   0.777  0.5203  0.4300 -0.3366
 2249TIP3   OH228161   5.770   3.681   5.065 -0.0605  0.1374  0.2658
 2249TIP3    H128162   5.739   3.633   4.988 -1.2924  0.7450  0.3699
 2249TIP3    H228163   5.754   3.773   5.043  1.6715  0.4603  0.3340
 2250TIP3   OH228164   1.855   2.357  14.166  0.0380  0.3549  0.1203
 2250TIP3    H128165   1.896   2.344  14.080  1.8539  1.6713  0.7382
 2250TIP3    H228166   1.918   2.321  14.229 -1.1503 -0.3465  0.9344
 2251TIP3   OH228167   4.600   5.227  10.652  0.1855  0.3869 -0.2582
 2251TIP3    H128168   4.649   5.253  10.730  1.6115 -1.2780 -0.5440
 2251TIP3    H228169   4.517   5.274  10.658 -0.1278 -0.4089  2.7639
 2252TIP3   OH228170   4.896   4.174  14.264 -0.3867  0.5713  0.3996
 2252TIP3    H128171   4.838   4.176  14.340 -1.1670 -0.9232 -0.1532
 2252TIP3    H228172   4.972   4.124  14.293 -0.1328  1.0450  0.5677
 2253TIP3   OH228173   6.766   0.491   3.546  0.2169 -0.2870 -0.2275
 2253TIP3    H128174   6.838   0.438   3.581 -0.8368 -2.1285 -0.7955
 2253TIP3    H228175   6.736   0.543   3.621  2.4130  0.8646 -0.0932
 2254TIP3   OH228176   4.436   3.184   5.044  0.1425  0.6866 -0.0977
 2254TIP3    H128177   4.446   3.135   5.126  2.0333 -0.2853 -0.8816
 2254TIP3    H228178   4.345   3.167   5.018  0.2984 -1.1263  0.4555
 2255TIP3   OH228179   6.396   1.835   3.992 -0.0852 -0.3779  0.5818
 2255TIP3    H128180   6.355   1.878   4.067 -0.0294  0.5661  0.0781
 2255TIP3    H228181   6.490   1.834   4.013  0.0958  1.1732 -0.1057
 2256TIP3   OH228182   3.075   5.477  13.725  0.3385 -0.1529  0.3162
 2256TIP3    H128183   3.016   5.543  13.761  0.8392  0.4417  0.0591
 2256TIP3    H228184   3.078   5.495  13.632 -0.3971 -1.2506  0.0759
 2257TIP3   OH228185   2.319   1.533   2.418 -0.0809  0.1464 -0.2297
 2257TIP3    H128186   2.335   1.605   2.479  0.0588  0.4812 -0.6572
 2257TIP3    H228187   2.253   1.567   2.358 -1.3679 -0.7221  0.6562
 2258TIP3   OH228188   1.412   0.872  10.764 -0.3418 -0.5447 -0.3824
 2258TIP3    H128189   1.396   0.826  10.846  0.5725 -0.6399 -0.2452
 2258TIP3    H228190   1.410   0.803  10.697  1.2463 -0.8346 -0.1520
 2259TIP3   OH228191   0.928   5.208  12.860 -0.2275 -0.0140 -0.1730
 2259TIP3    H128192   0.983   5.286  12.864  0.0296 -0.1691 -0.5975
 2259TIP3    H228193   0.894   5.208  12.770  0.7636 -1.0457 -0.5678
 2260TIP3   OH228194   1.388   3.160   5.434 -0.2294  0.2200  0.3232
 2260TIP3    H128195   1.405   3.226   5.367 -1.0352 -1.8784 -2.0430
 2260TIP3    H228196   1.292   3.153   5.438 -0.1657 -0.4114  0.9362
 2261TIP3   OH228197   1.282   0.535   1.043 -0.0580  0.0961  0.8899
 2261TIP3    H128198   1.298   0.609   0.984 -0.0424 -0.0316  0.7326
 2261TIP3    H228199   1.325   0.560   1.124 -0.2488  0.3606  0.9104
 2262TIP3   OH228200   0.849   5.000   5.005 -0.0187  0.1589  0.5648
 2262TIP3    H128201   0.933   4.975   4.966 -0.5130 -0.5636 -0.0602
 2262TIP3    H228202   0.840   5.093   4.985  0.3795  0.1083  0.1399
 2263TIP3   OH228203   5.960   1.591  14.647  0.2390  0.2143 -0.1808
 2263TIP3    H128204   5.901   1.643  14.593  0.3223  0.4817 -0.0131
 2263TIP3    H228205   5.973   1.510  14.597 -2.7067 -1.1564  1.1703
 2264TIP3   OH228206   3.875   4.306  12.771  0.7116 -0.3182 -0.2446
 2264TIP3    H128207   3.932   4.230  12.757  0.3914 -0.7148  0.5917
 2264TIP3    H228208   3.932   4.381  12.757  1.4421 -0.7165  0.5052
 2265TIP3   OH228209   2.599   4.147  11.701 -0.2594  0.8039  0.0819
 2265TIP3    H128210   2.576   4.237  11.721 -1.8411 -0.1708  2.9883
 2265TIP3    H228211   2.517   4.106  11.675  0.3637  0.0988 -0.8000
 2266TIP3   OH228212   3.169   2.494  13.482 -0.3366 -0.2178  0.4556
 2266TIP3    H128213   3.221   2.461  13.556  0.0061 -1.1204 -0.1755
 2266TIP3    H228214   3.081   2.461  13.499 -0.5737  0.7532  1.1814
 2267TIP3   OH228215   5.454   6.080   0.942  0.4372  0.9578 -0.2071
 2267TIP3    H128216   5.519   6.060   0.873  0.9423 -0.4076  0.6555
 2267TIP3    H228217   5.471   6.172   0.964  0.8525  1.1527 -1.2827
 2268TIP3   OH228218   1.942   5.485  13.107  0.0811  0.3917  0.0902
 2268TIP3    H128219   1.897   5.534  13.038 -0.6703  0.9099  0.9265
 2268TIP3    H228220   2.017   5.445  13.063 -0.9099 -0.0641 -1.2175
 2269TIP3   OH228221   6.565   1.876  16.426 -1.2041 -0.0023 -0.3762
 2269TIP3    H128222   6.607   1.830  16.353 -0.0771 -1.2822  1.0585
 2269TIP3    H228223   6.554   1.965  16.394  0.8715 -0.1149 -1.5015
 2270TIP3   OH228224   1.566   3.978  12.329 -0.1188 -0.3302  0.1711
 2270TIP3    H128225   1.632   4.035  12.367  0.7112  0.2921 -2.1464
 2270TIP3    H228226   1.528   4.029  12.257 -0.0919 -2.2525 -1.2547
 2271TIP3   OH228227   2.606   0.865   3.273  0.7185  0.5397  1.1441
 2271TIP3    H128228   2.599   0.905   3.187  2.2644 -2.9413 -0.7321
 2271TIP3    H228229   2.520   0.875   3.312 -0.2455  1.4452 -1.1357
 2272TIP3   OH228230   0.778   4.583  13.069 -0.1353  0.0234  0.2004
 2272TIP3    H128231   0.868   4.555  13.088  0.3229  1.5279  0.3151
 2272TIP3    H228232   0.777   4.677  13.091 -1.3806  0.3151 -1.0476
 2273TIP3   OH228233   4.806   6.135   1.610 -0.4240  0.3026 -0.3382
 2273TIP3    H128234   4.856   6.188   1.672 -0.0995 -1.3633  0.8778
 2273TIP3    H228235   4.734   6.191   1.583 -2.3849  0.0848  3.9364
 2274TIP3   OH228236   5.128   4.022  16.106 -0.8456  0.5613  0.5161
 2274TIP3    H128237   5.177   4.100  16.131  0.3661 -0.1638  0.5048
 2274TIP3    H228238   5.166   3.952  16.160  0.0733 -0.5418 -1.4782
 2275TIP3   OH228239   4.532   4.505  16.273 -0.1168  0.5779  0.2156
 2275TIP3    H128240   4.628   4.513  16.273 -0.0523 -0.0978 -1.3007
 2275TIP3    H228241   4.516   4.415  16.301 -0.3448  0.8987  1.1425
 2276TIP3   OH228242   2.275   0.401  11.989 -1.0576 -0.9164 -0.0579
 2276TIP3    H128243   2.329   0.402  11.910 -0.8297 -1.6338  0.0833
 2276TIP3    H228244   2.242   0.311  11.994  0.9688 -1.5900  2.0302
 2277TIP3   OH228245   1.239   4.671   5.975  0.0151 -0.0320  0.5191
 2277TIP3    H128246   1.239   4.711   5.888 -0.9971  0.7673  0.8827
 2277TIP3    H228247   1.181   4.726   6.027 -2.6216 -2.8432  0.6475
 2278TIP3   OH228248   5.497   2.237   3.349  0.3177 -0.7096  0.0930
 2278TIP3    H128249   5.443   2.228   3.271 -0.2296 -1.4007  0.5501
 2278TIP3    H228250   5.584   2.258   3.315 -0.1860  0.2103 -0.6456
 2279TIP3   OH228251   6.004   0.191   1.981 -0.1231 -0.0206  0.3777
 2279TIP3    H128252   6.075   0.146   1.934  0.8351  0.0921  1.7019
 2279TIP3    H228253   6.035   0.280   1.992 -0.6736  0.1487  0.5692
 2280TIP3   OH228254   5.048   4.472  13.394 -0.1306 -0.2278 -0.4233
 2280TIP3    H128255   5.003   4.400  13.349 -1.3311  0.1240  0.2172
 2280TIP3    H228256   4.978   4.521  13.438  0.8777  0.2991  0.6097
 2281TIP3   OH228257   6.375   4.625  17.047 -0.5335 -0.1982  0.4719
 2281TIP3    H128258   6.394   4.687  17.117  1.5430  0.0618 -0.2830
 2281TIP3    H228259   6.358   4.543  17.092  0.9410 -0.0739  1.2870
 2282TIP3   OH228260   4.846   5.318   3.521 -0.2219  0.5527  0.6697
 2282TIP3    H128261   4.860   5.265   3.600 -2.2931 -0.9782  0.0858
 2282TIP3    H228262   4.776   5.379   3.545 -1.0814 -0.1305 -0.0492
 2283TIP3   OH228263   5.624   5.635   5.982 -0.4776  0.3334 -0.1007
 2283TIP3    H128264   5.668   5.600   6.059 -2.0435 -1.3245  0.0842
 2283TIP3    H228265   5.574   5.561   5.948 -2.2382  1.8653 -0.9330
 2284TIP3   OH228266   2.754   4.324   5.479  0.3168  1.1801 -0.0522
 2284TIP3    H128267   2.723   4.373   5.556  1.4011  0.1596  1.0627
 2284TIP3    H228268   2.683   4.333   5.415  0.7434  4.7202 -0.1303
 2285TIP3   OH228269   1.032   3.734   2.934  0.5465  0.7503 -0.4529
 2285TIP3    H128270   1.004   3.644   2.920 -0.0251  1.0884 -1.6060
 2285TIP3    H228271   1.007   3.779   2.853  0.4086  2.0356  0.2913
 2286TIP3   OH228272   5.246   3.593   0.198 -0.2935 -0.1228  1.1255
 2286TIP3    H128273   5.175   3.588   0.262  0.7800  2.0078  2.5248
 2286TIP3    H228274   5.272   3.685   0.198  1.6417 -0.6497 -0.2883
 2287TIP3   OH228275   5.253   1.088   3.359 -0.1038  0.4841 -0.4143
 2287TIP3    H128276   5.231   1.139   3.437 -1.6983 -0.4976 -0.1936
 2287TIP3    H228277   5.272   1.001   3.392  2.4819  0.8532 -0.8052
 2288TIP3   OH228278   6.214   2.135  13.101  0.0784 -0.1740  0.5374
 2288TIP3    H128279   6.128   2.113  13.135 -0.3859  0.3933 -0.2438
 2288TIP3    H228280   6.221   2.086  13.019  1.2937 -1.7407  1.5323
 2289TIP3   OH228281   2.862   0.118  13.456 -0.7528 -0.2337 -0.2338
 2289TIP3    H128282   2.832   0.204  13.427 -2.0501  0.2393  2.3383
 2289TIP3    H228283   2.783   0.064  13.454 -0.3064 -0.8920 -0.1376
 2290TIP3   OH228284   5.379   5.573  15.343 -0.8294  0.2525 -0.5492
 2290TIP3    H128285   5.346   5.609  15.261  0.3932  2.2129 -0.2030
 2290TIP3    H228286   5.400   5.650  15.396 -1.6686 -0.9808  1.6419
 2291TIP3   OH228287   2.509   6.253   5.220  0.0452 -0.4165 -0.0979
 2291TIP3    H128288   2.547   6.256   5.132 -0.9093 -1.6808 -0.5602
 2291TIP3    H228289   2.586   6.247   5.278  0.7317  1.7415 -0.7385
 2292TIP3   OH228290   1.988   2.552   6.472 -0.5339  0.2424 -0.2358
 2292TIP3    H128291   2.059   2.491   6.493 -1.9206 -1.3553 -0.1083
 2292TIP3    H228292   2.017   2.597   6.393  0.9353  0.1239  0.2208
 2293TIP3   OH228293   2.120   0.585   1.400 -0.6795  0.3070 -0.6661
 2293TIP3    H128294   2.173   0.511   1.429 -1.7980 -0.0820  0.4218
 2293TIP3    H228295   2.184   0.651   1.372  0.3541 -0.4595 -0.1330
 2294TIP3   OH228296   5.009   0.630  10.679 -0.1055 -0.6975  0.0435
 2294TIP3    H128297   4.952   0.609  10.605 -0.6878 -0.5533  0.4498
 2294TIP3    H228298   5.050   0.547  10.702  0.9322 -0.5218 -1.1604
 2295TIP3   OH228299   2.884   6.671   4.602  0.6458  0.5341 -0.6890
 2295TIP3    H128300   2.973   6.659   4.635  0.5985  2.1691  0.0700
 2295TIP3    H228301   2.890   6.746   4.542 -0.4559  1.4670  0.3395
 2296TIP3   OH228302   0.623   0.226  12.679 -0.5897 -0.2585 -0.2883
 2296TIP3    H128303   0.564   0.175  12.623 -0.6561 -0.4383 -0.0586
 2296TIP3    H228304   0.692   0.164  12.703  0.2656  0.2557 -1.4223
 2297TIP3   OH228305   2.257   2.454   0.026 -0.2696 -0.0005 -0.1028
 2297TIP3    H128306   2.341   2.427   0.066  0.4520  2.7493  0.3201
 2297TIP3    H228307   2.278   2.466  -0.067 -0.9497 -2.2786 -0.5744
 2298TIP3   OH228308   3.736   6.620  17.130 -0.0269  0.0813 -0.2347
 2298TIP3    H128309   3.655   6.570  17.145  0.5224 -0.8011 -0.1847
 2298TIP3    H228310   3.805   6.566  17.167  0.6676  0.5438 -0.8352
 2299TIP3   OH228311   0.473   3.038  15.100 -0.4729  0.2087  0.6339
 2299TIP3    H128312   0.564   3.068  15.103  0.4006 -2.2882  0.1861
 2299TIP3    H228313   0.432   3.092  15.033  0.7814  1.0345  0.5093
 2300TIP3   OH228314   6.726   6.485  13.345 -0.3279 -0.2103 -0.0478
 2300TIP3    H128315   6.679   6.473  13.428 -0.5945  0.7061 -0.0571
 2300TIP3    H228316   6.819   6.479  13.368 -0.4385 -2.0934 -0.0370
 2301TIP3   OH228317   2.373   0.660   3.574  0.3385 -0.4650 -0.0465
 2301TIP3    H128318   2.459   0.619   3.570 -0.9578 -3.3312 -0.4142
 2301TIP3    H228319   2.363   0.686   3.665  1.1945 -1.0615  0.2313
 2302TIP3   OH228320   5.747   2.050   6.637 -0.0479 -0.2056  0.5984
 2302TIP3    H128321   5.767   1.970   6.588  0.0176  0.0213  0.2597
 2302TIP3    H228322   5.743   2.021   6.728  1.2825 -0.3538  0.6190
 2303TIP3   OH228323   5.593   6.238  10.862  0.0088 -0.2200 -0.6438
 2303TIP3    H128324   5.647   6.186  10.803 -0.4215 -2.1132  0.6017
 2303TIP3    H228325   5.652   6.305  10.896  0.8310 -0.5124 -1.4808
 2304TIP3   OH228326   0.844   4.868   4.435  0.5138  0.1380  0.2021
 2304TIP3    H128327   0.912   4.814   4.475 -0.3322 -1.4579 -0.4521
 2304TIP3    H228328   0.769   4.809   4.427 -0.3737  1.3716 -0.6868
 2305TIP3   OH228329   3.384   4.057   2.758  0.4001 -0.0288  0.3129
 2305TIP3    H128330   3.346   4.140   2.786  0.8528 -0.4438  2.2674
 2305TIP3    H228331   3.331   3.990   2.801 -0.2738 -0.8026 -1.6461
 2306TIP3   OH228332   0.888   2.231  13.310 -0.0617 -0.6797  0.2064
 2306TIP3    H128333   0.847   2.313  13.282 -1.4374 -1.9309 -1.5017
 2306TIP3    H228334   0.966   2.259  13.358 -1.4493  1.6816  1.1872
 2307TIP3   OH228335   2.442   4.539   2.889 -0.8579 -0.5381 -0.2319
 2307TIP3    H128336   2.355   4.550   2.927 -0.7058 -0.2613  0.0406
 2307TIP3    H228337   2.443   4.449   2.856 -1.2879 -0.5047 -0.3404
 2308TIP3   OH228338   2.851   1.097  10.726  0.3084 -0.1370 -0.3692
 2308TIP3    H128339   2.781   1.160  10.744  0.4722 -0.4382  1.4093
 2308TIP3    H228340   2.822   1.016  10.767  1.0450 -0.6501 -0.8513
 2309TIP3   OH228341   1.490   3.316  13.233  0.1751 -0.7224  0.0772
 2309TIP3    H128342   1.428   3.339  13.164  1.2950 -0.9950 -1.0374
 2309TIP3    H228343   1.567   3.285  13.186  1.2704 -0.0962  1.4378
 2310TIP3   OH228344   1.468   1.861   6.075  0.1691  0.0473 -0.4370
 2310TIP3    H128345   1.532   1.901   6.015  0.8251  0.7650  0.7310
 2310TIP3    H228346   1.479   1.910   6.157 -0.0863 -1.5362  0.5482
 2311TIP3   OH228347   1.172   3.376   2.612 -0.2324  0.0975 -0.2268
 2311TIP3    H128348   1.232   3.394   2.540 -1.4221  2.3382 -0.7053
 2311TIP3    H228349   1.221   3.404   2.690  0.2591 -0.3534 -0.3717
 2312TIP3   OH228350   1.800   5.418   2.450  0.5870  0.2661  0.5042
 2312TIP3    H128351   1.795   5.403   2.544 -0.9902 -1.7220  0.1240
 2312TIP3    H228352   1.800   5.330   2.411  2.4641  1.0109 -1.3081
 2313TIP3   OH228353   1.324   0.190  10.669 -0.2457 -0.5637  0.1027
 2313TIP3    H128354   1.242   0.231  10.643 -0.6687 -0.7696  1.1163
 2313TIP3    H228355   1.325   0.195  10.764  0.8142 -0.7617  0.1115
 2314TIP3   OH228356   5.950   2.127   2.776 -0.2646 -0.1015  0.2838
 2314TIP3    H128357   5.910   2.069   2.711 -0.9635 -1.1889  1.6599
 2314TIP3    H228358   5.879   2.146   2.838  0.7910 -0.3130  1.5734
 2315TIP3   OH228359   3.662   0.852   2.258 -0.2532  0.0009 -0.4980
 2315TIP3    H128360   3.613   0.918   2.210  0.7086  0.8293 -0.3503
 2315TIP3    H228361   3.646   0.872   2.350 -1.8240 -1.3838 -0.4246
 2316TIP3   OH228362   2.152   4.052  14.392  0.1977 -0.6114 -0.3404
 2316TIP3    H128363   2.194   4.137  14.375  1.6665 -1.3797 -0.5981
 2316TIP3    H228364   2.096   4.038  14.316 -1.1693  0.7994  0.3831
 2317TIP3   OH228365   6.467   6.423  13.913  0.0036  0.0849 -1.0398
 2317TIP3    H128366   6.562   6.429  13.923 -0.1943  1.0206  0.5801
 2317TIP3    H228367   6.437   6.513  13.921 -1.0151 -0.1882 -1.7137
 2318TIP3   OH228368   1.789   2.606   2.059  0.1335 -0.3095  0.0399
 2318TIP3    H128369   1.705   2.566   2.037 -0.4069  2.1843 -2.7168
 2318TIP3    H228370   1.775   2.643   2.147 -0.7360 -2.2861  0.7465
 2319TIP3   OH228371   3.366   0.412   5.298  0.3385  0.3696  0.1026
 2319TIP3    H128372   3.393   0.485   5.354 -1.6539  0.3829  1.1142
 2319TIP3    H228373   3.447   0.372   5.269  1.4330  1.6398  1.3531
 2320TIP3   OH228374   6.281   4.686   4.581 -0.0192 -0.3105  0.0222
 2320TIP3    H128375   6.333   4.625   4.633 -0.9774 -1.0483  0.1345
 2320TIP3    H228376   6.297   4.660   4.490  0.6985  0.1989 -0.0030
 2321TIP3   OH228377   2.545   2.222   3.172 -0.0677  0.8074  0.1768
 2321TIP3    H128378   2.633   2.259   3.179 -0.5827  2.0754  0.0733
 2321TIP3    H228379   2.544   2.179   3.086  0.3199  1.1283  0.0118
 2322TIP3   OH228380   1.571   5.778   0.994 -0.2312 -0.0374  1.3584
 2322TIP3    H128381   1.619   5.853   0.960 -0.3946 -0.9734 -1.0648
 2322TIP3    H228382   1.612   5.702   0.952 -1.7026 -1.1033  1.7872
 2323TIP3   OH228383   5.474   1.803   2.033  0.1261  0.0501  0.4329
 2323TIP3    H128384   5.405   1.824   2.097 -1.5823  1.4153 -1.7811
 2323TIP3    H228385   5.523   1.732   2.074 -2.7577 -1.1558  1.9926
 2324TIP3   OH228386   3.370   5.796   0.479  0.2908 -0.0961  0.4889
 2324TIP3    H128387   3.417   5.713   0.474  0.5839  0.1011 -0.0315
 2324TIP3    H228388   3.438   5.862   0.475  0.0105  0.1816  0.3016
 2325TIP3   OH228389   3.327   0.163   2.356  0.2738 -0.1701  0.2801
 2325TIP3    H128390   3.420   0.158   2.377  0.3282  2.2919  0.7778
 2325TIP3    H228391   3.298   0.246   2.394 -1.8543 -0.3128 -0.9321
 2326TIP3   OH228392   4.829   0.044  14.300 -0.2674  0.0594  0.0600
 2326TIP3    H128393   4.787  -0.032  14.259 -1.0190  0.7410 -0.4405
 2326TIP3    H228394   4.781   0.119  14.266  1.5656  0.8746 -0.7684
 2327TIP3   OH228395   6.657   0.812  14.607  0.7209  0.0272 -0.1499
 2327TIP3    H128396   6.681   0.787  14.696 -0.0288  1.3323  0.4342
 2327TIP3    H228397   6.572   0.770  14.592  0.7712 -0.0620 -0.1812
 2328TIP3   OH228398   4.371   2.618   1.862  0.1935 -0.4826  0.8587
 2328TIP3    H128399   4.298   2.555   1.870 -0.5082 -0.7111 -4.9599
 2328TIP3    H228400   4.330   2.697   1.828  2.3150  0.2983  0.0795
 2329TIP3   OH228401   5.156   1.542   1.039 -0.3324  0.0427  0.1254
 2329TIP3    H128402   5.152   1.598   1.117  0.7090  1.4038 -0.7868
 2329TIP3    H228403   5.246   1.510   1.037 -0.0196  1.0129 -1.2245
 2330TIP3   OH228404   5.533   2.818  16.035  0.5197  0.1184 -0.1209
 2330TIP3    H128405   5.460   2.823  15.973  0.6815 -0.9025 -0.3974
 2330TIP3    H228406   5.492   2.795  16.118  0.5709 -0.7878 -0.3490
 2331TIP3   OH228407   3.881   2.372  11.731 -0.6788  0.3174  0.3633
 2331TIP3    H128408   3.922   2.289  11.707  1.3936  1.3257  0.2136
 2331TIP3    H228409   3.823   2.392  11.658  0.2478 -0.0925 -0.5086
 2332TIP3   OH228410   4.257   3.133   2.762  0.3340  0.1170  0.2875
 2332TIP3    H128411   4.346   3.159   2.785  0.0324  0.4831  1.0436
 2332TIP3    H228412   4.200   3.186   2.818 -0.5944  3.7642 -3.7958
 2333TIP3   OH228413   4.585   5.900   4.920 -0.3794 -0.0576  0.1201
 2333TIP3    H128414   4.551   5.946   4.842 -1.7473 -1.9592 -0.4341
 2333TIP3    H228415   4.559   5.809   4.907  0.5799 -0.6388  2.1721
 2334TIP3   OH228416   6.336   2.091   1.260 -0.5112 -0.5165 -0.1784
 2334TIP3    H128417   6.370   2.122   1.344  0.9457 -0.5281 -0.7368
 2334TIP3    H228418   6.284   2.164   1.227  0.5614  0.2724 -0.1723
 2335TIP3   OH228419   5.673   2.310  15.186  0.2400 -0.1382 -0.3170
 2335TIP3    H128420   5.653   2.262  15.267 -0.8745  0.3795 -0.2811
 2335TIP3    H228421   5.655   2.402  15.207  0.5950  0.0826 -0.9549
 2336TIP3   OH228422   4.394   0.404   0.524  0.3234 -0.3420  0.2800
 2336TIP3    H128423   4.364   0.318   0.494  0.9819 -0.0814 -1.1756
 2336TIP3    H228424   4.317   0.443   0.567 -0.5077 -0.9371 -0.6458
 2337TIP3   OH228425   6.694   4.009   1.339 -0.3146 -0.1515 -1.1423
 2337TIP3    H128426   6.643   4.080   1.377  2.4058  2.2972 -1.8593
 2337TIP3    H228427   6.697   4.028   1.246  2.4153  0.1586 -1.0318
 2338TIP3   OH228428   4.503   3.316  14.537  0.4445 -0.6786  0.1468
 2338TIP3    H128429   4.584   3.368  14.545 -0.1146  0.1424  0.5492
 2338TIP3    H228430   4.472   3.306  14.627 -0.2392 -0.4421 -0.0562
 2339TIP3   OH228431   0.131   4.941  12.565 -0.0137  0.3649  0.4221
 2339TIP3    H128432   0.158   4.858  12.525 -2.1246  1.0070 -2.4474
 2339TIP3    H228433   0.043   4.924  12.598  0.6753  0.6459  2.4681
 2340TIP3   OH228434   5.209   0.605  11.960  0.1049 -0.1718  0.5902
 2340TIP3    H128435   5.239   0.515  11.966 -0.0766 -0.1870  1.3154
 2340TIP3    H228436   5.114   0.598  11.955  0.1288 -0.0521 -0.0767
 2341TIP3   OH228437   1.363   2.900  11.913  0.4445 -0.3857 -0.4902
 2341TIP3    H128438   1.427   2.937  11.974 -1.3547  0.2045  1.0911
 2341TIP3    H228439   1.383   2.807  11.911 -0.5969 -0.7182  2.4337
 2342TIP3   OH228440   2.165   5.058  12.301  0.4784  0.1932 -0.4634
 2342TIP3    H128441   2.164   5.093  12.390  1.0475 -1.0453  0.0473
 2342TIP3    H228442   2.255   5.028  12.289  1.0611  2.4866 -2.3256
 2343TIP3   OH228443   0.283   2.221  10.692 -0.2261  0.4989  0.1781
 2343TIP3    H128444   0.247   2.235  10.605  1.7780 -1.5266 -1.0249
 2343TIP3    H228445   0.277   2.127  10.707  1.4759  0.5367  1.2946
 2344TIP3   OH228446   1.554   3.955   3.566 -0.0430  0.1918 -1.1578
 2344TIP3    H128447   1.565   3.913   3.481  0.4802 -0.1159 -0.9381
 2344TIP3    H228448   1.495   3.897   3.614  0.0954  0.0860 -1.1160
 2345TIP3   OH228449   1.155   1.926  10.556 -0.5574  0.2771  0.4239
 2345TIP3    H128450   1.145   1.986  10.629 -2.0295  1.3727 -0.6422
 2345TIP3    H228451   1.093   1.855  10.573 -1.8556  1.1970 -0.3954
 2346TIP3   OH228452   2.430   3.988  17.127  0.0824 -0.0607  0.4356
 2346TIP3    H128453   2.440   3.992  17.032  2.7411 -0.0825  0.6737
 2346TIP3    H228454   2.490   4.054  17.161  1.9166 -2.5250  2.1980
 2347TIP3   OH228455   1.983   5.247  11.273  0.4828  1.0942  0.1089
 2347TIP3    H128456   2.040   5.322  11.287  2.1955 -0.5230  2.3592
 2347TIP3    H228457   1.987   5.199  11.356 -1.2438 -1.0013 -0.9696
 2348TIP3   OH228458   4.892   4.708   5.231  0.7590 -0.3706 -0.2161
 2348TIP3    H128459   4.915   4.780   5.289  1.2793 -1.2716  0.7102
 2348TIP3    H228460   4.887   4.747   5.144 -1.2680  1.2644  0.5799
 2349TIP3   OH228461   2.144   0.064   2.110  0.2642 -0.3604 -0.4562
 2349TIP3    H128462   2.128   0.064   2.205 -1.6197  1.2061 -0.7425
 2349TIP3    H228463   2.172   0.153   2.091  1.9670 -1.0295 -1.2035
 2350TIP3   OH228464   5.764   5.747   4.631 -0.5804 -0.3253 -0.3573
 2350TIP3    H128465   5.752   5.674   4.693 -0.6614  0.3306  0.4052
 2350TIP3    H228466   5.859   5.757   4.624 -0.5429  1.7305  2.2207
 2351TIP3   OH228467   1.105   1.285  13.336 -0.8831 -0.2062  0.5032
 2351TIP3    H128468   1.061   1.234  13.404  1.0202 -1.0545  1.1284
 2351TIP3    H228469   1.072   1.374  13.349 -0.1407 -0.2360  2.9446
 2352TIP3   OH228470   3.296   1.177  15.912  0.4070 -0.5337  0.5911
 2352TIP3    H128471   3.223   1.222  15.870  0.4196  0.4468  1.5897
 2352TIP3    H228472   3.279   1.084  15.897 -1.0538 -0.3216  0.8339
 2353TIP3   OH228473   5.350   1.097  17.094  0.1612  0.1337  0.1108
 2353TIP3    H128474   5.303   1.081  17.176 -0.8473 -0.3815 -0.5582
 2353TIP3    H228475   5.386   1.185  17.103  0.8206 -0.2569  1.4707
 2354TIP3   OH228476   4.166   6.082   5.942  0.0188  0.5026 -0.2407
 2354TIP3    H128477   4.170   6.177   5.957  1.7811  0.4896 -0.5509
 2354TIP3    H228478   4.145   6.074   5.849  0.9233  0.5952 -0.4563
 2355TIP3   OH228479   2.002   2.473   5.681 -0.1318  0.1574  0.4410
 2355TIP3    H128480   1.939   2.436   5.743  1.5137 -2.1374  0.8157
 2355TIP3    H228481   2.085   2.472   5.729  0.8371 -0.1006 -1.2378
 2356TIP3   OH228482   1.143   5.557   0.068  0.0984  0.0710 -0.1486
 2356TIP3    H128483   1.179   5.631   0.118 -1.8885  0.0730  1.3499
 2356TIP3    H228484   1.087   5.599   0.002  0.9552 -0.0221 -0.9464
 2357TIP3   OH228485   1.338   1.467   0.414 -0.0329 -0.3307  0.4702
 2357TIP3    H128486   1.397   1.543   0.421 -0.5622 -0.0674  2.5186
 2357TIP3    H228487   1.379   1.400   0.469  0.5504 -1.6475 -1.5178
 2358TIP3   OH228488   0.727   6.377  11.679 -0.2079 -0.0272  0.3604
 2358TIP3    H128489   0.806   6.339  11.641 -0.6617 -0.1315 -0.5040
 2358TIP3    H228490   0.655   6.335  11.630 -0.6818  4.2888 -2.9852
 2359TIP3   OH228491   5.220   3.735   5.791  0.4764 -0.0345  0.2287
 2359TIP3    H128492   5.283   3.801   5.761 -1.0415  1.3732  0.0972
 2359TIP3    H228493   5.263   3.695   5.866  2.2949 -0.3272 -0.9219
 2360TIP3   OH228494   0.400   1.619  12.514 -0.3397  0.7175 -0.5841
 2360TIP3    H128495   0.404   1.705  12.556 -1.4915 -0.0722  1.1723
 2360TIP3    H228496   0.320   1.622  12.461 -1.3993  0.0869  0.9525
 2361TIP3   OH228497   3.471   1.894   1.318 -0.2696  0.0163  0.0526
 2361TIP3    H128498   3.404   1.962   1.313 -2.4286 -2.1067 -1.1350
 2361TIP3    H228499   3.436   1.831   1.381  0.6367 -1.0893 -0.5312
 2362TIP3   OH228500   2.083   1.104   0.506  0.4098  0.5718 -0.7144
 2362TIP3    H128501   2.125   1.027   0.544 -2.8221 -1.1904 -0.4933
 2362TIP3    H228502   2.115   1.107   0.415  0.1934 -1.3365 -0.8657
 2363TIP3   OH228503   5.528   6.274   1.562  0.6240  0.3664 -0.2205
 2363TIP3    H128504   5.531   6.191   1.514  1.1963 -0.7761  1.7152
 2363TIP3    H228505   5.617   6.309   1.555  0.1820  1.2108 -1.6898
 2364TIP3   OH228506   2.491   6.093   4.393 -0.1027 -0.4266  0.5625
 2364TIP3    H128507   2.423   6.080   4.328  1.5705 -1.6449 -1.0067
 2364TIP3    H228508   2.518   6.184   4.384  0.2039 -0.6232 -0.5533
 2365TIP3   OH228509   3.112   3.505  11.730 -0.2885 -0.5554 -0.0454
 2365TIP3    H128510   3.033   3.453  11.744 -1.4904  1.4004  0.5951
 2365TIP3    H228511   3.106   3.576  11.794 -0.0805  1.9186 -2.6629
 2366TIP3   OH228512   0.308   1.966   2.785 -0.0109  0.0916  0.5094
 2366TIP3    H128513   0.365   1.906   2.834 -2.7069 -1.0082  2.4241
 2366TIP3    H228514   0.241   1.910   2.747 -1.9789  1.7583  1.4487
 2367TIP3   OH228515   5.014   0.272   3.850 -0.0620  0.0136 -0.3170
 2367TIP3    H128516   4.941   0.309   3.900  0.6003  0.1515  0.5554
 2367TIP3    H228517   5.076   0.345   3.841  0.3073 -0.3074 -0.4008
 2368TIP3   OH228518   2.527   1.403   0.664 -0.1752 -0.3608 -0.1501
 2368TIP3    H128519   2.515   1.447   0.748 -1.5641 -2.5309  0.8534
 2368TIP3    H228520   2.527   1.473   0.600  0.3554  1.2962  1.6193
 2369TIP3   OH228521   6.357   5.350   4.854 -0.7082 -0.1556 -0.1399
 2369TIP3    H128522   6.280   5.306   4.891 -1.9643  0.8938 -1.3996
 2369TIP3    H228523   6.414   5.367   4.929 -2.6495  0.8574  1.1506
 2370TIP3   OH228524   0.020   3.048   2.686 -0.0943  0.0970 -0.3244
 2370TIP3    H128525  -0.009   2.957   2.678  1.0774 -0.2699 -0.4261
 2370TIP3    H228526  -0.039   3.098   2.629 -1.3496 -0.4545  0.4479
 2371TIP3   OH228527   0.178   2.304   1.791 -0.4813  0.5442  0.1693
 2371TIP3    H128528   0.083   2.311   1.802 -0.0680  0.7843  4.3799
 2371TIP3    H228529   0.203   2.228   1.843  1.8064  1.4308  0.4248
 2372TIP3   OH228530   6.524   5.578  14.704  0.1105  0.2848 -0.1888
 2372TIP3    H128531   6.457   5.647  14.695  0.1301  0.5640  1.5480
 2372TIP3    H228532   6.498   5.531  14.783  0.8939 -0.8331 -0.5916
 2373TIP3   OH228533   1.411   0.207  13.710 -0.1451 -0.4690  0.9658
 2373TIP3    H128534   1.488   0.263  13.704 -0.9724  0.5859 -0.0245
 2373TIP3    H228535   1.424   0.142  13.641  0.2436 -0.7846  1.3331
 2374TIP3   OH228536   2.170   3.402   2.735 -0.9948 -0.7205 -0.1989
 2374TIP3    H128537   2.097   3.341   2.723 -0.8709 -1.0706  0.7371
 2374TIP3    H228538   2.139   3.464   2.802 -0.8711 -0.1598 -0.6594
 2375TIP3   OH228539   6.318   4.183   5.004 -0.4140 -0.0375  0.1153
 2375TIP3    H128540   6.348   4.106   4.956  0.1810 -0.5410  1.2830
 2375TIP3    H228541   6.311   4.154   5.095 -0.1879  1.2882  0.5703
 2376TIP3   OH228542   2.698   3.751   0.563 -0.0036 -0.0068  0.2976
 2376TIP3    H128543   2.746   3.668   0.555  0.1825  0.1018  0.3021
 2376TIP3    H228544   2.751   3.804   0.621  0.5184  0.5840 -0.7012
 2377TIP3   OH228545   3.369   0.456   2.900 -0.0549  0.0252 -0.0774
 2377TIP3    H128546   3.393   0.517   2.830  0.6441  0.3378  0.4253
 2377TIP3    H228547   3.336   0.512   2.970  0.4051 -0.1879  0.3122
 2378TIP3   OH228548   1.108   0.739  11.787  0.5742  0.7651  0.0722
 2378TIP3    H128549   1.110   0.661  11.732  0.3692 -0.4042  1.6876
 2378TIP3    H228550   1.018   0.743  11.819  1.4866 -0.4816  2.9720
 2379TIP3   OH228551   2.399   6.127  13.652  0.3562  0.3636  0.4486
 2379TIP3    H128552   2.403   6.112  13.558 -1.5587 -0.5510  0.4940
 2379TIP3    H228553   2.360   6.215  13.660 -0.0199  0.2043  0.3894
 2380TIP3   OH228554   6.295   3.592   1.918 -0.1588  0.8590 -0.4051
 2380TIP3    H128555   6.215   3.645   1.920 -0.3419  0.6308 -1.8172
 2380TIP3    H228556   6.278   3.522   1.981 -0.3358  1.8480  0.6761
 2381TIP3   OH228557   2.707   2.733  12.908 -0.5553  0.0656 -0.0698
 2381TIP3    H128558   2.640   2.732  12.840  0.2102  3.0749 -0.9473
 2381TIP3    H228559   2.659   2.733  12.991 -1.5617 -0.6953 -0.6514
 2382TIP3   OH228560   3.953   1.278   5.780 -0.4674 -0.7043  0.3527
 2382TIP3    H128561   3.909   1.324   5.852  1.2149  0.7682  0.4801
 2382TIP3    H228562   3.882   1.239   5.729 -1.8029  0.1483  1.5280
 2383TIP3   OH228563   6.755   1.855  17.024 -0.8082 -0.1696 -0.5053
 2383TIP3    H128564   6.784   1.944  17.006 -1.7239 -0.1258 -1.8323
 2383TIP3    H228565   6.827   1.815  17.073  0.1036  0.9269 -0.9333
 2384TIP3   OH228566   4.199   1.928   3.239 -0.3045  0.0316  0.2680
 2384TIP3    H128567   4.250   1.894   3.165  2.2874  0.8209  1.6473
 2384TIP3    H228568   4.166   1.850   3.283  1.7570 -0.5868  0.7577
 2385TIP3   OH228569   5.619   5.852   5.318 -0.0589  0.1907  0.6192
 2385TIP3    H128570   5.617   5.942   5.350  0.4672  0.5474 -0.3567
 2385TIP3    H228571   5.667   5.804   5.386  1.4623  1.0383  0.1791
 2386TIP3   OH228572   3.856   1.306   0.053 -0.1747  0.2179 -0.3187
 2386TIP3    H128573   3.938   1.261   0.073 -1.9163 -2.8221  0.3196
 2386TIP3    H228574   3.788   1.243   0.078 -2.6931  2.5625 -1.0904
 2387TIP3   OH228575   2.625   0.559   5.271  0.0123 -0.1321  0.4619
 2387TIP3    H128576   2.611   0.653   5.288 -1.0287 -0.1722 -0.1271
 2387TIP3    H228577   2.539   0.526   5.246  0.4613 -1.1679  0.2561
 2388TIP3   OH228578   5.595   5.114  16.503  0.0646  0.4176  0.3210
 2388TIP3    H128579   5.503   5.123  16.525 -0.0772  2.0690 -0.7920
 2388TIP3    H228580   5.641   5.159  16.573 -0.0872  0.9864  0.0642
 2389TIP3   OH228581   5.154   5.963  12.633  0.5859 -0.2489 -0.8872
 2389TIP3    H128582   5.159   5.880  12.679  1.6698 -0.3886 -1.2494
 2389TIP3    H228583   5.149   5.939  12.540  1.0918  0.0945 -1.0041
 2390TIP3   OH228584   2.070   3.453   4.921 -0.4962 -0.2731  0.0529
 2390TIP3    H128585   2.164   3.470   4.934 -0.6671  1.3637 -0.7302
 2390TIP3    H228586   2.059   3.362   4.946  1.2216 -0.3426  0.6499
 2391TIP3   OH228587   5.382   6.617  17.011  0.4440  0.5838 -0.0880
 2391TIP3    H128588   5.340   6.669  16.942  1.5558  0.4233 -0.8996
 2391TIP3    H228589   5.310   6.589  17.067 -0.5150  0.4264 -1.3733
 2392TIP3   OH228590   2.144   2.192   0.713  0.3016 -0.7253  0.4561
 2392TIP3    H128591   2.133   2.273   0.663 -0.3470 -1.1336 -0.0750
 2392TIP3    H228592   2.187   2.220   0.795 -0.9638  0.3228  0.7815
 2393TIP3   OH228593   1.420   4.397   4.054 -0.4042 -0.6201  0.3060
 2393TIP3    H128594   1.397   4.328   3.991 -1.1371 -1.2620  1.2740
 2393TIP3    H228595   1.421   4.353   4.139 -1.4107  0.6633  1.0060
 2394TIP3   OH228596   2.420   5.530  14.036 -0.0202 -0.0685  0.5330
 2394TIP3    H128597   2.373   5.613  14.029  1.0264  0.4183 -0.8662
 2394TIP3    H228598   2.416   5.509  14.130  0.6237  2.0918  1.0828
 2395TIP3   OH228599   6.038   2.908   4.839  0.1379  0.3101  0.2707
 2395TIP3    H128600   5.973   2.869   4.898  1.3025 -1.0559  0.6763
 2395TIP3    H228601   5.989   2.928   4.759 -0.7237 -1.0054  0.4578
 2396TIP3   OH228602   4.631   0.298   0.631 -0.2210  0.7431  0.2767
 2396TIP3    H128603   4.544   0.332   0.610 -0.8856 -0.8685  0.3555
 2396TIP3    H228604   4.616   0.206   0.653  1.7562 -0.0610 -1.5616
 2397TIP3   OH228605   0.139   1.798  16.076  0.9307 -0.0053 -0.1747
 2397TIP3    H128606   0.180   1.883  16.092  1.1871  0.0206 -0.9605
 2397TIP3    H228607   0.118   1.798  15.983  2.3578 -1.4177 -0.5363
 2398TIP3   OH228608   0.139   0.006  17.229 -0.1156  0.8007  0.1838
 2398TIP3    H128609   0.052   0.023  17.195  0.6681  0.2336 -2.1851
 2398TIP3    H228610   0.172   0.091  17.256 -0.5908  1.3410 -0.9089
 2399TIP3   OH228611   3.974   6.571   1.766  0.2154  0.2206  0.3306
 2399TIP3    H128612   3.907   6.503   1.767 -0.3293  0.7292 -0.7316
 2399TIP3    H228613   4.049   6.533   1.813 -0.8805 -0.2764  1.6960
 2400TIP3   OH228614   5.857   1.249  14.874  0.2669  0.0625 -0.2460
 2400TIP3    H128615   5.925   1.302  14.831 -1.2725  1.6875 -0.7538
 2400TIP3    H228616   5.786   1.246  14.810 -1.4078  1.1042  1.5408
 2401TIP3   OH228617   6.138   1.879  14.768 -0.4054  0.3389  0.1516
 2401TIP3    H128618   6.101   1.814  14.827  1.6024 -0.3955  0.6638
 2401TIP3    H228619   6.169   1.949  14.826 -0.7412  0.8136 -0.2345
 2402TIP3   OH228620   0.697   1.875  12.738 -0.5353 -0.3804 -0.9696
 2402TIP3    H128621   0.703   1.867  12.833 -1.9641 -2.4615 -1.0368
 2402TIP3    H228622   0.726   1.965  12.720  1.6548 -0.6116  1.2296
 2403TIP3   OH228623   0.513   4.001  16.968  0.2081  0.1204 -0.5720
 2403TIP3    H128624   0.589   3.948  16.948  2.3626  2.1602  1.8810
 2403TIP3    H228625   0.445   3.939  16.994  1.7135 -1.5468 -0.6144
 2404TIP3   OH228626   1.522   4.437  15.310  0.8300 -0.0574 -0.7030
 2404TIP3    H128627   1.449   4.436  15.372 -0.7047  1.3164 -2.4347
 2404TIP3    H228628   1.527   4.347  15.278  1.0486 -0.5688  0.7057
 2405TIP3   OH228629   4.550   6.086  13.011 -0.0926  0.2232  0.0201
 2405TIP3    H128630   4.468   6.066  12.966  0.6740 -1.0078 -0.8652
 2405TIP3    H228631   4.575   6.172  12.980  0.0449 -0.3073 -1.3570
 2406TIP3   OH228632   3.158   3.548   1.394 -0.8284  0.0844 -0.4466
 2406TIP3    H128633   3.107   3.625   1.372 -0.4721  0.0015 -1.5681
 2406TIP3    H228634   3.244   3.582   1.421 -0.7645  0.0971 -0.6658
 2407TIP3   OH228635   4.429   2.382   2.349  0.7236  0.4040  0.4319
 2407TIP3    H128636   4.490   2.452   2.371  1.8909 -0.9534  1.6738
 2407TIP3    H228637   4.435   2.322   2.423 -0.6897 -0.7156 -0.3400
 2408TIP3   OH228638   1.348   5.785  12.415 -0.1525  0.2077 -0.2331
 2408TIP3    H128639   1.410   5.803  12.344  0.3724  1.4815  0.5250
 2408TIP3    H228640   1.391   5.720  12.470  0.3559  0.8131  0.0846
 2409TIP3   OH228641   4.774   5.255  14.622 -0.2429  0.5895 -0.3354
 2409TIP3    H128642   4.789   5.336  14.670 -0.0481  1.0196 -1.1005
 2409TIP3    H228643   4.690   5.223  14.653 -0.2838  1.0518  0.0255
 2410TIP3   OH228644   4.426   0.082  16.113 -0.8518 -0.2051 -0.1015
 2410TIP3    H128645   4.448   0.059  16.023 -4.3951 -1.7293 -0.6663
 2410TIP3    H228646   4.391   0.001  16.151  1.1979  0.2370  2.8717
 2411TIP3   OH228647   4.256   3.171  16.134  0.2106 -0.1682  0.1997
 2411TIP3    H128648   4.318   3.207  16.070 -1.9424  1.3217 -1.1009
 2411TIP3    H228649   4.170   3.198  16.102 -0.9574  0.1892  3.4701
 2412TIP3   OH228650   2.631   4.761  12.994  0.0904  0.0156  0.3533
 2412TIP3    H128651   2.665   4.758  12.905  1.3739 -0.0045  0.8329
 2412TIP3    H228652   2.654   4.675  13.031 -0.4508  0.0171  0.7016
 2413TIP3   OH228653   3.124   4.074   4.146 -0.1412  0.7618 -0.3189
 2413TIP3    H128654   3.115   4.031   4.231  1.1376  2.9590  0.9577
 2413TIP3    H228655   3.214   4.058   4.119  0.2743  2.3870  0.0476
 2414TIP3   OH228656   5.673   5.241   2.479 -0.7825 -0.4882  0.1626
 2414TIP3    H128657   5.707   5.158   2.511 -1.7763 -1.0519 -0.1982
 2414TIP3    H228658   5.660   5.228   2.385  1.1932  0.8323 -0.3254
 2415TIP3   OH228659   5.203   6.543   2.134  0.4270  0.4447 -0.2783
 2415TIP3    H128660   5.109   6.549   2.150  0.3360 -2.3421  0.5032
 2415TIP3    H228661   5.211   6.505   2.047  0.8410  0.8101 -0.4054
 2416TIP3   OH228662   1.030   2.325  16.357 -0.3904  0.0917  0.5317
 2416TIP3    H128663   0.943   2.340  16.319  0.1781  0.3546 -0.6599
 2416TIP3    H228664   1.091   2.354  16.290  0.6221  0.7675  1.7291
 2417TIP3   OH228665   0.930   6.082  12.612  0.1718 -0.2509 -0.0436
 2417TIP3    H128666   0.972   6.067  12.696  1.1817 -1.4349 -0.7517
 2417TIP3    H228667   0.994   6.052  12.547 -1.9230 -2.4831 -1.1225
 2418TIP3   OH228668   6.289   0.720  13.278  0.1508  0.7984 -0.0245
 2418TIP3    H128669   6.229   0.786  13.312 -0.4564  1.4312 -2.2425
 2418TIP3    H228670   6.232   0.649  13.248  0.6576  0.3583  0.0427
 2419TIP3   OH228671   4.076   2.535  15.347 -0.1225 -0.1247 -0.8885
 2419TIP3    H128672   3.998   2.555  15.399 -0.1841 -0.3148 -0.9083
 2419TIP3    H228673   4.089   2.441  15.358  1.4694  0.2918  0.9829
 2420TIP3   OH228674   4.249   3.124   1.001  0.2875  0.3079 -0.4897
 2420TIP3    H128675   4.282   3.214   0.998  1.2550 -0.0762 -2.3085
 2420TIP3    H228676   4.159   3.130   0.969 -1.1817  1.2086  3.4899
 2421TIP3   OH228677   4.270   4.482   3.604  0.1212  0.1942  0.0591
 2421TIP3    H128678   4.296   4.423   3.534  0.0397 -2.1840  1.9738
 2421TIP3    H228679   4.347   4.537   3.618  0.0196  0.9181 -2.0849
 2422TIP3   OH228680   0.537   0.092   4.629  0.3249  0.4782  0.2655
 2422TIP3    H128681   0.622   0.063   4.595 -0.4276  0.1629 -1.3979
 2422TIP3    H228682   0.531   0.053   4.716  1.8229  0.3816  0.3324
 2423TIP3   OH228683   0.935   3.469   2.926  0.5215  0.2347  0.4007
 2423TIP3    H128684   0.847   3.433   2.931  0.1121  0.9342 -1.2582
 2423TIP3    H228685   0.988   3.411   2.980 -0.6547 -1.1333  0.1106
 2424TIP3   OH228686   0.957   1.201  14.153 -0.7400  0.2185 -0.2328
 2424TIP3    H128687   0.949   1.235  14.242 -1.9681  1.6487 -0.8643
 2424TIP3    H228688   1.051   1.191  14.139 -0.5655 -0.8201  1.5033
 2425TIP3   OH228689   6.218   2.363   2.376  0.5074 -0.3246  0.4641
 2425TIP3    H128690   6.127   2.348   2.404  0.3694 -1.3775 -0.4825
 2425TIP3    H228691   6.229   2.305   2.300  1.8715  0.0430  0.3699
 2426TIP3   OH228692   1.891   4.776   0.238 -0.6559 -0.4844 -0.1947
 2426TIP3    H128693   1.960   4.815   0.184 -0.0601 -0.1477  0.8072
 2426TIP3    H228694   1.937   4.713   0.294 -1.4107 -1.5488 -0.7577
 2427TIP3   OH228695   1.139   3.263  16.937  0.7497  0.1709 -0.5376
 2427TIP3    H128696   1.164   3.353  16.956 -0.8952  0.5536 -0.0510
 2427TIP3    H228697   1.095   3.268  16.852  0.9839 -0.2393 -0.6872
 2428TIP3   OH228698   6.101   3.886   1.315  0.0682  0.6381  0.0485
 2428TIP3    H128699   6.188   3.923   1.300  0.5191 -1.1819 -2.1622
 2428TIP3    H228700   6.040   3.953   1.286  0.7632  1.4968  0.5644
 2429TIP3   OH228701   4.126   3.395   3.390 -0.1836 -0.3341  0.2069
 2429TIP3    H128702   4.065   3.382   3.317  0.6771  0.1255 -0.6063
 2429TIP3    H228703   4.176   3.313   3.393 -0.4398 -0.4827  0.5037
 2430TIP3   OH228704   4.595   0.064   5.360 -0.4159 -0.4860  0.3319
 2430TIP3    H128705   4.683   0.056   5.395  0.3045  0.8279 -1.1073
 2430TIP3    H228706   4.594   0.148   5.313 -1.3544 -2.0031 -2.5496
 2431TIP3   OH228707   5.102   6.244   4.820 -0.3587  0.2202 -0.3436
 2431TIP3    H128708   5.150   6.214   4.744 -0.2935 -0.8274  0.1084
 2431TIP3    H228709   5.029   6.294   4.784  0.2726  0.6239 -1.0597
 2432TIP3   OH228710   0.448   5.348  12.545  0.3059  0.0613 -0.4090
 2432TIP3    H128711   0.383   5.284  12.516 -1.5629  2.4896 -1.7598
 2432TIP3    H228712   0.489   5.378  12.463  0.3885  1.4050  0.1258
 2433TIP3   OH228713   6.699   1.066  11.747  0.1451  0.1844  0.0346
 2433TIP3    H128714   6.718   0.981  11.707 -0.6514 -0.9522  2.0032
 2433TIP3    H228715   6.736   1.060  11.835  2.9009  3.0571 -0.8242
 2434TIP3   OH228716   3.001   5.327   0.656  0.6322  0.0720 -0.5629
 2434TIP3    H128717   3.078   5.310   0.711  0.0792 -1.2796 -0.1890
 2434TIP3    H228718   2.930   5.278   0.698 -0.6854  2.1319 -0.3189
 2435TIP3   OH228719   1.170   3.803   5.288  0.5338  0.1931  0.3547
 2435TIP3    H128720   1.162   3.824   5.381 -0.0580  1.4303  0.0357
 2435TIP3    H228721   1.084   3.769   5.264 -0.1356  2.2931 -0.3200
 2436TIP3   OH228722   5.163   5.401   2.900  0.6523 -0.2029  0.3891
 2436TIP3    H128723   5.242   5.351   2.878 -0.6370 -1.5816 -1.2706
 2436TIP3    H228724   5.168   5.479   2.843  1.3184  0.2278  1.0307
 2437TIP3   OH228725   4.665   5.516   3.261 -0.2187 -0.3845 -0.6322
 2437TIP3    H128726   4.630   5.573   3.192  1.3494 -2.1561 -2.9983
 2437TIP3    H228727   4.601   5.445   3.268  1.1389 -1.8414 -2.5399
 2438TIP3   OH228728   0.190   1.043  12.439 -0.3646 -0.1245 -0.4935
 2438TIP3    H128729   0.137   0.983  12.387 -0.2705  0.3786 -1.1737
 2438TIP3    H228730   0.273   1.050  12.391  0.5559 -1.4033  0.8940
 2439TIP3   OH228731   1.806   3.076   1.522  0.3201  0.3242 -0.3979
 2439TIP3    H128732   1.728   3.070   1.577 -0.7019 -0.5560 -1.8920
 2439TIP3    H228733   1.879   3.065   1.582 -0.8023 -1.7624  0.6216
 2440TIP3   OH228734   3.966   6.316   2.210 -0.2135 -0.5025 -0.0412
 2440TIP3    H128735   3.965   6.403   2.169  0.2028 -0.1865  0.6149
 2440TIP3    H228736   3.932   6.332   2.298  1.1066 -0.7851  0.5220
 2441TIP3   OH228737   3.948   4.188   2.016 -0.2352  0.3556  0.3431
 2441TIP3    H128738   3.914   4.264   2.064  0.0569  0.8112 -0.1746
 2441TIP3    H228739   4.006   4.225   1.950 -0.4670 -0.2898 -0.2310
 2442TIP3   OH228740   0.536   4.161   6.064  0.9148 -0.2473 -0.1150
 2442TIP3    H128741   0.489   4.214   5.999  0.5152  0.7241  0.9554
 2442TIP3    H228742   0.626   4.190   6.059  0.7679  0.2601  0.1951
 2443TIP3   OH228743   0.817   5.392  15.863 -0.2781  0.0340  0.1693
 2443TIP3    H128744   0.825   5.362  15.953 -1.1886  0.5446  0.4277
 2443TIP3    H228745   0.726   5.420  15.854 -0.2447 -0.1623 -0.9574
 2444TIP3   OH228746   4.832   0.350  14.285 -0.2423  0.0479  0.4072
 2444TIP3    H128747   4.808   0.319  14.373  2.8719  0.0170  1.2887
 2444TIP3    H228748   4.782   0.431  14.274 -1.4773 -0.4974  1.7711
 2445TIP3   OH228749   1.925   5.784  16.787 -0.2283 -0.3274 -0.1035
 2445TIP3    H128750   1.902   5.791  16.880  0.3496  0.4913 -0.0073
 2445TIP3    H228751   1.859   5.836  16.742  1.3231  1.9608  0.1622
 2446TIP3   OH228752   2.180   6.760  14.533  0.0646 -0.1368 -0.2914
 2446TIP3    H128753   2.147   6.722  14.615 -1.0245  0.7296 -0.3158
 2446TIP3    H228754   2.221   6.843  14.559  2.8491 -1.4825 -0.1759
 2447TIP3   OH228755   0.910   2.802   0.004  0.1409 -0.3088 -0.0610
 2447TIP3    H128756   0.899   2.857   0.082  1.1614  0.0590 -0.1737
 2447TIP3    H228757   0.996   2.762   0.015  0.9198  0.8890 -1.7200
 2448TIP3   OH228758   3.898   4.573  12.089  0.0205  0.5323 -0.4906
 2448TIP3    H128759   3.916   4.591  11.997  0.0846  1.8563 -0.2289
 2448TIP3    H228760   3.983   4.551  12.127  0.3775  2.2982 -0.2433
 2449TIP3   OH228761   2.676   0.782  16.156  0.3163  0.1215 -0.4521
 2449TIP3    H128762   2.727   0.794  16.076  0.8035 -0.0860 -0.1772
 2449TIP3    H228763   2.621   0.706  16.139 -1.8594  1.8982 -1.7328
 2450TIP3   OH228764   6.517   4.443   2.964 -0.0697 -0.4439  0.1139
 2450TIP3    H128765   6.561   4.460   3.047 -1.3320 -0.2879  0.7719
 2450TIP3    H228766   6.511   4.347   2.960  0.1578 -0.4580  0.1199
 2451TIP3   OH228767   2.960   1.459   5.465 -0.0406 -0.2211 -0.9652
 2451TIP3    H128768   2.927   1.492   5.381 -0.5205  1.7993 -0.0092
 2451TIP3    H228769   2.987   1.369   5.446 -0.7113  0.0007 -3.1400
 2452TIP3   OH228770   4.018   2.442  11.958 -0.0540  0.2959 -0.3396
 2452TIP3    H128771   3.976   2.442  11.872 -1.0035 -2.0054  0.0844
 2452TIP3    H228772   3.961   2.388  12.013  2.6512 -1.6312  0.6636
 2453TIP3   OH228773   4.545   5.729   6.578  0.3847  0.2931 -0.0482
 2453TIP3    H128774   4.536   5.640   6.543 -0.7294  0.6695 -0.7689
 2453TIP3    H228775   4.639   5.745   6.580  0.5515 -0.4941 -0.9995
 2454TIP3   OH228776   1.938   0.070   6.397  0.8612 -0.5697  0.2577
 2454TIP3    H128777   1.883   0.110   6.464  0.8906 -0.2697  0.1055
 2454TIP3    H228778   2.026   0.105   6.414  0.5657  0.8776 -0.9785
 2455TIP3   OH228779   5.419   5.244   4.138  0.4083  0.0442 -0.4860
 2455TIP3    H128780   5.415   5.246   4.043  2.2020  0.5505 -0.5691
 2455TIP3    H228781   5.444   5.333   4.163 -1.1343  0.2030  0.5180
 2456TIP3   OH228782   3.474   0.816  17.037  0.0766 -0.1724 -0.5771
 2456TIP3    H128783   3.561   0.779  17.052  0.5753  1.5495  0.8983
 2456TIP3    H228784   3.472   0.834  16.943  1.5948  0.4636 -0.5068
 2457TIP3   OH228785   1.006   2.684   1.737 -0.2971  0.3355 -0.1698
 2457TIP3    H128786   0.949   2.662   1.811 -3.1629  1.9167 -1.8028
 2457TIP3    H228787   0.990   2.615   1.673 -0.1650  0.6351 -0.5291
 2458TIP3   OH228788   6.573   1.996  14.397  0.4473 -0.2430  0.0011
 2458TIP3    H128789   6.632   1.921  14.406  1.3679  0.5290  0.4461
 2458TIP3    H228790   6.491   1.967  14.437  0.8494 -0.9500  0.3209
 2459TIP3   OH228791   0.401   2.138   3.228  0.1258  0.4218 -0.4137
 2459TIP3    H128792   0.471   2.073   3.219  1.2347  1.6997 -1.3640
 2459TIP3    H228793   0.320   2.088   3.224  0.9602 -0.8895 -1.2547
 2460TIP3   OH228794   2.175   1.776  13.674 -0.1660 -0.5076 -0.5454
 2460TIP3    H128795   2.244   1.710  13.662  0.3057  0.4025 -3.2166
 2460TIP3    H228796   2.215   1.858  13.647 -0.5268  1.0936  3.4513
 2461TIP3   OH228797   4.926   4.927  13.626  0.0707  0.2220 -0.0813
 2461TIP3    H128798   4.977   4.877  13.689 -1.4359  0.4409  1.3512
 2461TIP3    H228799   4.923   5.015  13.663 -0.6105  0.4150 -0.5948
 2462TIP3   OH228800   1.133   1.829   5.612 -0.0064 -0.4206 -0.3316
 2462TIP3    H128801   1.199   1.879   5.660 -1.1561  0.7425  0.0892
 2462TIP3    H228802   1.116   1.753   5.667 -0.0532  0.0252  0.2856
 2463TIP3   OH228803   0.094   3.793  12.550 -0.0485  0.3988 -0.1387
 2463TIP3    H128804   0.153   3.774  12.623 -0.0910 -0.4137 -0.3099
 2463TIP3    H228805   0.051   3.710  12.532  1.1862  0.1617 -2.1734
 2464TIP3   OH228806   4.175   1.996  14.003  0.1227  0.1535  0.3009
 2464TIP3    H128807   4.221   1.965  13.924  0.9013  0.7827  0.5041
 2464TIP3    H228808   4.176   2.091  13.995  0.6265  0.2339  1.3157
 2465TIP3   OH228809   5.854   1.788  11.367  0.0234 -0.2725  0.0958
 2465TIP3    H128810   5.837   1.882  11.370 -1.1771 -0.4635 -0.3450
 2465TIP3    H228811   5.887   1.767  11.455 -0.7483  0.3709  0.5519
 2466TIP3   OH228812   2.253   3.377   2.158  0.6307 -0.1663  0.3544
 2466TIP3    H128813   2.301   3.324   2.221  2.1620 -0.0039 -0.6748
 2466TIP3    H228814   2.320   3.415   2.101 -0.7087  0.0162 -1.1344
 2467TIP3   OH228815   0.184   6.255  13.080 -0.3981 -0.0460  0.4595
 2467TIP3    H128816   0.206   6.344  13.104  0.0594 -0.1557  0.4437
 2467TIP3    H228817   0.207   6.203  13.157 -0.5179 -0.1689  0.4141
 2468TIP3   OH228818   5.152   4.301  16.104  0.2179  0.2541  0.3210
 2468TIP3    H128819   5.063   4.307  16.140  0.3362 -3.2107  1.3681
 2468TIP3    H228820   5.205   4.355  16.162 -0.9144  0.9560  0.7198
 2469TIP3   OH228821   2.434   4.568  16.885 -0.2148  0.0546  0.4897
 2469TIP3    H128822   2.448   4.660  16.864  0.5287  0.6347  3.2961
 2469TIP3    H228823   2.442   4.523  16.801  0.7578  2.3826 -0.7240
 2470TIP3   OH228824   6.196   2.679  16.590 -0.2653  0.1182 -0.1920
 2470TIP3    H128825   6.113   2.632  16.589  1.2977 -2.7274 -1.3052
 2470TIP3    H228826   6.191   2.738  16.514 -1.2658 -0.0142 -0.2309
 2471TIP3   OH228827   5.379   1.750  14.739  0.4741 -0.2687  0.5747
 2471TIP3    H128828   5.445   1.820  14.744 -0.3293  0.5944 -0.8535
 2471TIP3    H228829   5.343   1.757  14.651 -1.3721 -0.8974  1.2607
 2472TIP3   OH228830   1.392   4.237   0.942 -0.1151 -0.3033  0.4989
 2472TIP3    H128831   1.380   4.272   0.854  1.0429  0.4760  0.6455
 2472TIP3    H228832   1.342   4.297   0.998 -3.1333 -2.3587  0.0973
 2473TIP3   OH228833   3.096   1.701  15.908 -0.4738 -0.7470  0.6836
 2473TIP3    H128834   3.097   1.769  15.840  0.5722  0.5528  1.9495
 2473TIP3    H228835   3.024   1.726  15.965  0.0839 -0.5450  1.3004
 2474TIP3   OH228836   6.537   1.626  11.628 -0.2505 -0.0099  0.0526
 2474TIP3    H128837   6.608   1.637  11.692 -0.2940 -1.0935  0.2902
 2474TIP3    H228838   6.468   1.684  11.659  0.5997  1.2356 -0.3015
 2475TIP3   OH228839   4.260   4.138  15.919 -0.0596 -0.2976  0.3895
 2475TIP3    H128840   4.216   4.199  15.860 -2.4489 -0.9083  1.4849
 2475TIP3    H228841   4.353   4.158  15.910 -0.6658  2.0309 -0.8777
 2476TIP3   OH228842   3.858   4.894  14.833  0.0325 -0.0936  0.0420
 2476TIP3    H128843   3.796   4.861  14.768 -2.3392  0.5067  1.9375
 2476TIP3    H228844   3.888   4.816  14.879  0.7552 -0.3943 -0.9315
 2477TIP3   OH228845   3.781   2.053   0.232  0.0504 -0.3420  0.2953
 2477TIP3    H128846   3.757   2.094   0.315  1.9729 -1.3580  1.3860
 2477TIP3    H228847   3.705   1.999   0.209 -1.7479  2.3267 -0.2302
 2478TIP3   OH228848   5.809   0.085   1.152  0.0044  0.0486 -0.1038
 2478TIP3    H128849   5.886   0.027   1.154  0.5867  0.7133 -2.1155
 2478TIP3    H228850   5.846   0.171   1.133 -1.1129  0.6180  0.3153
 2479TIP3   OH228851   1.197   5.856   1.102 -0.8591 -0.1119  0.2146
 2479TIP3    H128852   1.256   5.919   1.144 -1.8095  0.5974  0.5270
 2479TIP3    H228853   1.196   5.882   1.010 -1.4948  0.5572  0.3980
 2480TIP3   OH228854   0.574   6.708  10.459 -0.5047 -0.3766  0.6791
 2480TIP3    H128855   0.533   6.794  10.456  2.0449  0.8127 -2.4013
 2480TIP3    H228856   0.663   6.725  10.490 -0.6456 -2.2373  2.2115
 2481TIP3   OH228857   4.869   3.556  12.086  0.5530  0.2041  0.4070
 2481TIP3    H128858   4.859   3.528  12.177 -0.9618 -0.4879  0.0493
 2481TIP3    H228859   4.956   3.597  12.083  0.5456  0.4089  2.1980
 2482TIP3   OH228860   5.740   2.689   1.079 -0.0119  0.4025 -0.1829
 2482TIP3    H128861   5.731   2.672   1.173 -0.1932  1.8393  0.0604
 2482TIP3    H228862   5.650   2.685   1.045  0.0326  0.0938 -0.2704
 2483TIP3   OH228863   5.107   5.457  15.949  0.2978  0.4250 -0.3649
 2483TIP3    H128864   5.121   5.483  15.859 -0.4771  0.1844 -0.5603
 2483TIP3    H228865   5.113   5.361  15.947 -0.6294  0.3619 -0.3297
 2484TIP3   OH228866   5.924   1.326  11.287 -0.1455 -0.2737  0.4086
 2484TIP3    H128867   5.890   1.414  11.270  0.1462 -0.0288  1.0862
 2484TIP3    H228868   5.927   1.285  11.201 -0.6146  0.2598  0.1298
 2485TIP3   OH228869   3.398   3.125   0.569 -0.4506 -0.3782  0.6898
 2485TIP3    H128870   3.354   3.096   0.489  0.9476 -1.0682  0.1433
 2485TIP3    H228871   3.404   3.047   0.624 -2.0383  0.2528  1.7897
 2486TIP3   OH228872   6.381   3.762  17.026 -0.6433  0.0684 -0.2486
 2486TIP3    H128873   6.380   3.786  16.934 -0.7390  1.2437  0.0450
 2486TIP3    H228874   6.343   3.675  17.030  0.0653 -0.2997 -1.4005
 2487TIP3   OH228875   1.490   4.243  10.872 -0.2251 -0.1462 -0.6035
 2487TIP3    H128876   1.528   4.268  10.787  0.5854 -0.2547 -0.2740
 2487TIP3    H228877   1.396   4.258  10.861  0.0269  1.1949 -1.0518
 2488TIP3   OH228878   3.659   0.318  11.857  0.1460 -0.1119 -0.0342
 2488TIP3    H128879   3.596   0.266  11.907 -0.0864  0.0441 -0.1646
 2488TIP3    H228880   3.737   0.263  11.853  0.1092 -0.1971  0.3561
 2489TIP3   OH228881   3.050   2.245   5.012 -0.2186 -0.5156  0.0235
 2489TIP3    H128882   3.133   2.278   5.047  0.3135 -0.1694 -1.5202
 2489TIP3    H228883   3.004   2.210   5.088  1.0984 -0.1897  0.9871
 2490TIP3   OH228884   6.042   0.145  11.116 -0.2038  0.0096 -0.5855
 2490TIP3    H128885   5.983   0.198  11.063  1.6446  1.7383 -0.9668
 2490TIP3    H228886   6.021   0.169  11.206 -0.5937  0.0628 -0.6890
 2491TIP3   OH228887   4.576   5.183   1.505 -0.3009  0.2585  0.3562
 2491TIP3    H128888   4.588   5.265   1.456 -0.4700  0.0983  0.0416
 2491TIP3    H228889   4.495   5.197   1.555  0.8822  1.1327  2.0577
 2492TIP3   OH228890   4.592   6.762  15.115  0.1790  0.0884 -0.6572
 2492TIP3    H128891   4.547   6.692  15.164 -0.5240  0.6568 -0.4794
 2492TIP3    H228892   4.630   6.718  15.040  1.3632 -0.8263  0.4614
 2493TIP3   OH228893   1.067   4.929   1.830  0.0797  0.2695  0.3714
 2493TIP3    H128894   1.070   5.024   1.816  1.3087  0.0899 -0.6487
 2493TIP3    H228895   0.974   4.907   1.824 -0.0544  1.1829 -0.9946
 2494TIP3   OH228896   1.261   6.731   2.677 -0.1490  0.4271  0.1384
 2494TIP3    H128897   1.279   6.754   2.586  0.3887  0.5681  0.2761
 2494TIP3    H228898   1.171   6.700   2.677 -0.3788  1.1009 -0.3105
 2495TIP3   OH228899   2.543   3.174  16.493 -0.2222 -0.2767 -0.0513
 2495TIP3    H128900   2.521   3.243  16.556  0.5375 -0.3500  0.3041
 2495TIP3    H228901   2.569   3.221  16.414 -1.7910 -0.1961 -0.5213
 2496TIP3   OH228902   2.149   4.798  15.927 -0.1721 -0.0558 -0.1292
 2496TIP3    H128903   2.185   4.786  16.015  1.0291 -0.4927 -0.6803
 2496TIP3    H228904   2.204   4.864  15.886 -2.0043  1.6909  0.1515
 2497TIP3   OH228905   3.762   4.705   2.993 -0.0058  0.1366 -0.2720
 2497TIP3    H128906   3.680   4.705   2.943  1.0530 -0.1125 -2.0590
 2497TIP3    H228907   3.783   4.613   3.005 -0.8965  0.1614  1.7958
 2498TIP3   OH228908   6.069   2.163  12.619  0.5054 -0.2543 -0.0932
 2498TIP3    H128909   6.055   2.258  12.620 -2.0767 -0.5918 -0.1433
 2498TIP3    H228910   6.125   2.149  12.542  0.2718  1.1497 -0.5499
 2499TIP3   OH228911   0.856   0.359   6.303 -0.1941 -0.1512 -0.1386
 2499TIP3    H128912   0.851   0.287   6.365  0.4746  1.5303  1.9217
 2499TIP3    H228913   0.766   0.372   6.274 -0.6586 -0.4096  1.1442
 2500TIP3   OH228914   4.726   3.649   2.485 -0.2363 -0.4773 -0.6078
 2500TIP3    H128915   4.740   3.557   2.508 -0.8350 -0.2784  0.5824
 2500TIP3    H228916   4.751   3.698   2.563  1.1964  0.4684 -1.6252
 2501TIP3   OH228917   3.269   4.031   1.167  0.9036 -0.2653 -0.5682
 2501TIP3    H128918   3.223   3.947   1.168 -0.6695  0.5611 -1.0445
 2501TIP3    H228919   3.269   4.060   1.258 -0.8244  0.4146 -0.7798
 2502TIP3   OH228920   1.832   6.046  11.136 -0.1405  0.0074 -0.2668
 2502TIP3    H128921   1.863   6.018  11.050 -0.0698 -1.2501  0.1657
 2502TIP3    H228922   1.905   6.096  11.173  0.6026 -1.2158 -0.0783
 2503TIP3   OH228923   1.984   3.477   2.501  0.3904 -0.1710  0.0042
 2503TIP3    H128924   1.999   3.569   2.524  0.3941 -0.1257 -0.1780
 2503TIP3    H228925   2.065   3.433   2.527  0.5754 -0.0412 -0.3427
 2504TIP3   OH228926   1.113   0.011  12.247  0.0238  0.4685 -0.1977
 2504TIP3    H128927   1.069   0.065  12.181  0.4970  1.0450 -0.0540
 2504TIP3    H228928   1.148   0.074  12.310  3.5964  0.3036 -1.8511
 2505TIP3   OH228929   1.874   2.059   6.150 -0.1536  0.5518  0.0171
 2505TIP3    H128930   1.810   2.046   6.220  0.3041 -2.1619 -0.0159
 2505TIP3    H228931   1.954   2.085   6.194 -0.4385  0.9302  0.3120
 2506TIP3   OH228932   0.520   5.569   5.388  0.0496 -0.8360 -0.1984
 2506TIP3    H128933   0.481   5.565   5.476  1.7314 -1.8376  0.5416
 2506TIP3    H228934   0.573   5.489   5.382  0.7687 -0.2703 -1.7324
 2507TIP3   OH228935   6.144   1.812  15.812  0.0629  0.1975 -0.5926
 2507TIP3    H128936   6.218   1.752  15.822 -0.1369 -0.0137 -0.3831
 2507TIP3    H228937   6.181   1.898  15.828  0.1391  0.0399  0.0855
 2508TIP3   OH228938   6.456   3.614  12.180 -0.2716 -0.3949 -0.0472
 2508TIP3    H128939   6.406   3.561  12.242 -3.8060  1.1555 -1.4184
 2508TIP3    H228940   6.422   3.588  12.094  0.7622  1.2785 -0.9955
 2509TIP3   OH228941   5.379   2.928  15.102  0.3937  0.2388 -0.1118
 2509TIP3    H128942   5.473   2.949  15.105  0.6431 -0.8606  0.3170
 2509TIP3    H228943   5.353   2.944  15.011  1.6204 -1.9288 -0.8953
 2510TIP3   OH228944   3.464   3.283  11.974 -0.0581  0.3442 -0.7231
 2510TIP3    H128945   3.510   3.208  12.012  0.5002  0.4936 -1.0992
 2510TIP3    H228946   3.458   3.262  11.881  0.3399  0.8982 -0.8714
 2511TIP3   OH228947   6.583   1.675   3.560  0.5480  0.4194  0.0275
 2511TIP3    H128948   6.602   1.631   3.642  0.1386  1.2888  0.6030
 2511TIP3    H228949   6.531   1.612   3.510  2.4911 -0.8788 -0.3986
 2512TIP3   OH228950   6.498   5.508   3.482 -0.1589 -0.6652 -0.1197
 2512TIP3    H128951   6.585   5.471   3.500  0.8030  1.5876  0.0025
 2512TIP3    H228952   6.498   5.593   3.526 -1.6984  0.2248 -1.7439
 2513TIP3   OH228953   2.583   5.648  13.148  0.1744  0.2325  0.4013
 2513TIP3    H128954   2.676   5.623  13.152  0.0638 -0.4750 -1.1117
 2513TIP3    H228955   2.581   5.721  13.087 -0.2721  0.2338  0.4227
 2514TIP3   OH228956   1.098   2.744   1.014  0.2534 -0.1621 -0.5075
 2514TIP3    H128957   1.006   2.720   1.005 -0.2095  1.1813  0.4971
 2514TIP3    H228958   1.135   2.678   1.072 -0.5127  0.2977  0.5250
 2515TIP3   OH228959   4.319   3.903  11.098  0.1600 -0.1140  0.0764
 2515TIP3    H128960   4.322   3.834  11.032  0.2427  1.8952 -2.0635
 2515TIP3    H228961   4.351   3.981  11.054  0.7658  1.1732  2.6613
 2516TIP3   OH228962   6.498   4.637  11.887  1.0300  0.3170  0.0471
 2516TIP3    H128963   6.462   4.635  11.798 -0.0109  0.3041  0.4632
 2516TIP3    H228964   6.524   4.729  11.900 -1.8595  1.0917  0.8963
 2517TIP3   OH228965   4.135   0.448   2.300  0.2332  0.0923  0.6322
 2517TIP3    H128966   4.100   0.512   2.361 -1.6593  0.3225 -0.6543
 2517TIP3    H228967   4.073   0.375   2.302 -0.7361  0.7562 -2.1097
 2518TIP3   OH228968   1.660   6.078   1.237 -0.3963 -0.0827 -0.2051
 2518TIP3    H128969   1.718   6.107   1.167  0.8703  0.7766  1.1733
 2518TIP3    H228970   1.693   6.122   1.316 -2.3542 -0.2900  0.7708
 2519TIP3   OH228971   0.420   4.772   2.545  0.5298 -0.7348 -0.0461
 2519TIP3    H128972   0.329   4.776   2.514 -0.4864  0.5138  2.8583
 2519TIP3    H228973   0.465   4.841   2.497 -0.1476 -1.0908 -1.2144
 2520TIP3   OH228974   0.144   2.885   2.916  0.2067 -0.4652  0.1674
 2520TIP3    H128975   0.163   2.813   2.856  0.1302  0.2478 -0.7169
 2520TIP3    H228976   0.048   2.883   2.925 -0.1150  1.3416 -2.1874
 2521TIP3   OH228977   2.417   0.226  14.331 -0.3671 -0.4098 -0.1334
 2521TIP3    H128978   2.457   0.170  14.397 -2.1406  0.4658  1.7338
 2521TIP3    H228979   2.425   0.314  14.365 -2.2636 -0.0471 -0.5502
 2522TIP3   OH228980   2.081   1.124  13.779 -1.4592 -0.2388 -0.2864
 2522TIP3    H128981   2.131   1.110  13.699 -0.9935  1.3750 -0.2979
 2522TIP3    H228982   2.000   1.167  13.750 -1.4031  0.1161  0.0733
 2523TIP3   OH228983   6.378   2.367  13.018 -0.4672  0.2878  0.2338
 2523TIP3    H128984   6.411   2.329  12.936 -0.6302 -1.3426  0.9112
 2523TIP3    H228985   6.306   2.310  13.044 -0.8566  1.1894  1.1692
 2524TIP3   OH228986   3.061   0.178   0.834 -0.5702  0.0720 -0.1510
 2524TIP3    H128987   3.102   0.220   0.910  0.1864  0.7049 -0.8947
 2524TIP3    H228988   3.130   0.175   0.768 -0.5765 -2.4581 -0.0933
 2525TIP3   OH228989   3.874   6.556   6.411 -0.0128  0.0615 -0.4650
 2525TIP3    H128990   3.845   6.635   6.367 -2.6431 -0.1050  0.8381
 2525TIP3    H228991   3.881   6.490   6.342  1.2009  1.1633 -1.3948
 2526TIP3   OH228992   5.884   0.675  13.683  0.1117  0.5050 -0.2244
 2526TIP3    H128993   5.967   0.642  13.715  0.3181 -0.4936 -1.7359
 2526TIP3    H228994   5.831   0.688  13.761  0.3883 -2.4282  0.5142
 2527TIP3   OH228995   5.371   2.850   0.261  0.1167 -0.1608 -0.3683
 2527TIP3    H128996   5.345   2.811   0.178  0.1930  2.5203 -1.7204
 2527TIP3    H228997   5.289   2.871   0.305  0.0322  1.2324 -1.1686
 2528TIP3   OH228998   2.346   6.355  16.384  0.2008  0.6580 -0.6911
 2528TIP3    H128999   2.304   6.398  16.459 -0.7253 -1.0410 -0.2128
 2528TIP3    H229000   2.370   6.268  16.416 -0.5634 -0.2416 -2.4614
 2529TIP3   OH229001   5.979   6.188   0.567  0.4149  0.2164 -0.2021
 2529TIP3    H129002   5.995   6.263   0.509  1.4033  0.4342  0.3475
 2529TIP3    H229003   5.977   6.112   0.508  1.1271  0.4698 -0.5593
 2530TIP3   OH229004   4.823   5.511  15.986  0.2841 -0.2412  0.3828
 2530TIP3    H129005   4.911   5.546  15.974  0.5509 -0.5148  1.5239
 2530TIP3    H229006   4.766   5.575  15.944  0.9885  0.1384 -0.0048
 2531TIP3   OH229007   5.650   2.715  11.971 -0.3940 -0.3185 -0.7426
 2531TIP3    H129008   5.566   2.681  12.002  0.0460 -0.5760  0.1504
 2531TIP3    H229009   5.680   2.772  12.041 -0.8576  1.5168 -1.9780
 2532TIP3   OH229010   4.989   6.396   3.346  0.1612  0.3541 -0.1253
 2532TIP3    H129011   4.933   6.458   3.393 -0.5004 -0.0667 -0.3538
 2532TIP3    H229012   4.998   6.321   3.405  1.1384  0.7441  0.2394
 2533TIP3   OH229013   0.933   3.390  14.256  0.0591  0.3692 -0.1267
 2533TIP3    H129014   0.840   3.370  14.267 -0.3158  2.1909  0.1521
 2533TIP3    H229015   0.943   3.399  14.161 -0.0875  0.3996 -0.1397
 2534TIP3   OH229016   0.933   3.288   0.701 -0.1507  0.4832 -0.0478
 2534TIP3    H129017   0.977   3.344   0.765  0.6267 -0.6246  0.4105
 2534TIP3    H229018   0.890   3.349   0.641 -0.9036  1.5418  1.5252
 2535TIP3   OH229019   5.779   3.669   4.769  0.4358 -0.2942 -0.2749
 2535TIP3    H129020   5.809   3.760   4.766  1.0366 -0.4513  0.6488
 2535TIP3    H229021   5.686   3.673   4.750 -0.0897  0.8016  2.4504
 2536TIP3   OH229022   1.204   2.310  13.591  0.9622 -0.0993  0.1607
 2536TIP3    H129023   1.151   2.308  13.671  1.2257  0.7841  0.3558
 2536TIP3    H229024   1.173   2.386  13.543  0.6491 -0.7676 -0.6892
 2537TIP3   OH229025   0.733   5.820  12.696  0.4223  0.0157  0.8514
 2537TIP3    H129026   0.749   5.831  12.790  0.1882  1.8345  0.6873
 2537TIP3    H229027   0.808   5.860  12.654  0.6676 -1.0558  0.2509
 2538TIP3   OH229028   3.328   0.299   1.534 -1.2830  0.1025 -0.0475
 2538TIP3    H129029   3.282   0.239   1.476  1.6857 -0.5897 -1.7922
 2538TIP3    H229030   3.385   0.243   1.587  0.3400  1.2013 -0.5844
 2539TIP3   OH229031   3.912   5.247   3.622 -0.3840  0.0217 -0.1469
 2539TIP3    H129032   3.861   5.177   3.581  0.7533 -0.6468 -0.4441
 2539TIP3    H229033   3.998   5.207   3.639 -0.7049  0.3824  2.5539
 2540TIP3   OH229034   0.624   5.590   2.869 -0.8001 -0.3764 -0.1258
 2540TIP3    H129035   0.639   5.656   2.801 -0.2847  0.3324  0.6707
 2540TIP3    H229036   0.537   5.610   2.903  0.2316  1.2827  1.6274
 2541TIP3   OH229037   0.953   4.653   1.358  0.0041  0.4669  0.4753
 2541TIP3    H129038   1.044   4.626   1.370 -0.5303 -2.0519 -1.0054
 2541TIP3    H229039   0.957   4.724   1.294  0.8376 -0.2886 -0.3159
 2542TIP3   OH229040   6.072   3.994  14.721 -0.3738  0.4247  0.4076
 2542TIP3    H129041   6.131   3.941  14.774 -1.1995  0.9785  1.8964
 2542TIP3    H229042   6.119   4.006  14.638  0.6082 -1.0495  0.7352
 2543TIP3   OH229043   1.378   3.098  16.737 -0.4675  0.3990 -0.1516
 2543TIP3    H129044   1.396   3.096  16.830 -0.6558  1.0675 -0.0995
 2543TIP3    H229045   1.449   3.047  16.697  0.8933  2.0293  0.1460
 2544TIP3   OH229046   2.107   5.449   3.728  0.3720  0.1350 -0.1031
 2544TIP3    H129047   2.197   5.422   3.708  0.6708  1.0616 -0.0383
 2544TIP3    H229048   2.067   5.467   3.643  0.0030 -1.0058 -0.1833
 2545TIP3   OH229049   3.050   2.658   5.798  0.1572 -0.0282 -0.7602
 2545TIP3    H129050   2.973   2.607   5.772  0.6727 -2.1314  1.6551
 2545TIP3    H229051   3.124   2.605   5.769  0.6963 -0.0719  0.6505
 2546TIP3   OH229052   1.607   0.995  11.266 -0.4770  0.0800 -0.0313
 2546TIP3    H129053   1.651   0.911  11.280  0.4942  0.6234  0.1497
 2546TIP3    H229054   1.604   1.004  11.171  0.6365  0.4851 -0.0296
 2547TIP3   OH229055   3.591   3.519   5.838  0.1651 -0.4169 -0.0398
 2547TIP3    H129056   3.665   3.467   5.870 -1.3685 -1.3600  2.1173
 2547TIP3    H229057   3.535   3.455   5.794  0.7219  0.3310 -1.8533
 2548TIP3   OH229058   5.918   1.384  16.348  0.0050  0.6250 -0.3163
 2548TIP3    H129059   5.989   1.423  16.399  1.0928 -2.3431  0.5776
 2548TIP3    H229060   5.923   1.425  16.262  1.6326  1.7749  0.3224
 2549TIP3   OH229061   1.048   4.020   4.722  0.1251  0.8180  0.2698
 2549TIP3    H129062   1.065   4.083   4.653  0.4461 -0.3738 -0.7470
 2549TIP3    H229063   1.015   3.942   4.677 -1.1839  0.5871  1.5886
 2550TIP3   OH229064   0.206   2.579  11.785 -0.0482 -0.2052  0.2060
 2550TIP3    H129065   0.296   2.608  11.773  0.0045 -1.5549 -3.5452
 2550TIP3    H229066   0.182   2.541  11.700 -4.6706  1.5331  0.5645
 2551TIP3   OH229067   5.025   6.093   2.748 -0.5669 -0.2020 -0.1301
 2551TIP3    H129068   5.087   6.158   2.783 -0.3030 -0.5070 -0.0239
 2551TIP3    H229069   4.956   6.088   2.815  0.1648 -1.1116  0.5692
 2552TIP3   OH229070   0.300   0.304  13.148  0.1105  0.2443  0.2267
 2552TIP3    H129071   0.388   0.298  13.186 -0.3188 -0.1488  1.1771
 2552TIP3    H229072   0.267   0.389  13.176 -0.3650 -0.2203  1.0898
 2553TIP3   OH229073   5.126   3.309   3.763  0.0663 -0.0367  0.6984
 2553TIP3    H129074   5.195   3.303   3.697 -0.1502  1.7478  0.2810
 2553TIP3    H229075   5.045   3.306   3.714 -0.1218 -0.2408  1.0199
 2554TIP3   OH229076   1.337   5.584  11.922 -0.1374  0.0820 -0.3689
 2554TIP3    H129077   1.315   5.491  11.924  2.0327 -0.4377  0.1370
 2554TIP3    H229078   1.267   5.623  11.870 -1.5303 -1.6945  0.0891
 2555TIP3   OH229079   0.646   4.878   6.155 -0.1011 -0.6117 -0.2575
 2555TIP3    H129080   0.721   4.879   6.096  0.6044  0.0115  0.6334
 2555TIP3    H229081   0.607   4.965   6.147  0.6600 -0.1420  1.0205
 2556TIP3   OH229082   1.010   0.094  12.962 -0.5273  0.7782  0.3767
 2556TIP3    H129083   0.968   0.075  13.047 -0.3822 -0.2797  0.2230
 2556TIP3    H229084   1.092   0.045  12.965 -0.9959 -0.0955 -0.7775
 2557TIP3   OH229085   4.279   4.749   2.829  0.1339 -0.0199  0.0115
 2557TIP3    H129086   4.277   4.676   2.767 -0.2123 -0.0021 -0.0025
 2557TIP3    H229087   4.231   4.819   2.786 -2.4782 -0.8996  1.3589
 2558TIP3   OH229088   6.718   4.027   1.081 -0.0466  0.1337  0.0997
 2558TIP3    H129089   6.785   4.092   1.059  1.1076 -0.9540  0.2980
 2558TIP3    H229090   6.741   3.950   1.029 -3.0971  0.8020 -2.3583
 2559TIP3   OH229091   1.938   6.028   1.950 -0.1447 -0.0869  0.3064
 2559TIP3    H129092   1.964   6.089   1.881  2.5125 -1.4882 -0.0038
 2559TIP3    H229093   2.021   5.997   1.987 -1.4561 -2.3015  1.4962
 2560TIP3   OH229094   1.772   5.533   5.892  0.0931  0.0258  0.1319
 2560TIP3    H129095   1.849   5.486   5.861 -1.1661 -0.9776 -1.5623
 2560TIP3    H229096   1.704   5.465   5.901 -0.6986  0.9357  1.3083
 2561TIP3   OH229097   5.339   5.616  12.310 -0.4968 -1.1062 -0.2804
 2561TIP3    H129098   5.409   5.598  12.247  0.1303  0.6457 -0.1037
 2561TIP3    H229099   5.306   5.529  12.333  0.7833 -1.8984 -1.2982
 2562TIP3   OH229100   1.097   0.493   2.573 -0.1282  0.6104  0.7731
 2562TIP3    H129101   1.077   0.584   2.592 -1.8093  1.1692 -3.1798
 2562TIP3    H229102   1.017   0.458   2.535  0.3694 -2.6718  2.5245
 2563TIP3   OH229103   2.437   0.814   3.892 -0.1456 -0.5153  0.4213
 2563TIP3    H129104   2.442   0.853   3.979 -0.2809 -1.3344  0.7993
 2563TIP3    H229105   2.511   0.754   3.888  0.2353 -0.0029 -0.2660
 2564TIP3   OH229106   1.068   1.837  15.234 -0.3607  0.6583  0.1637
 2564TIP3    H129107   1.026   1.923  15.243  2.2784  2.0377 -0.0953
 2564TIP3    H229108   1.010   1.788  15.176 -2.0070  2.1890  0.4651
 2565TIP3   OH229109   4.675   2.511   2.423  0.1681  0.2047 -0.3182
 2565TIP3    H129110   4.707   2.423   2.440 -1.6843 -0.8071 -1.8125
 2565TIP3    H229111   4.722   2.539   2.344  2.4087  1.4721  1.4288
 2566TIP3   OH229112   2.745   4.087   4.392  0.1301  0.1912  1.1322
 2566TIP3    H129113   2.839   4.069   4.401 -0.0578 -0.4945  1.8258
 2566TIP3    H229114   2.703   4.005   4.418 -0.6632  0.5176  0.8866
 2567TIP3   OH229115   2.789   1.941   6.731 -0.2010  0.0012 -1.0075
 2567TIP3    H129116   2.743   2.026   6.733  0.3688  0.3147 -1.1092
 2567TIP3    H229117   2.724   1.880   6.694 -1.3527 -0.0710  1.0716
 2568TIP3   OH229118   1.102   0.677   5.594 -0.0598  0.2383  0.4334
 2568TIP3    H129119   1.026   0.642   5.640 -0.7987 -0.6353 -1.3947
 2568TIP3    H229120   1.107   0.768   5.622 -0.4896 -0.2624  2.2000
 2569TIP3   OH229121   2.128   4.670  11.396  0.4059  0.2760  0.1601
 2569TIP3    H129122   2.148   4.759  11.425  1.5488 -0.4110  1.5252
 2569TIP3    H229123   2.043   4.678  11.353  1.7829  2.5450 -2.3338
 2570TIP3   OH229124   5.636   1.292   0.807 -0.2446  0.4760 -0.3396
 2570TIP3    H129125   5.635   1.324   0.897  2.0098 -0.8418  0.2123
 2570TIP3    H229126   5.548   1.258   0.792 -0.8018  1.2273  1.1749
 2571TIP3   OH229127   3.373   3.646  15.070 -0.1712  0.4351 -0.1187
 2571TIP3    H129128   3.286   3.677  15.097  0.7231  1.2416  1.9204
 2571TIP3    H229129   3.393   3.575  15.131  0.2693 -0.2997 -1.1035
 2572TIP3   OH229130   3.091   4.949   5.245 -0.6080 -0.3800  0.4404
 2572TIP3    H129131   3.158   4.935   5.178  1.1120 -1.9718  2.4101
 2572TIP3    H229132   3.113   4.886   5.314 -3.9548 -0.7167  1.2972
 2573TIP3   OH229133   2.824   0.293  13.151 -0.0674 -0.3757 -0.4349
 2573TIP3    H129134   2.902   0.347  13.166  0.3473 -1.0190 -0.2609
 2573TIP3    H229135   2.755   0.337  13.200 -0.3796  1.5319 -2.5230
 2574TIP3   OH229136   3.112   0.122   1.118 -0.1511 -0.2490  0.1301
 2574TIP3    H129137   3.021   0.149   1.130 -0.6942 -1.8387 -0.2872
 2574TIP3    H229138   3.159   0.160   1.192 -1.0951  0.8054  0.2003
 2575TIP3   OH229139   6.386   1.239   5.185 -0.2036 -0.3046 -0.4080
 2575TIP3    H129140   6.308   1.220   5.132 -1.2811 -1.1719  1.4434
 2575TIP3    H229141   6.423   1.318   5.145 -2.4576  0.5512 -0.8776
 2576TIP3   OH229142   1.611   4.343  17.158  0.0783 -0.0430 -0.0323
 2576TIP3    H129143   1.596   4.359  17.065 -1.8423 -0.2360  0.2127
 2576TIP3    H229144   1.578   4.421  17.202  0.8197 -0.0235  0.5103
 2577TIP3   OH229145   2.206   2.437  11.379 -0.3248 -0.2260  0.0932
 2577TIP3    H129146   2.220   2.352  11.420  0.0784  0.6151  1.7697
 2577TIP3    H229147   2.118   2.463  11.407  0.3138  0.7669  1.2224
 2578TIP3   OH229148   2.948   0.085   5.358 -0.1137  0.4952 -0.4077
 2578TIP3    H129149   3.009   0.080   5.432 -0.7545  0.7854  0.1388
 2578TIP3    H229150   2.983   0.155   5.303 -1.0764  2.0674  0.9379
 2579TIP3   OH229151   5.390   0.573   4.256  0.0592 -0.2136  0.0056
 2579TIP3    H129152   5.484   0.571   4.273  0.5462  1.0505 -2.3225
 2579TIP3    H229153   5.355   0.501   4.308  2.3415 -0.8842  0.6783
 2580TIP3   OH229154   1.606   3.178   1.744 -0.1184  0.1997  0.1285
 2580TIP3    H129155   1.696   3.180   1.713  0.3109  1.3098  1.3844
 2580TIP3    H229156   1.588   3.086   1.759  1.2466  0.0609  1.0515
 2581TIP3   OH229157   4.511   6.028  16.205 -0.2224 -0.7543 -0.5962
 2581TIP3    H129158   4.505   6.053  16.298  2.9132 -0.0426 -0.5471
 2581TIP3    H229159   4.429   6.060  16.167 -2.0344 -1.9327  2.0991
 2582TIP3   OH229160   0.680   4.295  15.154 -0.7465  0.3955  0.1407
 2582TIP3    H129161   0.629   4.262  15.227 -0.5090 -1.2372 -0.4133
 2582TIP3    H229162   0.707   4.383  15.181  4.3431 -2.2808  4.5259
 2583TIP3   OH229163   0.315   6.400  16.190  0.3401  0.8450  0.2548
 2583TIP3    H129164   0.278   6.314  16.212 -0.1594  0.6032 -1.4754
 2583TIP3    H229165   0.247   6.462  16.216 -0.1034  0.5787 -0.2341
 2584TIP3   OH229166   6.656   2.290  12.326 -0.1643 -0.2338 -0.3374
 2584TIP3    H129167   6.623   2.202  12.340 -3.0102  1.1888  2.5305
 2584TIP3    H229168   6.733   2.296  12.382  0.4425 -1.1178 -1.0722
 2585TIP3   OH229169   1.086   0.213  15.188  0.4238 -0.0088  0.2173
 2585TIP3    H129170   1.108   0.283  15.126  0.7106 -0.9055 -0.7199
 2585TIP3    H229171   1.170   0.172  15.209  0.2237 -0.2519  0.5450
 2586TIP3   OH229172   4.301   1.683   2.545  0.2537  0.2871 -0.4269
 2586TIP3    H129173   4.367   1.668   2.613 -0.5514  0.2142  0.3423
 2586TIP3    H229174   4.218   1.658   2.586 -0.0610 -1.1830 -1.9415
 2587TIP3   OH229175   6.199   4.103  12.624  0.1455  0.2036 -0.0946
 2587TIP3    H129176   6.202   4.022  12.675  0.7187  0.0203 -0.4171
 2587TIP3    H229177   6.227   4.077  12.536 -2.3518  0.1857 -0.9390
 2588TIP3   OH229178   5.323   3.109  12.943  0.6105  0.1555  0.2592
 2588TIP3    H129179   5.380   3.033  12.954 -1.0043 -1.0561  0.3547
 2588TIP3    H229180   5.312   3.118  12.848  0.9295  0.3884  0.2409
 2589TIP3   OH229181   5.176   3.929   1.223  0.1681 -0.1141 -0.4733
 2589TIP3    H129182   5.268   3.953   1.224 -0.3747  2.0619 -0.6431
 2589TIP3    H229183   5.161   3.893   1.136  0.5726  0.7391 -0.9027
 2590TIP3   OH229184   5.432   0.579   2.535  0.6440  0.1231 -0.2148
 2590TIP3    H129185   5.404   0.490   2.514  0.0420  0.8960 -2.8906
 2590TIP3    H229186   5.350   0.630   2.535  0.9706  0.6547  1.3899
 2591TIP3   OH229187   2.725   2.886  10.775 -0.4654  0.1095 -0.2597
 2591TIP3    H129188   2.774   2.840  10.707 -2.4191 -0.6819 -1.1490
 2591TIP3    H229189   2.706   2.972  10.737  0.4910  0.5365  0.2100
 2592TIP3   OH229190   1.451   0.869  14.282 -0.3436 -0.7741 -0.7112
 2592TIP3    H129191   1.451   0.782  14.321  0.8479 -1.0285 -1.2651
 2592TIP3    H229192   1.358   0.895  14.280 -0.5746 -1.4656  0.6819
 2593TIP3   OH229193   5.747   3.120  11.706 -0.2878  0.5318  0.0613
 2593TIP3    H129194   5.705   3.059  11.646  2.5730 -0.8772 -0.6001
 2593TIP3    H229195   5.734   3.206  11.665 -2.8481  0.2056  0.1151
 2594TIP3   OH229196   2.506   6.232   0.579 -0.9248  0.0945 -0.3589
 2594TIP3    H129197   2.439   6.164   0.578 -0.3198 -0.4903 -1.6379
 2594TIP3    H229198   2.457   6.314   0.572 -1.6556 -0.1823  1.2087
 2595TIP3   OH229199   2.561   3.708   1.546  0.1395  0.2892 -0.5570
 2595TIP3    H129200   2.502   3.775   1.511 -0.9254 -1.4038 -2.0669
 2595TIP3    H229201   2.587   3.656   1.470  0.2995 -1.5401  0.7049
 2596TIP3   OH229202   1.976   4.229  16.600  0.6561  0.5402 -0.4738
 2596TIP3    H129203   1.928   4.201  16.521  0.6114  0.2117 -0.3332
 2596TIP3    H229204   2.021   4.150  16.629  2.1802  1.1104 -1.2423
 2597TIP3   OH229205   6.377   6.515  16.213 -0.2998  0.0944 -0.5316
 2597TIP3    H129206   6.290   6.503  16.175 -0.0374  0.0866 -1.1235
 2597TIP3    H229207   6.377   6.607  16.242 -0.2889  0.2721 -1.0835
 2598TIP3   OH229208   2.378   1.738   2.575 -0.1394  0.1546  0.6670
 2598TIP3    H129209   2.366   1.833   2.571  0.6916  0.2517  0.3272
 2598TIP3    H229210   2.447   1.726   2.641  0.4519 -0.1375  0.0043
 2599TIP3   OH229211   3.913   3.795  15.950 -0.0009  0.2105 -0.5865
 2599TIP3    H129212   3.921   3.888  15.967  0.0818  0.1522 -0.3030
 2599TIP3    H229213   3.990   3.756  15.992  0.1234  0.0470 -0.9576
 2600TIP3   OH229214   6.585   6.757  13.653  0.7802 -0.1967 -0.0627
 2600TIP3    H129215   6.556   6.832  13.600  0.6156  0.8388  1.4574
 2600TIP3    H229216   6.679   6.771  13.663  0.6314  0.2071  0.8212
 2601TIP3   OH229217   1.730   1.638   2.019 -0.3336  0.6541  0.1607
 2601TIP3    H129218   1.724   1.732   2.005 -0.1827  0.5846 -0.3634
 2601TIP3    H229219   1.640   1.610   2.037 -0.4931  0.7681 -0.4667
 2602TIP3   OH229220   0.390   2.196   4.053  0.1526 -0.1385 -0.1296
 2602TIP3    H129221   0.296   2.185   4.065  0.3179 -1.1165  0.3355
 2602TIP3    H229222   0.416   2.259   4.120  0.2040 -1.6425  1.3137
 2603TIP3   OH229223   3.576   5.569   2.150 -0.2222  0.1519 -0.3373
 2603TIP3    H129224   3.596   5.653   2.110  0.6871  0.6265  1.0688
 2603TIP3    H229225   3.647   5.511   2.122 -0.8905 -0.1687 -1.3686
 2604TIP3   OH229226   5.291   5.251  13.797 -0.1059  0.3685  0.1260
 2604TIP3    H129227   5.346   5.172  13.797 -1.5437 -0.7281 -3.5438
 2604TIP3    H229228   5.335   5.310  13.737 -0.2257  1.5280  1.1636
 2605TIP3   OH229229   6.693   4.132   5.880 -0.2852  0.0748 -0.8306
 2605TIP3    H129230   6.666   4.208   5.932 -0.5980  0.0699 -0.9850
 2605TIP3    H229231   6.673   4.156   5.790 -3.0615 -1.3128 -0.6181
 2606TIP3   OH229232   6.698   1.310  17.219  0.0599 -0.7551 -0.3671
 2606TIP3    H129233   6.651   1.265  17.289  0.5265 -0.3892  0.1749
 2606TIP3    H229234   6.640   1.301  17.143 -1.4610  0.7273  0.5917
 2607TIP3   OH229235   0.765   1.266  13.951  0.5102  0.2111 -0.4356
 2607TIP3    H129236   0.827   1.233  14.016 -1.0632 -2.0462 -0.0285
 2607TIP3    H229237   0.681   1.229  13.977 -0.8684  2.5582 -1.4672
 2608TIP3   OH229238   2.176   1.583  13.419 -0.1473  0.7245 -0.0255
 2608TIP3    H129239   2.116   1.651  13.389  0.5957  0.8373 -1.2974
 2608TIP3    H229240   2.204   1.538  13.339  0.2046 -0.3807  0.6970
 2609TIP3   OH229241   3.477   4.283   3.559  0.8307  0.6486  0.3898
 2609TIP3    H129242   3.461   4.352   3.494 -0.5981  0.6286  0.7013
 2609TIP3    H229243   3.545   4.229   3.520  2.2291  2.4329  0.2947
 2610TIP3   OH229244   6.452   0.932  15.248  0.7616 -0.0857  0.7764
 2610TIP3    H129245   6.525   0.939  15.186 -0.7316 -0.2982 -1.0419
 2610TIP3    H229246   6.478   0.988  15.321  2.8494 -0.3473  0.2762
 2611TIP3   OH229247   4.718   5.255  12.597 -0.0353 -0.5890 -0.0385
 2611TIP3    H129248   4.689   5.287  12.511 -0.7657 -0.9358  0.0773
 2611TIP3    H229249   4.720   5.332  12.653 -0.8729 -0.5824 -0.0132
 2612TIP3   OH229250   6.486   0.297   4.460 -0.6325 -0.7874  0.2931
 2612TIP3    H129251   6.431   0.247   4.520 -1.4843  0.0899  0.2639
 2612TIP3    H229252   6.455   0.387   4.469  0.3903 -0.3752 -0.1892
 2613TIP3   OH229253   4.164   0.630   0.916 -0.0343 -0.6680  0.2989
 2613TIP3    H129254   4.106   0.561   0.948 -1.4104  1.3475  2.2364
 2613TIP3    H229255   4.241   0.624   0.972 -0.0179 -0.8400  0.2591
 2614TIP3   OH229256   4.315   5.436   1.118 -0.4645  0.0283  0.6703
 2614TIP3    H129257   4.220   5.445   1.117 -0.5079 -0.2889  1.9174
 2614TIP3    H229258   4.348   5.525   1.130 -0.6430 -0.0627  1.8696
 2615TIP3   OH229259   0.582   6.056  14.730 -0.1009 -0.7448  0.2746
 2615TIP3    H129260   0.602   6.147  14.712 -0.0000 -1.0480 -1.1592
 2615TIP3    H229261   0.540   6.024  14.651 -1.4921 -1.5491  1.3104
 2616TIP3   OH229262   1.909   2.862  12.150  0.6810 -0.1737  0.0161
 2616TIP3    H129263   1.987   2.839  12.200  1.3973 -0.4529 -1.2161
 2616TIP3    H229264   1.930   2.837  12.060 -0.7702 -0.1075 -0.3500
 2617TIP3   OH229265   5.629   6.621  11.359 -0.1543 -0.2649  0.1663
 2617TIP3    H129266   5.694   6.689  11.342 -0.1959 -0.1823  0.3341
 2617TIP3    H229267   5.628   6.568  11.278 -0.9040  0.5792 -0.3768
 2618TIP3   OH229268   4.967   6.023   5.936 -0.7503  0.4486 -0.2459
 2618TIP3    H129269   4.928   5.955   5.882 -0.3445 -0.0501  0.0788
 2618TIP3    H229270   4.975   6.099   5.878 -0.2642 -0.0998 -0.9055
 2619TIP3   OH229271   6.266   6.457   5.012 -0.3138 -0.1685  0.6894
 2619TIP3    H129272   6.302   6.417   5.091 -1.0300 -0.5615  0.8133
 2619TIP3    H229273   6.174   6.430   5.010 -0.2671 -0.2670 -0.3501
 2620TIP3   OH229274   2.528   0.615  15.984  0.0534 -0.1075  0.5689
 2620TIP3    H129275   2.546   0.626  15.891 -0.7868 -0.0627  0.4064
 2620TIP3    H229276   2.519   0.520  15.996 -1.5212 -0.0154  0.2697
 2621TIP3   OH229277   0.433   1.019  11.896  0.0395  0.0280 -0.1953
 2621TIP3    H129278   0.411   0.962  11.970  1.9888  0.1051  0.4772
 2621TIP3    H229279   0.451   0.958  11.824 -0.0699 -0.1294 -0.0894
 2622TIP3   OH229280   2.618   3.638  13.428 -0.7170 -0.0276  0.2553
 2622TIP3    H129281   2.596   3.677  13.513  2.3213 -0.0934  1.1518
 2622TIP3    H229282   2.704   3.673  13.407 -0.0294 -2.4582 -1.2719
 2623TIP3   OH229283   2.498   2.918  12.102  0.0550  0.0271 -0.3549
 2623TIP3    H129284   2.522   2.828  12.084 -3.4040 -0.8103 -1.2682
 2623TIP3    H229285   2.503   2.962  12.017  1.6689  0.7054  0.0752
 2624TIP3   OH229286   4.452   5.971   4.466  0.5991 -0.0056 -0.0207
 2624TIP3    H129287   4.535   5.950   4.425  0.3793 -0.3460 -0.2918
 2624TIP3    H229288   4.387   5.921   4.417  0.3623 -0.5851  0.8691
 2625TIP3   OH229289   5.376   6.678   5.034 -0.3416 -0.4330 -0.3367
 2625TIP3    H129290   5.334   6.672   4.948 -1.2870 -0.8418  0.1431
 2625TIP3    H229291   5.456   6.728   5.019 -0.3151 -0.8252 -1.5222
 2626TIP3   OH229292   4.108   0.529   3.472  0.6547  0.1249 -0.2604
 2626TIP3    H129293   4.157   0.548   3.392 -0.9021  1.3449 -0.9539
 2626TIP3    H229294   4.141   0.444   3.501  2.6906  0.6207 -1.0644
 2627TIP3   OH229295   1.441   5.789  12.129 -0.2054  0.3013  0.0469
 2627TIP3    H129296   1.461   5.717  12.069 -1.7176 -1.8333  2.0359
 2627TIP3    H229297   1.526   5.827  12.149  0.8024 -1.9651  0.2079
 2628TIP3   OH229298   3.756   6.084  12.444 -0.0852 -0.6907  0.3353
 2628TIP3    H129299   3.836   6.033  12.435  1.4279  1.3717  1.4424
 2628TIP3    H229300   3.686   6.025  12.419  1.8755 -2.2188 -1.6918
 2629TIP3   OH229301   0.015   3.514  11.227  0.1311 -0.8469  0.0017
 2629TIP3    H129302   0.027   3.492  11.319  0.2858  0.7996  0.3923
 2629TIP3    H229303  -0.053   3.453  11.196 -0.8080 -0.5906  1.5160
 2630TIP3   OH229304   0.614   0.293  12.249  0.3899 -0.4454 -0.8338
 2630TIP3    H129305   0.668   0.225  12.289  2.3789  0.5314 -1.7655
 2630TIP3    H229306   0.605   0.266  12.158  2.6368  1.3438 -1.6351
 2631TIP3   OH229307   3.806   2.450  14.785  0.0442  0.3330  0.1527
 2631TIP3    H129308   3.848   2.530  14.751 -0.6629  0.1399 -1.2224
 2631TIP3    H229309   3.714   2.474  14.794  0.0408  0.0402  0.9283
 2632TIP3   OH229310   3.733   0.090  14.114 -0.7522  0.7544 -0.0282
 2632TIP3    H129311   3.827   0.103  14.109 -0.3801 -1.0503  1.7067
 2632TIP3    H229312   3.715   0.015  14.057 -1.2437  1.4196 -0.7759
 2633TIP3   OH229313   5.863   4.872  14.406 -0.0909 -0.5398 -0.0508
 2633TIP3    H129314   5.790   4.931  14.428  0.3733 -0.4892  1.4258
 2633TIP3    H229315   5.932   4.930  14.375 -0.0567 -0.4186  0.2511
 2634TIP3   OH229316   0.409   2.073   4.725 -0.7631 -0.2570 -0.1177
 2634TIP3    H129317   0.463   2.099   4.800 -1.7346  2.1742 -0.2299
 2634TIP3    H229318   0.326   2.117   4.738 -1.7564 -1.6884 -1.4346
 2635TIP3   OH229319   0.073   1.736  13.481  0.5289  0.6095  0.1661
 2635TIP3    H129320   0.003   1.743  13.415  1.5265  0.3230 -0.9425
 2635TIP3    H229321   0.035   1.682  13.550 -0.1665 -0.0345 -0.6988
 2636TIP3   OH229322   6.363   0.487  15.830  0.1299  0.6076 -0.0453
 2636TIP3    H129323   6.454   0.515  15.827  0.4557 -0.5054 -1.1740
 2636TIP3    H229324   6.336   0.483  15.738 -0.8787  0.3693  0.2549
 2637TIP3   OH229325   4.959   1.459   5.114  0.2106 -0.0032  0.4681
 2637TIP3    H129326   5.018   1.383   5.108  0.1346  0.0935 -2.2839
 2637TIP3    H229327   4.877   1.429   5.074 -0.6449  0.7683  1.6310
 2638TIP3   OH229328   5.970   2.777   6.171 -0.1163  0.6065 -0.1858
 2638TIP3    H129329   5.951   2.851   6.229 -1.2018  1.0933 -1.1430
 2638TIP3    H229330   5.885   2.754   6.134  0.6721  0.7158 -2.0778
 2639TIP3   OH229331   0.070   1.558  11.454  0.5529 -0.2840  0.6399
 2639TIP3    H129332   0.154   1.511  11.456  1.6861  1.5373 -1.6230
 2639TIP3    H229333   0.094   1.648  11.433 -2.0841  0.0352 -1.2769
 2640TIP3   OH229334   2.844   2.153  11.493 -0.4180 -0.0859 -0.2989
 2640TIP3    H129335   2.864   2.239  11.531  1.3856 -0.3048 -0.6937
 2640TIP3    H229336   2.842   2.169  11.398 -0.2757 -0.4473 -0.3622
 2641TIP3   OH229337   1.058   6.250   2.944  0.2671  0.1198 -0.8913
 2641TIP3    H129338   1.110   6.217   3.017 -1.6892 -0.8652  0.1010
 2641TIP3    H229339   1.088   6.340   2.931  1.3682 -0.0458  0.4204
 2642TIP3   OH229340   1.058   1.355   3.852  0.0658  0.0980 -1.4252
 2642TIP3    H129341   0.981   1.322   3.807  0.6110 -1.1257 -1.4699
 2642TIP3    H229342   1.130   1.301   3.821  0.4485 -0.8525  0.9579
 2643TIP3   OH229343   6.503   2.125  16.708  0.5769 -0.0342  0.1044
 2643TIP3    H129344   6.580   2.121  16.651 -0.8680 -1.7853 -1.7766
 2643TIP3    H229345   6.508   2.046  16.760  1.4544  1.1705  1.8990
 2644TIP3   OH229346   1.193   4.981   4.486  0.2013  0.3710  0.0699
 2644TIP3    H129347   1.276   4.966   4.440 -0.9621  1.1749 -2.3889
 2644TIP3    H229348   1.127   4.984   4.416 -1.8503  0.1992  1.9387
 2645TIP3   OH229349   6.623   1.671  12.355 -0.3956 -0.2205  0.0818
 2645TIP3    H129350   6.583   1.584  12.352 -1.9314  0.5551 -3.7673
 2645TIP3    H229351   6.598   1.713  12.273  3.5617  2.4611  0.1118
 2646TIP3   OH229352   2.105   3.881  13.273 -0.1769 -0.0455  0.1943
 2646TIP3    H129353   2.079   3.872  13.181  0.5564 -0.0028 -0.0270
 2646TIP3    H229354   2.025   3.903  13.319 -0.4049  0.7512 -0.5675
 2647TIP3   OH229355   4.482   3.878   1.332  0.4466 -0.5845 -0.0791
 2647TIP3    H129356   4.577   3.886   1.338  0.3373  0.6150  0.2051
 2647TIP3    H229357   4.450   3.911   1.416 -0.3281  1.2997 -1.0780
 2648TIP3   OH229358   5.631   2.809   5.740 -0.2841 -0.5188  0.1556
 2648TIP3    H129359   5.676   2.840   5.662  1.3388  0.7436  1.5557
 2648TIP3    H229360   5.635   2.713   5.733  1.7860 -0.4326 -0.2336
 2649TIP3   OH229361   1.885   1.484   1.596 -0.9754 -0.3577 -0.4364
 2649TIP3    H129362   1.875   1.534   1.676  0.3728 -1.3935  0.4110
 2649TIP3    H229363   1.849   1.398   1.617  1.1146 -1.2413 -0.2788
 2650TIP3   OH229364   0.839   4.099   0.273  0.0496 -0.3145 -0.3048
 2650TIP3    H129365   0.853   4.193   0.285  0.3231 -0.7357  3.2188
 2650TIP3    H229366   0.926   4.060   0.276 -0.2781 -0.9874  1.9805
 2651TIP3   OH229367   1.713   1.363  11.127 -0.8075  0.3155 -0.2702
 2651TIP3    H129368   1.727   1.305  11.052 -2.2341 -1.2351  0.6278
 2651TIP3    H229369   1.789   1.421  11.127 -0.7134  0.2442 -2.8185
 2652TIP3   OH229370   3.147   3.046  17.185 -0.4120 -0.8663  0.4078
 2652TIP3    H129371   3.233   3.075  17.215 -0.2096  0.2431 -1.1942
 2652TIP3    H229372   3.164   2.965  17.137 -0.3677 -1.0547  0.7366
 2653TIP3   OH229373   2.519   5.454  12.297  0.3803 -0.1658 -0.0708
 2653TIP3    H129374   2.435   5.430  12.259 -0.3620  0.1014  1.3837
 2653TIP3    H229375   2.574   5.377  12.286  0.3044  0.0257 -2.0079
 2654TIP3   OH229376   4.184   0.101  13.231 -0.0555 -0.2905 -0.5554
 2654TIP3    H129377   4.189   0.112  13.136 -0.0284 -1.6407 -0.7188
 2654TIP3    H229378   4.116   0.163  13.258 -0.8834 -0.7008 -1.6161
 2655TIP3   OH229379   5.269   4.308   2.820 -0.6550  0.4810  0.0587
 2655TIP3    H129380   5.296   4.354   2.900 -1.0951  1.8830 -0.5861
 2655TIP3    H229381   5.351   4.272   2.785 -0.5506 -0.8016  1.5135
 2656TIP3   OH229382   1.121   5.409  16.418 -0.6841 -0.0712  0.0674
 2656TIP3    H129383   1.162   5.362  16.491 -0.1355  0.2890 -0.0063
 2656TIP3    H229384   1.095   5.341  16.357  1.2562 -0.2125 -0.6341
 2657TIP3   OH229385   6.348   0.864   4.175 -0.2802  0.0331 -0.3795
 2657TIP3    H129386   6.267   0.847   4.223 -0.2968  2.7699  0.6870
 2657TIP3    H229387   6.401   0.786   4.188 -1.2973 -0.3118  1.9664
 2658TIP3   OH229388   5.569   6.188   1.844 -0.0273 -0.7039 -0.0760
 2658TIP3    H129389   5.505   6.157   1.779 -0.1217 -0.7224  0.0243
 2658TIP3    H229390   5.652   6.191   1.796 -0.5856  1.9167 -0.9457
 2659TIP3   OH229391   1.895   3.946  13.434 -0.3708  0.3775  0.0220
 2659TIP3    H129392   1.928   3.924  13.521 -1.8124 -0.7423  0.2923
 2659TIP3    H229393   1.833   3.877  13.413  0.4221  0.2985 -2.1656
 2660TIP3   OH229394   6.568   4.010  12.499  0.2423  0.1012  0.1382
 2660TIP3    H129395   6.595   4.095  12.463 -0.4801  0.4754  0.4608
 2660TIP3    H229396   6.614   4.003  12.582  1.1037 -0.2916 -0.3684
 2661TIP3   OH229397   5.372   1.328  12.555  0.0265 -0.3243 -0.0930
 2661TIP3    H129398   5.451   1.278  12.534 -0.7018 -0.8588 -1.5697
 2661TIP3    H229399   5.394   1.418  12.530  0.6650 -0.2083  0.8349
 2662TIP3   OH229400   4.493   0.644  10.922 -0.4578 -0.0430  0.0718
 2662TIP3    H129401   4.529   0.556  10.910  0.6563  0.0956  2.2095
 2662TIP3    H229402   4.569   0.701  10.932 -1.1741  1.1708 -1.2640
 2663TIP3   OH229403   3.499   0.612  16.243  0.1327  0.2525 -0.6174
 2663TIP3    H129404   3.458   0.698  16.229  1.1340  1.1146  1.5788
 2663TIP3    H229405   3.563   0.627  16.312  1.0170 -2.0703 -0.9019
 2664TIP3   OH229406   2.548   2.089  12.299 -0.1907 -0.0370 -0.6158
 2664TIP3    H129407   2.574   2.022  12.236  1.9870 -0.0627  0.2621
 2664TIP3    H229408   2.606   2.163  12.281 -0.5810  0.5170  0.3524
 2665TIP3   OH229409   1.589   1.357   4.438 -0.0868  0.4226  0.0724
 2665TIP3    H129410   1.653   1.424   4.463  1.7353 -1.7129  1.2580
 2665TIP3    H229411   1.521   1.406   4.391  2.2651  2.7936 -1.0025
 2666TIP3   OH229412   3.192   3.501  11.294 -0.0341 -0.3858 -0.6593
 2666TIP3    H129413   3.225   3.417  11.262  0.6540 -0.3396 -0.0917
 2666TIP3    H229414   3.123   3.525  11.232  0.5258 -0.8287 -1.4698
 2667TIP3   OH229415   4.557   0.152  12.369  0.4648  0.2026 -0.0619
 2667TIP3    H129416   4.469   0.147  12.334  1.0276 -0.4876 -1.4025
 2667TIP3    H229417   4.547   0.196  12.454 -1.0890  0.5595 -0.4225
 2668TIP3   OH229418   6.235   4.347  14.837  0.0254  0.3174 -0.4816
 2668TIP3    H129419   6.228   4.442  14.827  2.6955  0.5958 -0.0893
 2668TIP3    H229420   6.205   4.312  14.753  1.1762  1.6328 -1.4704
 2669TIP3   OH229421   0.909   5.805  11.339 -0.1677  0.1910 -0.8271
 2669TIP3    H129422   0.895   5.826  11.431  3.7965 -0.3020 -0.0038
 2669TIP3    H229423   0.945   5.716  11.340  0.4370  0.3920 -2.8106
 2670TIP3   OH229424   0.877   2.608   4.522  0.2720 -0.0556 -0.1708
 2670TIP3    H129425   0.903   2.700   4.520 -0.0786  0.0608  0.4360
 2670TIP3    H229426   0.820   2.601   4.599 -0.7567 -0.5001 -0.9674
 2671TIP3   OH229427   5.791   6.346   4.515  0.4542 -0.1158 -0.2534
 2671TIP3    H129428   5.877   6.364   4.552 -0.5046  1.7848  1.1798
 2671TIP3    H229429   5.797   6.372   4.424  0.5953  2.8162  0.5473
 2672TIP3   OH229430   3.422   6.437   4.879 -0.6275 -0.1480 -0.2888
 2672TIP3    H129431   3.403   6.344   4.879  1.0294 -0.5114 -1.6495
 2672TIP3    H229432   3.371   6.472   4.952  1.6507 -2.7293  2.6967
 2673TIP3   OH229433   5.908   5.596  12.571  0.0577  0.1391  0.1173
 2673TIP3    H129434   5.972   5.667  12.579  0.0504  0.2421 -0.7336
 2673TIP3    H229435   5.862   5.596  12.656  0.3256  0.8880  0.2683
 2674TIP3   OH229436   4.091   2.597  14.883  0.2595  0.1208 -0.2360
 2674TIP3    H129437   4.044   2.561  14.959  0.9258  0.9161  0.5568
 2674TIP3    H229438   4.022   2.622  14.822 -0.2314 -2.4016 -0.7608
 2675TIP3   OH229439   3.003   2.718   6.082 -0.0882 -0.4251 -0.3281
 2675TIP3    H129440   3.021   2.699   5.990  0.6625 -2.5852  0.2426
 2675TIP3    H229441   3.086   2.704   6.127 -0.9133 -1.3269  0.9620
 2676TIP3   OH229442   3.245   2.042   5.159  0.2451 -0.8501 -0.9150
 2676TIP3    H129443   3.244   1.993   5.242  1.1184  0.2809 -0.2134
 2676TIP3    H229444   3.159   2.082   5.154  0.5396 -0.0712 -0.0118
 2677TIP3   OH229445   5.360   3.378   2.242 -0.1674  0.0479  1.0699
 2677TIP3    H129446   5.400   3.409   2.324 -0.4457  2.6807  0.2399
 2677TIP3    H229447   5.279   3.428   2.235 -0.0101  0.0351 -0.9607
 2678TIP3   OH229448   0.931   0.543   3.549  0.2659 -0.3409 -0.0774
 2678TIP3    H129449   0.953   0.479   3.617 -0.0082  1.0215  1.3379
 2678TIP3    H229450   0.937   0.628   3.594 -0.1102  0.5692 -1.7194
 2679TIP3   OH229451   5.691   1.211  14.637 -0.3479  0.0595  0.1809
 2679TIP3    H129452   5.709   1.121  14.609 -0.7739 -0.3201  1.0931
 2679TIP3    H229453   5.651   1.252  14.561  1.6642  0.0756 -0.9219
 2680TIP3   OH229454   2.300   5.019  15.793 -0.6006  0.1936  0.1547
 2680TIP3    H129455   2.321   5.108  15.821  0.2719 -0.5760  2.0307
 2680TIP3    H229456   2.369   4.996  15.731 -1.4431  1.1954 -1.1970
 2681TIP3   OH229457   3.991   0.134  12.936  0.1357 -0.3617  0.4492
 2681TIP3    H129458   4.016   0.133  12.843  1.7672  2.6760  0.7867
 2681TIP3    H229459   3.921   0.199  12.941  1.7455  1.3291  1.6848
 2682TIP3   OH229460   0.463   5.328  11.555  0.0277 -0.3546  0.0029
 2682TIP3    H129461   0.521   5.259  11.525 -0.0703 -1.0735  1.4252
 2682TIP3    H229462   0.378   5.307  11.517  0.6906  0.7489 -2.1545
 2683TIP3   OH229463   4.903   4.488   4.458  0.2856  0.0355  0.0325
 2683TIP3    H129464   4.867   4.401   4.479 -0.5032  0.7239  1.6662
 2683TIP3    H229465   4.853   4.548   4.514  0.8435  1.5396 -1.0598
 2684TIP3   OH229466   2.456   0.584  13.816  0.1726 -0.0458 -0.3750
 2684TIP3    H129467   2.460   0.531  13.896 -1.1111 -0.7709 -0.7674
 2684TIP3    H229468   2.546   0.586  13.784  0.7680  0.5215  1.2566
 2685TIP3   OH229469   2.441   0.206   5.179 -0.0068 -1.0376 -0.0444
 2685TIP3    H129470   2.408   0.155   5.105  0.7153 -0.7916 -0.5358
 2685TIP3    H229471   2.377   0.276   5.190  1.1928  0.4329 -2.0725
 2686TIP3   OH229472   3.871   3.492   5.912 -0.3566  0.3553 -0.0789
 2686TIP3    H129473   3.910   3.421   5.963 -3.3613 -1.2336  0.1576
 2686TIP3    H229474   3.898   3.572   5.957  2.3158 -0.6461  0.2017
 2687TIP3   OH229475   2.194   4.596  14.492 -0.4225 -0.0809 -0.3145
 2687TIP3    H129476   2.192   4.563  14.582 -1.8034 -2.2058 -1.0650
 2687TIP3    H229477   2.109   4.638  14.480 -0.2456  0.1935 -0.6102
 2688TIP3   OH229478   1.709   2.231   2.666  0.0546 -0.5310  0.5524
 2688TIP3    H129479   1.635   2.289   2.647  0.8005  0.4704  0.6252
 2688TIP3    H229480   1.783   2.290   2.675  0.7656 -1.4790  1.0078
 2689TIP3   OH229481   4.206   5.169   5.121 -0.1371 -0.4298 -0.4916
 2689TIP3    H129482   4.213   5.216   5.037  0.2294  1.0929  0.3759
 2689TIP3    H229483   4.270   5.212   5.177  0.7353 -2.4876  0.1027
 2690TIP3   OH229484   1.690   0.356  11.300  0.0174 -0.2816 -0.6729
 2690TIP3    H129485   1.636   0.402  11.365  0.9028  1.3395 -1.0655
 2690TIP3    H229486   1.638   0.360  11.219 -0.5959 -1.3403 -0.3368
 2691TIP3   OH229487   0.131   5.730   0.142 -0.1395 -0.4805 -0.1572
 2691TIP3    H129488   0.207   5.769   0.098 -0.5723  0.7820  0.1840
 2691TIP3    H229489   0.072   5.705   0.070 -0.7755  1.4254 -0.3320
 2692TIP3   OH229490   0.894   1.141   5.559  0.4876 -0.2076  0.0819
 2692TIP3    H129491   0.803   1.128   5.533  0.9498 -1.3729 -1.0064
 2692TIP3    H229492   0.937   1.173   5.480  0.3213  3.9078  1.5071
 2693TIP3   OH229493   2.137   4.819  13.410 -0.2527  0.5170  0.5619
 2693TIP3    H129494   2.136   4.738  13.359 -0.2064  0.7692  0.1535
 2693TIP3    H229495   2.164   4.792  13.498 -2.2021 -0.1976  0.9630
 2694TIP3   OH229496   1.274   0.856   4.181  0.1868 -0.4805 -0.2668
 2694TIP3    H129497   1.333   0.832   4.252 -1.4703 -1.1008  0.9196
 2694TIP3    H229498   1.243   0.944   4.203 -0.3896 -0.7040 -0.1581
 2695TIP3   OH229499   5.148   4.804   5.690  0.3064  0.1075 -0.4679
 2695TIP3    H129500   5.145   4.761   5.605 -0.8567  0.0122 -0.3874
 2695TIP3    H229501   5.204   4.747   5.744 -0.8415 -1.0620 -0.4979
 2696TIP3   OH229502   3.231   3.391   5.473 -0.4493 -0.0580 -0.2254
 2696TIP3    H129503   3.222   3.421   5.383 -0.2761 -0.8619 -0.5121
 2696TIP3    H229504   3.174   3.449   5.524 -1.6989 -0.5489 -1.0463
 2697TIP3   OH229505   2.002   0.584   3.301 -0.2816 -0.1330 -0.4178
 2697TIP3    H129506   2.066   0.638   3.255  1.2119 -0.7862  0.8588
 2697TIP3    H229507   2.050   0.546   3.374 -2.3383 -0.0163  1.0354
 2698TIP3   OH229508   6.119   3.455   1.306 -0.1108  0.1142  0.3429
 2698TIP3    H129509   6.152   3.441   1.218  0.4891 -0.0761  0.5941
 2698TIP3    H229510   6.197   3.469   1.359 -0.4537  0.0283  0.8778
 2699TIP3   OH229511   2.394   2.740  10.654 -0.4133 -0.1287 -0.1714
 2699TIP3    H129512   2.406   2.794  10.733  0.9261 -2.8638  1.5857
 2699TIP3    H229513   2.338   2.668  10.683  0.8224 -1.6535 -1.4695
 2700TIP3   OH229514   1.104   4.247   0.461 -0.1911 -0.5394  0.0040
 2700TIP3    H129515   1.132   4.217   0.548 -0.2410  2.3680  1.1152
 2700TIP3    H229516   1.019   4.288   0.477 -0.2338 -0.0504 -1.4436
 2701TIP3   OH229517   5.792   6.197   5.182 -1.0557 -0.1642  0.4188
 2701TIP3    H129518   5.753   6.222   5.098 -0.9745 -1.4702 -0.0212
 2701TIP3    H229519   5.730   6.134   5.219 -1.8391  1.5222  2.0484
 2702TIP3   OH229520   1.523   2.365  11.902  0.1893 -0.1263 -0.5765
 2702TIP3    H129521   1.585   2.314  11.851 -1.2810 -1.8586 -0.6575
 2702TIP3    H229522   1.466   2.406  11.837  0.2543  0.1881 -0.4393
 2703TIP3   OH229523   0.615   1.833   0.754 -0.2389 -0.3740  0.7709
 2703TIP3    H129524   0.549   1.785   0.705  0.6493  0.2741 -1.1341
 2703TIP3    H229525   0.689   1.773   0.760  0.2462  0.1124 -0.1356
 2704TIP3   OH229526   0.819   6.216  11.326  0.5041  0.3074  0.0453
 2704TIP3    H129527   0.898   6.162  11.332  0.6279  0.3864 -0.8430
 2704TIP3    H229528   0.806   6.229  11.233  0.0511  1.2120  0.2326
 2705TIP3   OH229529   6.468   4.240   4.768  0.3384  0.2594 -0.0342
 2705TIP3    H129530   6.535   4.172   4.766 -0.7123 -0.7965  0.0717
 2705TIP3    H229531   6.423   4.228   4.851 -1.2183 -0.2694 -0.9235
 2706TIP3   OH229532   4.654   6.367   2.290 -0.3885  0.4636 -0.1779
 2706TIP3    H129533   4.638   6.441   2.349  0.2690  0.0064  0.5853
 2706TIP3    H229534   4.717   6.401   2.225 -0.4063  0.6990 -0.0731
 2707TIP3   OH229535   3.037   3.036  12.796  0.3504  0.1120 -0.0751
 2707TIP3    H129536   3.082   2.952  12.805  0.9702  0.2941 -1.3153
 2707TIP3    H229537   3.021   3.045  12.702 -3.5950 -0.6036  0.4508
 2708TIP3   OH229538   0.671   2.924  16.393 -0.3909  0.8000 -0.0352
 2708TIP3    H129539   0.602   2.975  16.351 -0.5444  0.4788 -0.1691
 2708TIP3    H229540   0.627   2.880  16.466 -0.7570 -0.9995 -1.3367
 2709TIP3   OH229541   1.924   3.248   3.095 -0.0515  0.2080 -0.1926
 2709TIP3    H129542   1.865   3.264   3.021 -0.1193  0.0329 -0.1752
 2709TIP3    H229543   2.011   3.260   3.059 -0.0731 -0.1736 -0.3715
 2710TIP3   OH229544   4.438   4.194  14.832  0.1036 -0.0012  0.6611
 2710TIP3    H129545   4.449   4.287  14.813  2.4752 -0.2323  0.6839
 2710TIP3    H229546   4.344   4.181  14.839 -0.2890  2.2207 -0.2276
 2711TIP3   OH229547   2.361   3.355   0.783  0.3753 -1.2153 -0.4764
 2711TIP3    H129548   2.452   3.384   0.772 -0.2172  0.4528 -1.1556
 2711TIP3    H229549   2.309   3.433   0.764 -1.1246 -1.4912  2.3711
 2712TIP3   OH229550   6.422   0.675  15.125  0.5037 -0.3675  0.4380
 2712TIP3    H129551   6.441   0.760  15.166  1.8683 -0.0577 -0.7956
 2712TIP3    H229552   6.495   0.661  15.064  0.1014 -2.2701  0.3746
 2713TIP3   OH229553   4.756   1.247   3.567  0.4827 -0.6133 -0.5266
 2713TIP3    H129554   4.820   1.299   3.616  0.6742  1.2085 -2.6137
 2713TIP3    H229555   4.710   1.196   3.633  1.3214  1.1231  1.4326
 2714TIP3   OH229556   2.937   4.866   4.046 -0.0721  0.1352  0.0827
 2714TIP3    H129557   2.909   4.940   4.099 -0.5039 -0.3055  0.4782
 2714TIP3    H229558   3.017   4.896   4.003  0.1549  0.5742  0.8095
 2715TIP3   OH229559   6.700   1.322  16.463 -0.1753 -0.0823 -0.0131
 2715TIP3    H129560   6.646   1.290  16.391  0.2229  1.5614 -1.0663
 2715TIP3    H229561   6.641   1.321  16.539 -1.1528 -0.0469 -0.7588
 2716TIP3   OH229562   1.805   2.212  14.817  0.4356 -0.4636 -0.0876
 2716TIP3    H129563   1.744   2.250  14.754 -0.2834  0.0122  0.8773
 2716TIP3    H229564   1.852   2.287  14.853 -0.7887 -0.4773  1.6121
 2717TIP3   OH229565   4.946   0.347  12.175  0.0005 -0.3529  0.1746
 2717TIP3    H129566   4.895   0.428  12.175  2.5272  1.3790 -3.1131
 2717TIP3    H229567   4.898   0.289  12.116 -1.0377 -0.7279  1.3793
 2718TIP3   OH229568   5.716   0.463  13.166  0.7205 -0.0047 -0.0642
 2718TIP3    H129569   5.737   0.544  13.118  0.4677  0.9881  1.4681
 2718TIP3    H229570   5.761   0.394  13.117 -0.5937  0.7825 -2.4999
 2719TIP3   OH229571   1.544   4.401  12.226  0.2651 -0.3533  0.2154
 2719TIP3    H129572   1.473   4.459  12.198  1.3152  0.2108 -1.3447
 2719TIP3    H229573   1.616   4.460  12.250 -0.0181 -0.8845  2.5561
 2720TIP3   OH229574   1.432   3.629  16.101 -0.5773 -0.3859 -0.2108
 2720TIP3    H129575   1.431   3.666  16.189 -0.0860 -0.3733 -0.2132
 2720TIP3    H229576   1.518   3.653  16.066  0.4012 -2.9091  0.3727
 2721TIP3   OH229577   2.391   5.343  16.828 -0.2424  0.3145 -0.1885
 2721TIP3    H129578   2.314   5.355  16.883 -0.3451  1.8063 -0.6394
 2721TIP3    H229579   2.409   5.430  16.791  1.7812  0.0526  0.0877
 2722TIP3   OH229580   4.911   2.387  12.376  0.1924  0.3634  0.2615
 2722TIP3    H129581   4.868   2.302  12.382  0.1832  0.3331 -0.1962
 2722TIP3    H229582   4.951   2.387  12.289  0.1161  0.8616  0.2259
 2723TIP3   OH229583   6.227   4.392   6.428 -0.5039 -0.0445  0.0776
 2723TIP3    H129584   6.134   4.384   6.409 -0.5695  0.1643  0.3078
 2723TIP3    H229585   6.231   4.436   6.513 -0.1714  1.9079 -0.9151
 2724TIP3   OH229586   4.739   6.480  15.379  0.3141  0.2923  0.1195
 2724TIP3    H129587   4.726   6.420  15.452  1.2337  1.5197  1.3136
 2724TIP3    H229588   4.653   6.519  15.365 -0.8017 -2.7002 -1.9773
 2725TIP3   OH229589   4.828   3.692   5.129 -0.1747 -0.2117  0.1910
 2725TIP3    H129590   4.857   3.607   5.163  1.3134  0.4081  0.5191
 2725TIP3    H229591   4.869   3.699   5.044 -0.0484  0.3199  0.2968
 2726TIP3   OH229592   2.742   0.583   2.851  0.6896 -0.5828  0.4064
 2726TIP3    H129593   2.709   0.671   2.833  2.0600 -0.4122 -1.3654
 2726TIP3    H229594   2.818   0.597   2.907 -0.3861 -0.8022  1.9689
 2727TIP3   OH229595   4.932   4.257   4.135 -0.4371 -0.5159  0.1872
 2727TIP3    H129596   4.876   4.253   4.058 -0.9181  2.6263  0.2992
 2727TIP3    H229597   4.972   4.344   4.131  1.0564 -1.0497  2.4398
 2728TIP3   OH229598   0.791   0.217  11.459  0.1695  0.5369 -0.7263
 2728TIP3    H129599   0.884   0.230  11.479  0.0578  0.2582 -0.0152
 2728TIP3    H229600   0.789   0.138  11.405  0.2752  0.0660 -0.0571
 2729TIP3   OH229601   1.820   3.108   3.941  0.4160  0.6866  0.3780
 2729TIP3    H129602   1.872   3.032   3.916  0.5866  1.6221 -2.2435
 2729TIP3    H229603   1.786   3.143   3.859  0.3673  3.4884  1.5087
 2730TIP3   OH229604   2.972   1.614  13.150  0.5984 -0.1722 -0.2823
 2730TIP3    H129605   2.993   1.542  13.090 -0.0421 -0.2036 -0.4718
 2730TIP3    H229606   2.897   1.583  13.200 -0.7016  0.9844 -1.4829
 2731TIP3   OH229607   3.471   0.788  13.161  0.4051  0.4166 -0.1176
 2731TIP3    H129608   3.381   0.786  13.129  0.0194 -2.3514  1.0766
 2731TIP3    H229609   3.521   0.735  13.098  0.6261 -0.6160  0.9221
 2732TIP3   OH229610   1.986   1.515   0.629 -0.1401  0.4761  0.0963
 2732TIP3    H129611   2.023   1.554   0.550 -0.5284 -1.0257 -0.8654
 2732TIP3    H229612   2.059   1.471   0.671 -0.2907 -0.2918 -0.4271
 2733TIP3   OH229613   4.206   1.955  12.751 -0.1593  0.3330 -0.1879
 2733TIP3    H129614   4.283   2.009  12.733 -0.2547  0.6728  0.4121
 2733TIP3    H229615   4.157   2.004  12.816 -0.6797 -0.0801 -0.2631
 2734TIP3   OH229616   1.676   2.354  15.475 -0.0811  0.5505 -0.1478
 2734TIP3    H129617   1.630   2.388  15.397 -0.5853 -0.0811 -0.1350
 2734TIP3    H229618   1.660   2.419  15.543 -1.0044  0.3226 -0.1360
 2735TIP3   OH229619   0.851   1.571   2.155 -0.5016 -1.0826 -0.2565
 2735TIP3    H129620   0.878   1.642   2.213 -1.0582 -1.3626  0.3464
 2735TIP3    H229621   0.770   1.602   2.116  0.0222 -0.7714 -1.1188
 2736TIP3   OH229622   3.507   4.232  16.424  0.0610  0.1607 -0.0411
 2736TIP3    H129623   3.597   4.209  16.401  0.1049 -0.3362  0.6275
 2736TIP3    H229624   3.489   4.183  16.504 -1.2062 -0.6821 -0.8189
 2737TIP3   OH229625   5.656   1.519   6.459 -0.1655 -0.5935  0.4441
 2737TIP3    H129626   5.712   1.443   6.442 -0.1996 -0.6579  0.6184
 2737TIP3    H229627   5.571   1.495   6.421  0.4030  0.2062 -1.3750
 2738TIP3   OH229628   6.050   2.249  14.186  0.3514  0.1401 -0.1180
 2738TIP3    H129629   6.077   2.158  14.183 -0.0446  0.0007  0.4570
 2738TIP3    H229630   6.012   2.266  14.100 -1.2382 -0.7599  0.3973
 2739TIP3   OH229631   4.513   2.482   0.527  0.3846  0.3096 -0.3917
 2739TIP3    H129632   4.530   2.388   0.528 -3.5277 -0.4730 -1.8431
 2739TIP3    H229633   4.494   2.503   0.619 -0.4686 -0.6519 -0.3424
 2740TIP3   OH229634   6.440   5.027   3.587  0.0128  0.2426  0.4291
 2740TIP3    H129635   6.422   5.112   3.628 -1.3186  0.3016 -0.2485
 2740TIP3    H229636   6.360   5.007   3.538  0.3441 -1.3748  0.5370
 2741TIP3   OH229637   5.472   5.305  15.048  0.0042  0.3274  0.3115
 2741TIP3    H129638   5.508   5.393  15.059 -0.6469  0.7245 -0.6693
 2741TIP3    H229639   5.379   5.319  15.029  0.1523 -0.5003 -1.1203
 2742TIP3   OH229640   1.048   5.099   2.994  0.6314 -0.7768  0.2366
 2742TIP3    H129641   0.970   5.145   3.027 -0.8293 -1.9819 -1.4494
 2742TIP3    H229642   1.039   5.010   3.028  0.5468 -1.2801 -1.0744
 2743TIP3   OH229643   1.351   6.511   0.208  0.2838 -0.6652  0.0603
 2743TIP3    H129644   1.416   6.458   0.255  1.4820  1.3605  0.7532
 2743TIP3    H229645   1.402   6.570   0.154 -0.9885  0.7362  0.3496
 2744TIP3   OH229646   0.055   3.562   4.949  0.2242 -0.3304 -0.1457
 2744TIP3    H129647  -0.014   3.495   4.948  1.0760 -1.2288  0.3822
 2744TIP3    H229648   0.015   3.636   4.994 -1.0691 -0.0960 -1.6283
 2745TIP3   OH229649   0.366   2.386   0.507  0.4452  0.0055  0.2790
 2745TIP3    H129650   0.453   2.420   0.485  0.1733 -0.2434 -1.2644
 2745TIP3    H229651   0.344   2.328   0.434 -0.9297 -0.0981  0.7570
 2746TIP3   OH229652   5.108   2.295   0.321 -0.2358  0.3937  0.0419
 2746TIP3    H129653   5.096   2.205   0.292  0.3143  0.8435 -1.6485
 2746TIP3    H229654   5.076   2.296   0.412  0.7319 -1.7197  0.4229
 2747TIP3   OH229655   0.169   5.196   5.624 -0.2423  0.1475  0.0142
 2747TIP3    H129656   0.112   5.131   5.665 -1.9992  1.2523 -0.6330
 2747TIP3    H229657   0.145   5.279   5.666  2.7062  0.2844  1.6018
 2748TIP3   OH229658   5.726   0.311  14.387  0.4423 -0.3038  0.0581
 2748TIP3    H129659   5.774   0.268  14.458  0.2143  0.3150  0.5960
 2748TIP3    H229660   5.637   0.278  14.394  0.5091 -0.5295 -0.1747
 2749TIP3   OH229661   4.437   5.795  15.207  0.2868  0.2453  0.1499
 2749TIP3    H129662   4.509   5.737  15.184 -0.0767 -0.1022 -0.1179
 2749TIP3    H229663   4.358   5.750  15.176 -0.3609 -0.8551  3.1997
 2750TIP3   OH229664   6.636   0.248   2.066  0.0258  0.7221  0.0049
 2750TIP3    H129665   6.611   0.297   1.987  1.6148  0.2675 -0.7938
 2750TIP3    H229666   6.706   0.299   2.105 -0.3430  0.6247  0.8113
 2751TIP3   OH229667   0.492   2.279  16.910  0.9670 -0.5802  0.1405
 2751TIP3    H129668   0.500   2.184  16.915  0.6134 -0.6718 -0.9385
 2751TIP3    H229669   0.559   2.305  16.848  1.2654 -0.0894  0.6648
 2752TIP3   OH229670   0.620   0.654   1.293 -0.0978 -0.5098 -0.1587
 2752TIP3    H129671   0.666   0.734   1.267  0.6494 -0.7756  0.3330
 2752TIP3    H229672   0.542   0.686   1.338 -0.4714 -0.0544 -1.1167
 2753TIP3   OH229673   6.215   5.264   2.849 -0.5654 -0.7142 -0.5858
 2753TIP3    H129674   6.180   5.216   2.924  0.0048 -1.1048 -0.5630
 2753TIP3    H229675   6.138   5.283   2.795 -0.9882 -0.3308  0.1537
 2754TIP3   OH229676   4.281   1.374  17.106 -0.8978 -0.1661 -0.1680
 2754TIP3    H129677   4.319   1.307  17.048 -0.1495 -0.4706  0.6492
 2754TIP3    H229678   4.353   1.397  17.164 -1.4538  0.6276  0.2046
 2755TIP3   OH229679   5.394   0.243  16.159 -0.4331  0.4954 -0.0071
 2755TIP3    H129680   5.429   0.214  16.243 -0.9436  0.4906  0.2029
 2755TIP3    H229681   5.454   0.312  16.131 -0.1278  0.3348  0.2443
 2756TIP3   OH229682   1.556   6.420   3.529 -0.2936 -0.0188  0.1813
 2756TIP3    H129683   1.650   6.434   3.519 -0.1953 -1.8230 -1.9046
 2756TIP3    H229684   1.547   6.376   3.613  0.9047 -1.1239 -0.2432
 2757TIP3   OH229685   3.439   1.254   1.336  0.0080  0.4930  0.0262
 2757TIP3    H129686   3.373   1.279   1.272 -1.0746 -1.0520  0.5091
 2757TIP3    H229687   3.413   1.166   1.364  1.7172  0.2655  0.9437
 2758TIP3   OH229688   0.061   3.338  14.828 -0.4580  0.3885 -0.0888
 2758TIP3    H129689   0.124   3.400  14.865 -0.9023  1.6079 -1.3285
 2758TIP3    H229690   0.108   3.299  14.754 -1.2513  1.5710 -1.2430
 2759TIP3   OH229691   2.089   5.600   4.626 -0.0501 -0.3093  0.0379
 2759TIP3    H129692   2.045   5.520   4.597 -1.3035  0.0030  0.9945
 2759TIP3    H229693   2.062   5.610   4.717  1.4130  0.3232  0.4081
 2760TIP3   OH229694   0.626   6.419   5.223 -0.0483  0.2425  0.1821
 2760TIP3    H129695   0.668   6.370   5.153  0.0329  0.6328 -0.0452
 2760TIP3    H229696   0.676   6.397   5.302  0.1872  0.2139  0.0241
 2761TIP3   OH229697   5.319   3.508   2.515  0.2796  0.1542 -0.0119
 2761TIP3    H129698   5.318   3.579   2.451 -0.7739 -0.2326 -0.4406
 2761TIP3    H229699   5.282   3.547   2.594 -0.8518 -0.0631 -0.4223
 2762TIP3   OH229700   5.755   3.181  17.208  0.1127 -0.6457  0.5491
 2762TIP3    H129701   5.720   3.233  17.280 -0.1244  1.6216 -1.1672
 2762TIP3    H229702   5.849   3.193  17.213  0.2502 -1.8876  1.4779
 2763TIP3   OH229703   2.142   0.496   4.444 -0.1524  0.1648 -0.7163
 2763TIP3    H129704   2.234   0.469   4.435  0.5917  2.2496  0.3102
 2763TIP3    H229705   2.110   0.500   4.354  1.3456  1.2742 -1.2334
 2764TIP3   OH229706   4.203   2.243  14.555 -0.5345  0.6055 -0.3587
 2764TIP3    H129707   4.196   2.329  14.595  0.4209 -0.6130  2.5447
 2764TIP3    H229708   4.118   2.201  14.573  0.1739 -0.2259  1.1326
 2765TIP3   OH229709   1.463   5.755   0.129  0.5867 -0.0336  0.2195
 2765TIP3    H129710   1.442   5.723   0.217 -0.4329 -1.4941 -0.5431
 2765TIP3    H229711   1.416   5.838   0.122 -1.2418 -1.0621  0.2002
 2766TIP3   OH229712   0.767   6.030  16.614 -0.8229 -0.2403 -0.0938
 2766TIP3    H129713   0.738   5.950  16.570  1.2042 -1.2556  0.3699
 2766TIP3    H229714   0.689   6.062  16.659 -2.0672 -1.0374 -1.6458
 2767TIP3   OH229715   4.746   4.687  16.022 -0.8809  0.2173  0.2256
 2767TIP3    H129716   4.818   4.709  16.081 -0.7241 -3.5426  1.6042
 2767TIP3    H229717   4.764   4.737  15.942  2.2779  0.7083  1.1688
 2768TIP3   OH229718   4.591   4.197  15.276  0.0730  0.2982  0.2980
 2768TIP3    H129719   4.628   4.159  15.196 -0.0567  1.0154 -0.1083
 2768TIP3    H229720   4.662   4.250  15.312 -0.2705  0.9717 -0.0102
 2769TIP3   OH229721   0.457   6.759  13.890  0.9458 -0.0276 -0.2492
 2769TIP3    H129722   0.530   6.786  13.834  1.5836 -1.6462 -0.2212
 2769TIP3    H229723   0.415   6.687  13.842 -0.4338  0.6552 -0.1049
 2770TIP3   OH229724   4.699   1.527  13.015  0.4313 -0.4648 -0.7887
 2770TIP3    H129725   4.607   1.514  13.040  0.4289  1.7162  0.4598
 2770TIP3    H229726   4.748   1.470  13.073  0.0365  0.2373  0.2330
 2771TIP3   OH229727   1.841   3.406  14.174  0.5228 -0.6775 -0.1308
 2771TIP3    H129728   1.811   3.411  14.264 -0.4337 -0.0776 -0.4704
 2771TIP3    H229729   1.762   3.383  14.124  0.3074  2.1298 -1.1906
 2772TIP3   OH229730   6.631   4.824  11.213  0.9134 -0.1811  0.7317
 2772TIP3    H129731   6.592   4.867  11.137  0.5446 -0.9358  0.4899
 2772TIP3    H229732   6.725   4.833  11.200  0.8698  2.4215  1.7573
 2773TIP3   OH229733   2.712   2.880  11.444 -0.8850  0.1934  0.1103
 2773TIP3    H129734   2.692   2.956  11.390 -1.9628 -0.1557  0.0068
 2773TIP3    H229735   2.803   2.892  11.470  0.3388 -0.7240 -3.5366
 2774TIP3   OH229736   0.106   1.256   5.509 -0.1372 -0.1926  0.1502
 2774TIP3    H129737   0.106   1.200   5.587  1.0278 -0.8741 -0.3348
 2774TIP3    H229738   0.180   1.315   5.521  1.8431 -2.2201 -1.7896
 2775TIP3   OH229739   5.839   5.270  13.324 -0.7219 -0.3018  0.0749
 2775TIP3    H129740   5.782   5.249  13.249 -0.9936 -1.9769  0.7245
 2775TIP3    H229741   5.920   5.223  13.306 -0.2382  0.5361  0.0861
 2776TIP3   OH229742   5.955   4.064  13.959  0.6091  0.0298  0.0880
 2776TIP3    H129743   5.948   4.152  13.922  0.6679  0.2889  0.6897
 2776TIP3    H229744   6.045   4.059  13.992  0.4697 -0.0951  0.4549
 2777TIP3   OH229745   5.968   6.210  11.462  0.0499 -0.2120 -0.4413
 2777TIP3    H129746   5.958   6.260  11.543  0.3941 -0.8661  0.0060
 2777TIP3    H229747   5.922   6.262  11.396 -3.2070 -1.3311  0.8293
 2778TIP3   OH229748   1.949   3.007  15.644 -0.4872 -0.0880 -0.5661
 2778TIP3    H129749   1.889   3.035  15.574 -1.5501  0.2132  0.4417
 2778TIP3    H229750   1.931   3.068  15.715  0.4713 -0.5050  0.0292
 2779TIP3   OH229751   5.260   6.288   1.601  0.7984  0.7406 -0.0891
 2779TIP3    H129752   5.199   6.251   1.537 -0.1570  1.6796  0.2641
 2779TIP3    H229753   5.339   6.236   1.592  0.4486  0.4489 -1.5938
 2780TIP3   OH229754   3.161   1.526   1.004  0.6593 -0.4249  0.3439
 2780TIP3    H129755   3.176   1.609   1.048 -1.4518 -0.0403  0.3901
 2780TIP3    H229756   3.168   1.546   0.911  1.0917 -0.3822  0.3884
 2781TIP3   OH229757   2.253   4.119   6.243 -0.7020 -0.0154  0.5821
 2781TIP3    H129758   2.303   4.151   6.168  0.6420  2.2440  2.3844
 2781TIP3    H229759   2.172   4.170   6.242 -0.0408  1.0531  1.5100
 2782TIP3   OH229760   6.205   0.801  12.775  0.0389 -0.9410  0.2640
 2782TIP3    H129761   6.154   0.817  12.696 -1.0484 -1.5805  0.8330
 2782TIP3    H229762   6.296   0.796  12.745 -0.1783  0.7057 -0.6821
 2783TIP3   OH229763   2.630   5.073  13.056 -0.0414 -0.0763  0.1907
 2783TIP3    H129764   2.620   5.023  13.137 -0.0559 -0.1561  0.1402
 2783TIP3    H229765   2.548   5.057  13.008 -0.7611  1.3382  0.9112
 2784TIP3   OH229766   0.057   1.236  13.544 -0.4103  0.3885  0.2097
 2784TIP3    H129767  -0.006   1.234  13.616  0.6936 -0.1408  1.1797
 2784TIP3    H229768   0.009   1.202  13.469 -0.8847 -1.3002  1.2570
 2785TIP3   OH229769   5.489   0.490  16.995  0.3273  0.3282  0.0830
 2785TIP3    H129770   5.429   0.456  16.928 -0.1358  0.7688  0.2674
 2785TIP3    H229771   5.453   0.460  17.078  1.0065 -0.3693  0.1177
 2786TIP3   OH229772   1.859   2.654  10.553  0.0726  0.0239 -0.0265
 2786TIP3    H129773   1.886   2.571  10.592  0.1787 -0.3518 -0.8959
 2786TIP3    H229774   1.885   2.648  10.461 -1.1841  0.4460 -0.4250
 2787TIP3   OH229775   5.744   4.322  15.851  0.0703  0.3155  0.3051
 2787TIP3    H129776   5.758   4.302  15.944 -0.0800  0.6229  0.3951
 2787TIP3    H229777   5.656   4.289  15.833  0.3237 -0.2721  0.1186
 2788TIP3   OH229778   2.789   3.123  12.906  0.4915  0.3342  0.0036
 2788TIP3    H129779   2.875   3.093  12.875  0.3556 -1.0630  0.9450
 2788TIP3    H229780   2.736   3.129  12.826  0.9182 -0.6307 -0.3628
 2789TIP3   OH229781   0.874   4.356  14.875  0.1175  0.2996 -0.2988
 2789TIP3    H129782   0.881   4.329  14.783 -1.8366 -0.1789 -0.3179
 2789TIP3    H229783   0.864   4.275  14.923  0.4039  0.6028  0.2741
 2790TIP3   OH229784   4.039   6.110   0.889  0.0408 -0.0364  0.0864
 2790TIP3    H129785   3.956   6.158   0.889  0.9648  1.6383 -0.2683
 2790TIP3    H229786   4.099   6.167   0.936  1.3020 -0.6406 -0.7605
 2791TIP3   OH229787   4.096   1.738   5.642  0.2088 -0.1731 -0.2396
 2791TIP3    H129788   4.110   1.645   5.659  0.8155  0.3035  1.9357
 2791TIP3    H229789   4.029   1.764   5.706  2.8451  1.7447  1.8028
 2792TIP3   OH229790   3.423   6.303   2.301 -0.0477 -0.2910 -0.0383
 2792TIP3    H129791   3.341   6.351   2.308 -0.7540 -1.2302 -1.5184
 2792TIP3    H229792   3.455   6.324   2.213  1.3326  0.1126  0.5451
 2793TIP3   OH229793   2.702   1.504  13.934  0.0620 -0.5006 -0.7758
 2793TIP3    H129794   2.694   1.419  13.892  1.3539 -0.9058 -0.2423
 2793TIP3    H229795   2.788   1.536  13.908  0.4013 -0.2432  0.5864
 2794TIP3   OH229796   3.944   5.743   2.332 -0.6409 -0.1914 -0.0908
 2794TIP3    H129797   4.016   5.794   2.296  1.0760 -2.0414  0.6160
 2794TIP3    H229798   3.867   5.798   2.320  0.8150  1.6507 -1.2483
 2795TIP3   OH229799   3.436   5.516  13.179 -0.5148  0.2369  0.4548
 2795TIP3    H129800   3.515   5.486  13.225 -0.3822  0.2841  0.2623
 2795TIP3    H229801   3.428   5.456  13.105 -0.9462 -0.0753  0.7571
 2796TIP3   OH229802   2.167   0.794   2.079 -0.7532  0.9162 -0.1787
 2796TIP3    H129803   2.165   0.794   1.983  0.4698 -2.0854 -0.2720
 2796TIP3    H229804   2.259   0.809   2.101 -0.1869 -2.7291  0.3448
 2797TIP3   OH229805   3.037   1.399  12.965 -0.3583  0.0226 -0.6252
 2797TIP3    H129806   3.019   1.329  13.028 -0.2859 -1.8908 -2.6807
 2797TIP3    H229807   3.131   1.393  12.949  0.0734  2.1259  0.9101
 2798TIP3   OH229808   5.003   1.457   1.752  0.0660  0.2146  0.7239
 2798TIP3    H129809   5.071   1.461   1.685  0.2350  2.1722  0.9693
 2798TIP3    H229810   5.051   1.456   1.835 -0.1853  0.0399  0.8702
 2799TIP3   OH229811   0.579   3.349  17.089  0.2287 -0.4100  0.2054
 2799TIP3    H129812   0.628   3.314  17.014  1.3818 -1.1112  1.2495
 2799TIP3    H229813   0.643   3.347  17.161 -0.7508  0.5972  1.1074
 2800TIP3   OH229814   0.013   6.297  10.968 -0.0217  0.2813 -0.0132
 2800TIP3    H129815   0.096   6.325  11.007  0.0698  1.6205 -1.1289
 2800TIP3    H229816   0.036   6.226  10.909  0.5163  1.3628 -1.1388
 2801TIP3   OH229817   3.225   2.419   2.189  0.3639 -0.3920  0.5302
 2801TIP3    H129818   3.230   2.508   2.154  0.8890 -0.3260  0.7752
 2801TIP3    H229819   3.212   2.364   2.111  1.6826 -0.2595  0.2099
 2802TIP3   OH229820   3.429   0.718   0.335 -0.1599  0.5298  0.4215
 2802TIP3    H129821   3.343   0.692   0.301  0.2354 -2.2682  1.4237
 2802TIP3    H229822   3.488   0.708   0.260 -0.4784  1.1570  0.0841
 2803TIP3   OH229823   2.699   4.855   2.620  0.3144 -0.5905 -0.4568
 2803TIP3    H129824   2.607   4.850   2.647  0.3304 -0.1162 -0.3232
 2803TIP3    H229825   2.746   4.884   2.697  0.6045 -1.0102 -0.4748
 2804TIP3   OH229826   4.274   3.123  14.569  0.0178  0.3230 -0.2077
 2804TIP3    H129827   4.271   3.141  14.663 -0.7354 -0.0758 -0.1523
 2804TIP3    H229828   4.207   3.180  14.532  0.9937  1.2143 -0.6362
 2805TIP3   OH229829   3.737   4.817  15.930  0.1401 -0.7485  0.2313
 2805TIP3    H129830   3.748   4.809  16.024  2.4716  1.1174  0.1579
 2805TIP3    H229831   3.644   4.837  15.918  0.1285  0.4305  2.2272
 2806TIP3   OH229832   4.178   2.262   5.421  0.1978 -0.8660  0.3062
 2806TIP3    H129833   4.256   2.285   5.471 -0.9691 -0.6060  2.0568
 2806TIP3    H229834   4.119   2.224   5.486 -1.4977 -0.1591 -0.7985
 2807TIP3   OH229835   4.547   3.505  16.370  0.1848  0.2663  0.6221
 2807TIP3    H129836   4.569   3.535  16.282  0.7892 -3.4620 -0.5933
 2807TIP3    H229837   4.451   3.499  16.370  0.2186 -0.2578  0.0441
 2808TIP3   OH229838   6.192   6.419   2.075 -0.0756  0.3845 -0.4323
 2808TIP3    H129839   6.282   6.440   2.051  0.2768  0.4849  0.9386
 2808TIP3    H229840   6.201   6.354   2.145 -1.0631  0.5810 -0.1176
 2809TIP3   OH229841   2.384   2.374  15.240  0.2050  0.1867  0.4050
 2809TIP3    H129842   2.404   2.303  15.301  1.2964 -0.6414 -0.8887
 2809TIP3    H229843   2.289   2.384  15.245  0.1805 -0.5336  1.5035
 2810TIP3   OH229844   5.293   0.893   3.586  0.2572 -0.1918 -0.2363
 2810TIP3    H129845   5.254   0.817   3.545  0.5245 -0.0052 -0.8383
 2810TIP3    H229846   5.337   0.858   3.664 -1.5123 -0.3301  0.7197
 2811TIP3   OH229847   0.255   4.562  13.020  0.2277 -0.0350  0.0054
 2811TIP3    H129848   0.189   4.630  13.004  1.1637  0.9036  0.1015
 2811TIP3    H229849   0.246   4.542  13.113 -1.9469 -2.0619 -0.5995
 2812TIP3   OH229850   0.606   2.299   0.279  0.2692  0.4605  0.5147
 2812TIP3    H129851   0.574   2.384   0.250  0.9024  0.0082 -1.6205
 2812TIP3    H229852   0.531   2.240   0.270  0.5389  0.2645 -0.4940
 2813TIP3   OH229853   2.088   3.577  12.752 -0.0772  0.0835  0.0080
 2813TIP3    H129854   2.010   3.576  12.696  1.2840  2.5307 -2.0362
 2813TIP3    H229855   2.098   3.669  12.776  2.6763 -0.0532 -0.4828
 2814TIP3   OH229856   6.756   2.081   1.679  0.2407 -0.4976 -0.7180
 2814TIP3    H129857   6.695   2.154   1.684  0.5639 -0.1564 -1.5547
 2814TIP3    H229858   6.718   2.013   1.735 -1.5458 -0.7648 -2.2148
 2815TIP3   OH229859   3.517   2.352   4.344  0.1361 -0.1499 -0.9221
 2815TIP3    H129860   3.556   2.364   4.431  1.0414  0.3797 -1.3921
 2815TIP3    H229861   3.590   2.324   4.288  0.0694  1.7482 -2.0146
 2816TIP3   OH229862   2.270   5.343  12.247 -0.2912  0.1799  0.0210
 2816TIP3    H129863   2.236   5.292  12.173  1.2122 -0.7513 -0.0548
 2816TIP3    H229864   2.234   5.300  12.324  0.3528 -0.5286 -0.0720
 2817TIP3   OH229865   4.106   4.756  15.213  0.3262  0.3081 -0.4738
 2817TIP3    H129866   4.112   4.852  15.211  1.6681  0.2265 -0.6507
 2817TIP3    H229867   4.056   4.737  15.293  0.5690  1.1330 -0.1202
 2818TIP3   OH229868   3.830   1.348  15.737 -0.2586 -0.3837  0.1663
 2818TIP3    H129869   3.821   1.254  15.719 -0.1064 -0.1515 -1.1698
 2818TIP3    H229870   3.917   1.370  15.704 -0.3910  0.2768  0.2630
 2819TIP3   OH229871   0.567   5.749   1.577  0.0127 -0.4535  0.5019
 2819TIP3    H129872   0.568   5.671   1.632  0.3989 -0.9561 -0.2093
 2819TIP3    H229873   0.650   5.746   1.530 -1.3069 -1.3161 -1.8571
 2820TIP3   OH229874   5.591   2.318   1.075  0.6054  0.5642 -0.0294
 2820TIP3    H129875   5.548   2.403   1.087 -0.7992  0.0315 -1.1092
 2820TIP3    H229876   5.617   2.318   0.983 -1.2809 -0.9905 -0.6075
 2821TIP3   OH229877   5.272   2.563  14.146 -0.1007  0.6350 -0.2516
 2821TIP3    H129878   5.295   2.563  14.053 -2.7558  0.9175 -0.9527
 2821TIP3    H229879   5.216   2.640  14.157  0.4486  0.7888  1.6711
 2822TIP3   OH229880   3.285   4.846   4.241  0.4886  0.0646 -0.7104
 2822TIP3    H129881   3.295   4.751   4.230  0.4185 -0.5285  3.3812
 2822TIP3    H229882   3.368   4.883   4.213  1.2003 -1.4206 -0.6157
 2823TIP3   OH229883   2.133   4.135  14.682  0.2331 -0.1537 -0.2762
 2823TIP3    H129884   2.193   4.097  14.619 -1.2459 -0.4705 -1.5360
 2823TIP3    H229885   2.086   4.202  14.632  0.6602  1.2013  1.1025
 2824TIP3   OH229886   6.229   4.647   1.929 -0.2381  0.3429  0.0498
 2824TIP3    H129887   6.148   4.599   1.948 -0.0373 -0.4274 -1.0106
 2824TIP3    H229888   6.285   4.630   2.004 -0.0844 -1.2774 -0.4269
 2825TIP3   OH229889   4.297   0.954   2.612 -0.1853 -0.1222  0.2916
 2825TIP3    H129890   4.370   0.926   2.555 -0.0954  1.2405 -0.3050
 2825TIP3    H229891   4.298   1.050   2.605 -3.4447 -0.1653 -1.4909
 2826TIP3   OH229892   6.056   2.462  12.852 -0.1718  0.6648  0.4772
 2826TIP3    H129893   5.973   2.433  12.814 -0.4091  3.2719 -1.1683
 2826TIP3    H229894   6.121   2.442  12.785  0.2311  0.3473  0.9680
 2827TIP3   OH229895   6.699   1.306  14.844  0.3858 -0.0906  0.2445
 2827TIP3    H129896   6.745   1.305  14.927 -0.6748 -0.5363  0.8361
 2827TIP3    H229897   6.722   1.390  14.804  0.8287  0.1585  1.0228
 2828TIP3   OH229898   0.291   2.635  12.343  0.1993  0.2588  0.2540
 2828TIP3    H129899   0.223   2.702  12.345  1.2106  1.3091  0.0371
 2828TIP3    H229900   0.250   2.560  12.300 -0.5153  1.2426 -0.8181
 2829TIP3   OH229901   5.207   5.290   4.542  0.1262 -0.0535  0.0516
 2829TIP3    H129902   5.291   5.248   4.523  0.1559 -0.3207  0.7824
 2829TIP3    H229903   5.177   5.249   4.623  0.4249  1.7213  1.0831
 2830TIP3   OH229904   3.181   5.026   3.992 -0.7793 -0.7444 -0.4542
 2830TIP3    H129905   3.254   4.965   3.977 -0.0593  0.2593 -1.1231
 2830TIP3    H229906   3.194   5.094   3.925 -1.3432  0.3445  0.5435
 2831TIP3   OH229907   2.810   1.393   1.945 -0.3045  0.0729  0.3543
 2831TIP3    H129908   2.830   1.299   1.936 -0.3314 -0.0267  1.2716
 2831TIP3    H229909   2.746   1.410   1.876  1.3592 -0.0679 -1.2639
 2832TIP3   OH229910   6.765   6.696   3.162 -0.1590  1.0222 -0.3009
 2832TIP3    H129911   6.830   6.656   3.105 -2.3499  0.7482 -2.7367
 2832TIP3    H229912   6.775   6.790   3.148 -1.2756  0.9246 -1.8638
 2833TIP3   OH229913   6.498   5.456  15.188  0.1328  0.2362  0.2646
 2833TIP3    H129914   6.584   5.451  15.229  0.0554  1.9796  0.6745
 2833TIP3    H229915   6.457   5.533  15.227 -2.5294 -1.8301  1.7779
 2834TIP3   OH229916   4.892   2.325   2.818 -0.5897 -0.1155  0.0962
 2834TIP3    H129917   4.954   2.373   2.873  0.7878  1.4320 -2.7262
 2834TIP3    H229918   4.807   2.367   2.834 -0.0306  0.9258  0.3604
 2835TIP3   OH229919   2.168   1.739  16.022 -0.4759 -0.2152 -0.2748
 2835TIP3    H129920   2.098   1.675  16.024 -2.7687  2.1223 -2.5004
 2835TIP3    H229921   2.210   1.727  15.938 -0.0412  0.2839 -0.1367
 2836TIP3   OH229922   2.777   4.999  16.934 -0.1798  0.2010  0.4551
 2836TIP3    H129923   2.769   5.094  16.947 -1.0777  0.2236 -0.2220
 2836TIP3    H229924   2.780   4.989  16.839  0.4561 -0.4117  0.5404
 2837TIP3   OH229925   4.870   3.638  16.100 -0.1848 -0.2387 -0.0531
 2837TIP3    H129926   4.930   3.581  16.149 -0.8002  0.1690  1.2231
 2837TIP3    H229927   4.792   3.584  16.088 -0.2301 -0.1596 -0.1114
 2838TIP3   OH229928   6.264   2.755  14.959 -0.4896 -0.0206 -0.0259
 2838TIP3    H129929   6.344   2.757  15.010 -0.2151 -0.0710 -0.4567
 2838TIP3    H229930   6.274   2.680  14.900 -1.5174 -0.9837  1.0033
 2839TIP3   OH229931   3.092   1.236   2.348  0.2323 -0.0659 -0.3124
 2839TIP3    H129932   3.107   1.299   2.278  2.0979 -0.3068 -0.1807
 2839TIP3    H229933   3.071   1.290   2.425  0.0620  0.3050 -0.6198
 2840TIP3   OH229934   6.739   1.627  15.024 -0.2362 -0.2839  0.4149
 2840TIP3    H129935   6.691   1.630  15.107  2.5262  0.3382  2.0376
 2840TIP3    H229936   6.787   1.710  15.021 -0.0555 -0.4305 -1.6904
 2841TIP3   OH229937   2.599   5.780  15.343  0.0168  0.2862 -0.5086
 2841TIP3    H129938   2.572   5.872  15.340  2.4043  1.0076 -1.1803
 2841TIP3    H229939   2.546   5.742  15.413 -2.0496  1.8025 -1.1869
 2842TIP3   OH229940   1.175   2.163   0.447 -0.5933  0.0264 -0.8025
 2842TIP3    H129941   1.269   2.179   0.435 -0.6936  3.2204  1.6989
 2842TIP3    H229942   1.169   2.128   0.536 -1.7629 -0.0659 -0.9166
 2843TIP3   OH229943   2.519   4.783  16.747 -0.6886 -0.0794 -0.0631
 2843TIP3    H129944   2.494   4.875  16.752 -0.9732 -0.1857  0.5408
 2843TIP3    H229945   2.513   4.761  16.654  0.3258  0.7682 -0.3340
 2844TIP3   OH229946   5.608   3.310   5.157  0.0326  0.1943 -0.3144
 2844TIP3    H129947   5.580   3.398   5.181 -1.2825 -0.1857 -0.4331
 2844TIP3    H229948   5.529   3.266   5.126  0.4981 -1.2838  0.5059
 2845TIP3   OH229949   1.529   3.341  14.254  0.1320 -1.0283  0.0456
 2845TIP3    H129950   1.544   3.394  14.176  0.3453  0.2020  0.9198
 2845TIP3    H229951   1.475   3.396  14.311  3.1474 -0.3724  2.4013
 2846TIP3   OH229952   1.008   3.259  11.331  0.2330  0.5910  0.2552
 2846TIP3    H129953   1.061   3.181  11.352  4.1269  3.1405  0.4747
 2846TIP3    H229954   1.009   3.263  11.235 -1.5632 -0.6325  0.1702
 2847TIP3   OH229955   5.295   6.498   3.899 -0.5601 -0.2340 -0.3770
 2847TIP3    H129956   5.322   6.555   3.827  1.0310  0.2936  0.6062
 2847TIP3    H229957   5.226   6.547   3.944 -0.1267  0.3597 -0.3394
 2848TIP3   OH229958   4.964   0.223  12.588  0.1360  0.5301  0.9725
 2848TIP3    H129959   4.958   0.218  12.493  1.0194  1.3612  0.8714
 2848TIP3    H229960   4.896   0.162  12.619  1.8647 -2.1124 -0.1900
 2849TIP3   OH229961   5.068   1.315   3.141  0.3685 -0.0071  0.5020
 2849TIP3    H129962   4.998   1.297   3.204 -1.4794 -0.2784 -1.5752
 2849TIP3    H229963   5.102   1.229   3.118 -0.8162 -0.0955 -0.9295
 2850TIP3   OH229964   1.266   4.864  12.314 -0.6832  0.2476 -0.1458
 2850TIP3    H129965   1.263   4.911  12.397 -1.6446 -2.8068  1.6342
 2850TIP3    H229966   1.181   4.880  12.274 -1.1718 -0.3142  0.6552
 2851TIP3   OH229967   2.305   0.351   1.485 -0.2598 -0.9400 -0.3170
 2851TIP3    H129968   2.340   0.339   1.573 -0.8521  1.0163  0.2071
 2851TIP3    H229969   2.292   0.262   1.452  0.1403 -1.6862  1.4891
 2852TIP3   OH229970   2.774   2.328   4.001  0.4417  0.0036 -0.4726
 2852TIP3    H129971   2.681   2.336   3.984  0.5321  0.9042 -0.5858
 2852TIP3    H229972   2.814   2.398   3.949  0.9467  1.1123  1.3572
 2853TIP3   OH229973   3.458   0.669  12.161 -0.4818 -0.4634 -0.5563
 2853TIP3    H129974   3.378   0.696  12.206 -0.5270 -2.2004  0.4607
 2853TIP3    H229975   3.527   0.724  12.199 -0.9050 -0.2232 -0.1360
 2854TIP3   OH229976   0.517   3.352  15.413  0.5127  0.0328  0.0518
 2854TIP3    H129977   0.491   3.429  15.463  1.6474  0.5404 -0.1309
 2854TIP3    H229978   0.568   3.299  15.474 -0.1317 -0.5115  0.1315
 2855TIP3   OH229979   3.093   4.210  12.133 -0.1784  0.5068 -0.0569
 2855TIP3    H129980   3.114   4.289  12.183  0.9238 -0.4423  1.0006
 2855TIP3    H229981   3.053   4.151  12.197 -0.5383  0.0074 -0.7341
 2856TIP3   OH229982   1.313   4.809   1.723  0.2535 -0.1521 -0.2262
 2856TIP3    H129983   1.233   4.832   1.770 -0.4510  1.0117 -1.9684
 2856TIP3    H229984   1.359   4.749   1.783 -1.4384 -0.0776  1.1937
 2857TIP3   OH229985   5.346   1.122   4.318 -0.2967  0.1259 -0.0499
 2857TIP3    H129986   5.420   1.121   4.379  1.0100  0.4494 -1.5840
 2857TIP3    H229987   5.332   1.030   4.296 -1.4115 -0.0836  1.4663
 2858TIP3   OH229988   0.756   0.405   4.309 -0.0989 -0.0873 -0.1309
 2858TIP3    H129989   0.811   0.465   4.359  1.6207 -2.6657  1.1868
 2858TIP3    H229990   0.670   0.409   4.350  1.0992 -1.6245  2.6746
 2859TIP3   OH229991   2.148   6.260  14.533  0.3305 -0.2046 -0.4206
 2859TIP3    H129992   2.198   6.268  14.614  1.7287 -0.9434 -1.2013
 2859TIP3    H229993   2.213   6.242  14.465 -0.9097 -0.4573 -1.5754
 2860TIP3   OH229994   6.123   1.190  15.136  0.1405 -0.0318 -0.2693
 2860TIP3    H129995   6.098   1.108  15.092 -1.1612  0.1604  0.0817
 2860TIP3    H229996   6.041   1.238  15.146  0.7021  0.7605  0.6740
 2861TIP3   OH229997   2.733   2.211  10.948 -0.4556 -0.5363 -0.3558
 2861TIP3    H129998   2.804   2.260  10.906 -1.3836 -0.2292 -1.6058
 2861TIP3    H229999   2.727   2.130  10.898 -2.4278  0.3842 -1.7211
 2862TIP3   OH230000   5.630   2.274  16.410  0.3864 -0.0272 -0.0504
 2862TIP3    H130001   5.677   2.195  16.382  1.8701  0.4816  0.9576
 2862TIP3    H230002   5.578   2.245  16.485  0.3630 -0.2158 -0.1383
 2863TIP3   OH230003   2.339   5.715   5.167  0.1888  0.4014  0.0233
 2863TIP3    H130004   2.429   5.701   5.196 -0.2248 -1.0511  0.6535
 2863TIP3    H230005   2.322   5.644   5.105 -0.7039  0.3113  0.3590
 2864TIP3   OH230006   4.739   5.102   1.257  0.2687  0.0746 -0.4224
 2864TIP3    H130007   4.795   5.145   1.322 -0.1898  0.8887 -0.5502
 2864TIP3    H230008   4.703   5.175   1.206  0.7450 -0.5624 -1.6877
 2865TIP3   OH230009   0.596   6.679  14.139  0.0158 -0.0023 -0.5953
 2865TIP3    H130010   0.654   6.604  14.155  0.1499  0.3957  0.8258
 2865TIP3    H230011   0.546   6.654  14.061  1.4455 -0.7410 -1.2934
 2866TIP3   OH230012   5.737   0.991  12.366 -0.5913  0.6009 -0.5128
 2866TIP3    H130013   5.708   1.033  12.285 -1.0828 -0.2024 -0.7580
 2866TIP3    H230014   5.823   1.028  12.383  0.1452 -0.3030 -2.1966
 2867TIP3   OH230015   3.535   6.562  11.007  0.0770  0.1966  0.2179
 2867TIP3    H130016   3.491   6.642  11.036  1.3213  1.8161 -2.1659
 2867TIP3    H230017   3.481   6.530  10.935  0.9152  0.2758 -0.4538
 2868TIP3   OH230018   3.063   2.745  13.796  0.1568  0.5423  0.0581
 2868TIP3    H130019   3.138   2.782  13.749 -0.0488  3.3649  1.8402
 2868TIP3    H230020   2.987   2.787  13.757 -0.3347 -0.5618 -0.1783
 2869TIP3   OH230021   2.005   0.631  17.075 -0.1890 -0.1472 -0.3790
 2869TIP3    H130022   2.084   0.605  17.028 -0.5815  0.3522 -1.3232
 2869TIP3    H230023   1.964   0.697  17.019 -0.0748  1.3030  1.1976
 2870TIP3   OH230024   2.584   5.049  16.495  0.0393 -0.7869  0.0974
 2870TIP3    H130025   2.522   5.122  16.485  1.8930  0.7765 -0.2499
 2870TIP3    H230026   2.530   4.977  16.526 -1.6368  1.0747  1.7086
 2871TIP3   OH230027   6.675   5.403   5.592  0.8181 -0.1618 -0.2046
 2871TIP3    H130028   6.751   5.449   5.626  0.8478 -0.0340 -0.4428
 2871TIP3    H230029   6.641   5.354   5.667 -0.8234  2.3873  0.7651
 2872TIP3   OH230030   4.855   6.422  16.570  0.4745  0.3714  0.6423
 2872TIP3    H130031   4.788   6.463  16.517  0.9519 -0.1673 -0.3963
 2872TIP3    H230032   4.936   6.431  16.519  0.8890 -0.3757  1.1513
 2873TIP3   OH230033   1.200   2.084   1.954  0.5909 -0.5101 -0.3682
 2873TIP3    H130034   1.168   2.104   1.866  1.1715  0.4148 -0.3757
 2873TIP3    H230035   1.156   2.002   1.978  1.0178 -1.1658 -1.8178
 2874TIP3   OH230036   5.082   3.216  16.285 -0.6535 -0.1688 -0.2614
 2874TIP3    H130037   5.062   3.298  16.240  0.0872  0.1098 -0.0914
 2874TIP3    H230038   5.159   3.236  16.338 -0.6864 -0.8769  0.0542
 2875TIP3   OH230039   2.223   6.711   0.848  0.1899 -1.0136  0.1401
 2875TIP3    H130040   2.137   6.740   0.879 -0.3734 -0.5382 -1.7535
 2875TIP3    H230041   2.280   6.718   0.924 -1.5972 -2.0153  1.6252
 2876TIP3   OH230042   4.198   4.090   2.154 -0.4920 -0.0786 -0.3664
 2876TIP3    H130043   4.130   4.052   2.098 -0.5574 -0.9525  0.2863
 2876TIP3    H230044   4.189   4.185   2.143 -1.6822 -0.1953 -0.4419
 2877TIP3   OH230045   3.777   4.306  15.138  0.2145  0.4814 -0.0051
 2877TIP3    H130046   3.872   4.298  15.139  0.1489 -0.3725 -0.3518
 2877TIP3    H230047   3.752   4.289  15.047 -0.3425 -0.2430  0.2718
 2878TIP3   OH230048   3.786   1.987   0.736  0.0098 -0.2374  0.8707
 2878TIP3    H130049   3.834   1.909   0.707 -0.1313  0.5820 -1.7099
 2878TIP3    H230050   3.853   2.056   0.741 -0.0853 -0.2157  1.9045
 2879TIP3   OH230051   3.601   1.930  16.873  0.0426  0.2031  0.7061
 2879TIP3    H130052   3.637   1.953  16.959 -1.1911  0.0231  1.2724
 2879TIP3    H230053   3.544   1.855  16.890 -1.1811  0.9408 -0.0625
 2880TIP3   OH230054   5.600   3.297   3.263 -0.1289 -0.6040 -0.1922
 2880TIP3    H130055   5.540   3.366   3.290 -0.4811 -0.6083 -0.9385
 2880TIP3    H230056   5.672   3.301   3.326  0.5734  1.4107 -1.0811
 2881TIP3   OH230057   4.922   1.892  15.925 -0.0362  0.1743  0.4919
 2881TIP3    H130058   4.957   1.832  15.860 -0.8498 -1.3958  1.4609
 2881TIP3    H230059   4.859   1.946  15.877 -0.2425 -0.6170 -0.1250
 2882TIP3   OH230060   5.457   3.160  15.371 -0.1660  0.1430 -0.0024
 2882TIP3    H130061   5.508   3.131  15.446  2.0519 -0.0403 -1.5123
 2882TIP3    H230062   5.443   3.080  15.319  0.4604  0.6784 -1.0094
 2883TIP3   OH230063   6.522   5.631  12.339 -0.6131  0.5476  0.2101
 2883TIP3    H130064   6.461   5.559  12.353  0.0403 -0.1585 -0.5239
 2883TIP3    H230065   6.582   5.627  12.413 -0.3202  0.0719 -0.0527
 2884TIP3   OH230066   2.092   0.914   3.834 -0.4424 -0.3346 -0.0615
 2884TIP3    H130067   2.107   1.008   3.846 -0.7612 -0.3994  0.8479
 2884TIP3    H230068   2.003   0.899   3.865 -0.0135 -1.1206  0.8507
 2885TIP3   OH230069   3.343   3.298  12.703  0.2009 -0.2244  0.2690
 2885TIP3    H130070   3.426   3.346  12.710 -0.6271  0.9189  2.6137
 2885TIP3    H230071   3.278   3.365  12.683 -0.7177 -0.5616  2.0364
 2886TIP3   OH230072   1.652   5.712   6.355 -0.6464 -0.0963 -0.2477
 2886TIP3    H130073   1.691   5.788   6.399 -0.4840 -0.9479  1.0946
 2886TIP3    H230074   1.710   5.639   6.376 -2.2958 -1.1383  0.7561
 2887TIP3   OH230075   4.140   2.607  10.603 -0.0892  0.4988  0.0722
 2887TIP3    H130076   4.156   2.572  10.515  0.7889  2.0345 -0.4023
 2887TIP3    H230077   4.077   2.678  10.589 -1.1022 -0.2365  0.8849
 2888TIP3   OH230078   2.879   1.192   3.045 -0.0727  0.3648 -0.3986
 2888TIP3    H130079   2.837   1.245   3.113 -1.2138 -0.4457 -0.4766
 2888TIP3    H230080   2.964   1.235   3.032  0.2346  0.4324  1.6476
 2889TIP3   OH230081   4.884   2.195  14.116 -0.2134  0.1756  0.1031
 2889TIP3    H130082   4.928   2.262  14.063 -0.2979  1.2305  1.3594
 2889TIP3    H230083   4.891   2.226  14.206 -0.4906 -1.3773  0.6873
 2890TIP3   OH230084   4.686   0.355   2.068  0.5215  0.6263 -0.9905
 2890TIP3    H130085   4.620   0.288   2.087  0.5481  0.3414 -1.8918
 2890TIP3    H230086   4.725   0.375   2.153 -0.1405  0.1807 -0.5783
 2891TIP3   OH230087   5.018   2.478   4.239  0.8345 -0.5137  0.0968
 2891TIP3    H130088   4.999   2.428   4.318  0.8538 -2.1317 -0.8944
 2891TIP3    H230089   5.105   2.448   4.212  0.8190 -0.0018 -0.5430
 2892TIP3   OH230090   4.833   3.802  14.263 -0.0468 -0.4551 -0.3853
 2892TIP3    H130091   4.857   3.859  14.191 -2.0427 -1.2115 -1.6936
 2892TIP3    H230092   4.875   3.718  14.243 -1.9511 -1.1681 -1.6095
 2893TIP3   OH230093   3.151   3.425   0.140  0.6024 -0.6388  0.2325
 2893TIP3    H130094   3.242   3.445   0.121  0.5790 -0.8095 -0.0674
 2893TIP3    H230095   3.143   3.436   0.234  0.7777 -0.0045  0.1734
 2894TIP3   OH230096   4.777   5.680   5.563 -0.3871  0.2693  0.4355
 2894TIP3    H130097   4.835   5.725   5.502 -0.1282  0.8473  1.0922
 2894TIP3    H230098   4.732   5.751   5.609 -2.2039 -0.1771 -0.6239
 2895TIP3   OH230099   4.856   0.466  12.639 -0.3992  0.0245 -0.4086
 2895TIP3    H130100   4.791   0.484  12.571  0.8340 -0.4270 -1.7292
 2895TIP3    H230101   4.875   0.372  12.629  1.6783  0.4850 -1.1668
 2896TIP3   OH230102   6.090   3.750   5.494 -0.4308  0.5680 -0.5135
 2896TIP3    H130103   6.135   3.739   5.411  0.2951  0.8263 -0.1558
 2896TIP3    H230104   6.002   3.781   5.470  0.6270  3.2502 -1.0699
 2897TIP3   OH230105   1.682   5.172   1.729  0.1352  0.1458 -0.2460
 2897TIP3    H130106   1.607   5.142   1.677 -0.0544  0.6310 -0.2533
 2897TIP3    H230107   1.646   5.186   1.816 -0.5504  3.5976 -1.0269
 2898TIP3   OH230108   3.797   0.684   4.392  0.2259  0.1919 -0.7976
 2898TIP3    H130109   3.776   0.640   4.475  0.8008  1.8150  0.2460
 2898TIP3    H230110   3.723   0.743   4.377  0.5235  0.5205 -0.9782
 2899TIP3   OH230111   6.248   4.394   5.320  0.0095 -1.3471  0.8351
 2899TIP3    H130112   6.301   4.414   5.397  0.9574  1.0383 -0.4126
 2899TIP3    H230113   6.310   4.354   5.258  0.3589  1.2133 -0.5273
 2900TIP3   OH230114   1.204   0.017  16.090  0.0459 -0.3075 -0.2284
 2900TIP3    H130115   1.295   0.023  16.062 -0.0490  0.0892 -0.4539
 2900TIP3    H230116   1.163   0.096  16.056 -0.5595 -0.8504 -0.7808
 2901TIP3   OH230117   5.263   0.343  14.732  0.5697 -0.0033  0.5609
 2901TIP3    H130118   5.343   0.388  14.759  0.4528 -1.5074  3.6573
 2901TIP3    H230119   5.204   0.354  14.806 -0.9299 -1.7044 -0.3452
 2902TIP3   OH230120   3.758   1.759   1.487  0.6088 -0.1492  0.4779
 2902TIP3    H130121   3.838   1.811   1.485  0.1734  0.5212  0.4699
 2902TIP3    H230122   3.688   1.820   1.462  0.1312 -0.7956  0.2011
 2903TIP3   OH230123   1.444   0.360  15.554 -1.2151 -0.2147  0.0940
 2903TIP3    H130124   1.429   0.441  15.602  0.4928  0.6816 -0.8323
 2903TIP3    H230125   1.536   0.364  15.527 -0.9044 -2.7877  0.6331
 2904TIP3   OH230126   3.191   6.360   3.145 -0.3302 -0.2532  0.2174
 2904TIP3    H130127   3.122   6.400   3.091  0.1410  0.5856  0.2315
 2904TIP3    H230128   3.252   6.323   3.082 -0.8007 -1.0225  0.2047
 2905TIP3   OH230129   0.025   0.840  12.542 -0.8021 -0.2863 -0.1513
 2905TIP3    H130130   0.065   0.895  12.610 -4.3466  1.3707  0.7158
 2905TIP3    H230131  -0.004   0.763  12.589 -1.6519  0.0482 -0.1278
 2906TIP3   OH230132   6.774   5.590  14.313  0.5400 -0.2305  0.2447
 2906TIP3    H130133   6.686   5.561  14.291 -0.0516 -1.4098  3.8776
 2906TIP3    H230134   6.826   5.571  14.235 -1.7465 -2.4985 -0.7819
 2907TIP3   OH230135   1.079   0.981   5.394 -0.1753 -0.0298  0.1940
 2907TIP3    H130136   0.992   0.944   5.376 -0.4178  0.4730  0.3290
 2907TIP3    H230137   1.082   1.061   5.341  0.6344 -0.6266 -0.6880
 2908TIP3   OH230138   0.016   1.570  14.780 -0.4122 -0.6855  0.2215
 2908TIP3    H130139  -0.045   1.612  14.719  1.5302  0.1085 -1.2421
 2908TIP3    H230140  -0.021   1.586  14.866 -0.1108  3.6019 -0.3290
 2909TIP3   OH230141   6.632   5.372   4.756  0.3398  0.3440  0.1279
 2909TIP3    H130142   6.544   5.338   4.772  0.7323 -0.8851 -0.2785
 2909TIP3    H230143   6.686   5.331   4.823  0.9834 -0.5575 -0.9272
 2910TIP3   OH230144   6.612   5.442   2.929 -0.2585 -0.2649 -0.0424
 2910TIP3    H130145   6.651   5.492   3.001  1.8898 -1.0697 -0.6195
 2910TIP3    H230146   6.615   5.501   2.854 -2.7425  0.6731  0.5255
 2911TIP3   OH230147   5.415   6.179   2.190 -0.1518 -0.0880 -0.1444
 2911TIP3    H130148   5.436   6.193   2.283 -0.3305 -1.6907  0.1542
 2911TIP3    H230149   5.470   6.242   2.144 -0.4434  1.0977  1.0742
 2912TIP3   OH230150   2.329   5.166  14.653  0.0978 -0.5871  0.4895
 2912TIP3    H130151   2.415   5.176  14.613 -0.5701 -1.5732 -1.2067
 2912TIP3    H230152   2.346   5.116  14.734  1.1701 -0.3472  0.4182
 2913TIP3   OH230153   6.251   3.401   0.198 -0.0521 -0.2266 -0.6588
 2913TIP3    H130154   6.269   3.462   0.126 -0.5796  0.4766 -0.2042
 2913TIP3    H230155   6.312   3.328   0.184 -0.2416 -0.1527 -1.8880
 2914TIP3   OH230156   2.055   1.111   2.658 -0.2278  0.0596 -0.5231
 2914TIP3    H130157   2.099   1.117   2.574  1.8095 -0.0553  0.5026
 2914TIP3    H230158   2.088   1.186   2.708 -0.7029 -0.3936  0.4831
 2915TIP3   OH230159   4.910   4.318   5.585 -0.1372  0.4554 -0.8726
 2915TIP3    H130160   4.879   4.284   5.502 -2.1307 -0.1163  0.0813
 2915TIP3    H230161   4.867   4.403   5.594  1.1624  1.1488 -1.0558
 2916TIP3   OH230162   5.091   1.236  16.887  0.0553  0.0522  0.2129
 2916TIP3    H130163   5.132   1.258  16.803  0.3325  0.3759  0.4259
 2916TIP3    H230164   5.106   1.142  16.897  0.5396  0.1215  0.1710
 2917TIP3   OH230165   6.423   2.403   4.586  0.0707  0.0707 -0.0155
 2917TIP3    H130166   6.399   2.444   4.503  2.3303  5.0613  1.6522
 2917TIP3    H230167   6.368   2.445   4.651 -1.1545 -3.2876  1.2541
 2918TIP3   OH230168   0.543   3.407   0.492 -0.0429  0.6157  0.1891
 2918TIP3    H130169   0.510   3.339   0.433  2.5663  0.6671 -1.4078
 2918TIP3    H230170   0.484   3.482   0.478 -0.7670 -0.1032 -0.6891
 2919TIP3   OH230171   3.833   4.897   5.978 -0.1855 -0.0535 -0.1891
 2919TIP3    H130172   3.744   4.929   5.992  0.5221  1.5679  0.6585
 2919TIP3    H230173   3.851   4.842   6.054  0.0746  0.8161  0.3797
 2920TIP3   OH230174   0.091   4.740   5.193  0.5393 -0.4699 -0.6764
 2920TIP3    H130175   0.182   4.768   5.195  0.6686 -0.9325 -0.0016
 2920TIP3    H230176   0.095   4.645   5.191  0.0766 -0.4807 -1.2765
 2921TIP3   OH230177   3.394   1.298   3.470 -0.1382  0.5210 -0.1568
 2921TIP3    H130178   3.398   1.343   3.554 -2.7784 -0.5136  0.5552
 2921TIP3    H230179   3.373   1.368   3.407 -0.9711  0.8473  0.4699
 2922TIP3   OH230180   3.337   6.704  13.613 -0.1498  0.6495  0.2352
 2922TIP3    H130181   3.303   6.781  13.567 -0.7919 -0.0878 -0.5412
 2922TIP3    H230182   3.301   6.629  13.565 -0.6366 -0.1368  1.7942
 2923TIP3   OH230183   3.789   6.262  11.646  0.1307  0.3329 -0.3383
 2923TIP3    H130184   3.748   6.251  11.560 -0.4261  0.1304 -0.0533
 2923TIP3    H230185   3.723   6.231  11.708  0.6654  0.1324  0.1406
 2924TIP3   OH230186   1.969   2.318   4.985 -0.6151  0.0838  0.3895
 2924TIP3    H130187   2.048   2.326   4.933 -1.7355  1.4053 -1.1765
 2924TIP3    H230188   1.975   2.389   5.049 -0.6344  0.3034  0.1461
 2925TIP3   OH230189   6.732   6.786   2.421  0.3127 -0.0906 -0.3148
 2925TIP3    H130190   6.823   6.816   2.415  0.6220 -0.9783 -0.0704
 2925TIP3    H230191   6.680   6.867   2.424  1.1389  0.4237  0.2860
 2926TIP3   OH230192   3.151   0.923  11.570 -0.6499  0.4683  0.4342
 2926TIP3    H130193   3.165   0.857  11.502 -1.2732  0.8599 -0.0750
 2926TIP3    H230194   3.234   0.926  11.618  0.2574  1.1541 -1.1444
 2927TIP3   OH230195   1.782   4.149  16.399  0.1330  0.1451 -0.3310
 2927TIP3    H130196   1.765   4.238  16.370 -1.3661  0.0675  0.2573
 2927TIP3    H230197   1.697   4.117  16.430  0.9850 -0.9448  0.9314
 2928TIP3   OH230198   2.275   2.021  12.379  0.0494  0.4540  0.8420
 2928TIP3    H130199   2.227   1.939  12.383 -2.5970  1.8508 -0.7642
 2928TIP3    H230200   2.346   2.004  12.316 -2.6327  0.3770 -2.2768
 2929TIP3   OH230201   5.397   1.954  16.533 -0.5923 -0.0036  0.3229
 2929TIP3    H130202   5.452   1.876  16.542  0.6865  0.7870 -0.5770
 2929TIP3    H230203   5.411   2.001  16.615  0.3967  0.3895 -0.0622
 2930TIP3   OH230204   4.065   5.550  12.121  0.3316 -0.0934 -0.1905
 2930TIP3    H130205   4.123   5.596  12.061  0.8476 -0.4189  0.0562
 2930TIP3    H230206   3.977   5.583  12.101  0.8233  1.8255  0.7470
 2931TIP3   OH230207   5.942   1.317  15.555  0.3303 -0.2555 -0.0466
 2931TIP3    H130208   5.991   1.243  15.590  0.9348  0.2469  0.1807
 2931TIP3    H230209   5.878   1.277  15.496  0.2331 -0.9991  0.5521
 2932TIP3   OH230210   2.282   3.184   0.581  0.2369 -0.5883 -0.4138
 2932TIP3    H130211   2.294   3.237   0.659  2.4092 -0.5882 -0.7180
 2932TIP3    H230212   2.369   3.151   0.560 -0.9309 -3.7786 -0.6000
 2933TIP3   OH230213   2.585   0.431  15.703 -0.4200  0.4289  0.0972
 2933TIP3    H130214   2.543   0.352  15.736  1.1913 -0.8843 -0.9149
 2933TIP3    H230215   2.517   0.475  15.652 -1.4130 -0.1400  0.9190
 2934TIP3   OH230216   3.546   1.425   2.988  0.3151  0.1029  0.3162
 2934TIP3    H130217   3.522   1.474   2.910 -0.5507  0.6633  0.9257
 2934TIP3    H230218   3.602   1.354   2.956  0.0793  0.4126 -0.7873
 2935TIP3   OH230219   5.230   3.526   1.346 -0.6426 -0.3494 -0.3819
 2935TIP3    H130220   5.147   3.502   1.306 -1.0876  0.4966  0.0403
 2935TIP3    H230221   5.258   3.447   1.392 -1.0624 -0.7261 -0.7646
 2936TIP3   OH230222   3.031   5.633   2.975  0.6785  0.3022 -0.0671
 2936TIP3    H130223   2.982   5.601   2.900  1.0609 -1.8829  0.5559
 2936TIP3    H230224   3.039   5.556   3.032 -1.8856  2.5007  3.4530
 2937TIP3   OH230225   0.575   2.721   1.078  0.1376 -0.4283 -0.0855
 2937TIP3    H130226   0.610   2.692   0.994 -0.3984 -0.8141 -0.1716
 2937TIP3    H230227   0.649   2.711   1.139  0.6262  0.1716 -0.5687
 2938TIP3   OH230228   1.689   0.376   5.531  0.3122 -0.2247  0.2205
 2938TIP3    H130229   1.617   0.350   5.589  0.4230  0.1235  0.5149
 2938TIP3    H230230   1.759   0.314   5.550  0.1362 -0.4865  0.0229
 2939TIP3   OH230231   5.068   4.811   3.053 -0.4697  0.1659  0.1102
 2939TIP3    H130232   5.023   4.794   3.136 -0.0788  1.8735  0.6981
 2939TIP3    H230233   5.001   4.850   2.997 -0.4032  0.2496  0.0881
 2940TIP3   OH230234   2.181   0.810  15.759 -0.1326  0.3751  0.7289
 2940TIP3    H130235   2.191   0.770  15.846 -1.4702  0.9609  1.1645
 2940TIP3    H230236   2.211   0.901  15.772  1.5938 -0.0833  0.0779
 2941TIP3   OH230237   1.323   0.848  11.531 -0.6603  0.2670 -0.2807
 2941TIP3    H130238   1.260   0.914  11.501 -0.9877 -0.4233 -1.1617
 2941TIP3    H230239   1.373   0.826  11.453 -0.0144  0.0643  0.1917
 2942TIP3   OH230240   3.862   3.135  11.140 -0.2785  0.0183 -0.2086
 2942TIP3    H130241   3.774   3.138  11.178 -0.5702 -0.3328 -0.8391
 2942TIP3    H230242   3.882   3.226  11.118 -1.5599 -0.2009 -2.4570
 2943TIP3   OH230243   5.494   3.282   4.405 -0.3097 -0.5240  0.2141
 2943TIP3    H130244   5.491   3.368   4.363  1.0987  0.5930  2.3341
 2943TIP3    H230245   5.420   3.234   4.367  0.4371  0.7121 -2.8834
 2944TIP3   OH230246   4.790   6.077  16.789  0.3105  0.2162 -0.3712
 2944TIP3    H130247   4.866   6.122  16.753 -0.4095  0.6149 -1.4147
 2944TIP3    H230248   4.753   6.138  16.851 -0.9857  1.3245 -2.1850
 2945TIP3   OH230249   1.460   4.693   2.663 -0.3677  0.5461 -0.0496
 2945TIP3    H130250   1.394   4.758   2.636 -0.5426  1.0504  1.5194
 2945TIP3    H230251   1.417   4.643   2.732  0.5439  0.2182  0.2861
 2946TIP3   OH230252   5.363   5.196  16.163 -0.5507 -0.2197 -0.2579
 2946TIP3    H130253   5.438   5.142  16.141 -1.0293 -1.1794  0.4245
 2946TIP3    H230254   5.391   5.285  16.144  0.4189 -0.6583 -0.9252
 2947TIP3   OH230255   4.471   4.631  16.954 -0.1236 -0.3957 -0.0201
 2947TIP3    H130256   4.401   4.605  16.894 -0.2642 -0.4174  0.1558
 2947TIP3    H230257   4.481   4.725  16.939 -1.6342  0.0231  1.4639
 2948TIP3   OH230258   0.134   6.026   4.236 -0.2339  0.3828  0.2774
 2948TIP3    H130259   0.078   6.073   4.297 -1.2553 -1.0159  0.4566
 2948TIP3    H230260   0.154   6.090   4.168 -1.4119  1.1378  0.6168
 2949TIP3   OH230261   1.566   3.732   3.866  0.3185  0.4264 -0.1479
 2949TIP3    H130262   1.522   3.700   3.945 -0.2175 -0.2955 -0.7420
 2949TIP3    H230263   1.582   3.654   3.814  0.2867  0.9574 -0.9585
 2950TIP3   OH230264   2.647   0.737   0.532 -0.6095 -0.2105  0.2403
 2950TIP3    H130265   2.601   0.663   0.571 -0.7737 -0.1450  0.1718
 2950TIP3    H230266   2.733   0.737   0.574 -0.4765 -0.6673 -0.0343
 2951TIP3   OH230267   4.239   1.851  10.587  0.4477  0.1484  0.4308
 2951TIP3    H130268   4.163   1.828  10.640  1.1953  0.3958  1.6178
 2951TIP3    H230269   4.273   1.766  10.556  2.3137 -0.3383  3.5762
 2952TIP3   OH230270   5.761   3.965  10.949  0.3689  0.3897  0.5889
 2952TIP3    H130271   5.677   3.919  10.957  0.0333  0.7694 -0.6254
 2952TIP3    H230272   5.738   4.050  10.912  1.2102  0.7842  0.9794
 2953TIP3   OH230273   0.719   6.589  16.121 -0.0877 -0.5427 -0.4807
 2953TIP3    H130274   0.713   6.667  16.066  0.7655  0.8609  1.3418
 2953TIP3    H230275   0.813   6.579  16.137 -0.3715 -0.5496  1.2229
 2954TIP3   OH230276   0.127   5.713  11.486  0.0334 -0.7067  0.3007
 2954TIP3    H130277   0.192   5.766  11.531 -0.0292  0.6339 -1.1605
 2954TIP3    H230278   0.173   5.633  11.462  1.3164  0.4918 -1.2669
 2955TIP3   OH230279   3.617   1.199   2.633 -0.0586 -0.7397  0.4855
 2955TIP3    H130280   3.656   1.263   2.573  0.5642 -0.9489  0.6567
 2955TIP3    H230281   3.615   1.117   2.584  0.9681 -1.0407  0.9326
 2956TIP3   OH230282   6.022   3.592  12.073  0.5942 -0.1853  0.5695
 2956TIP3    H130283   6.002   3.600  11.980  0.3553  0.2224  0.6520
 2956TIP3    H230284   6.078   3.667  12.092 -1.2971  1.1162  1.2647
 2957TIP3   OH230285   4.346   1.681   6.491  0.0680  0.6295 -0.2627
 2957TIP3    H130286   4.330   1.737   6.415 -1.3981  0.8340  0.1847
 2957TIP3    H230287   4.261   1.677   6.536  0.8254  0.2067  1.1511
 2958TIP3   OH230288   6.079   3.995   5.612  0.0457 -0.0518 -0.4203
 2958TIP3    H130289   6.099   3.916   5.561 -0.4381 -0.1689 -0.4405
 2958TIP3    H230290   5.985   4.009   5.597  0.1313  0.5285 -0.4138
 2959TIP3   OH230291   2.071   4.735   1.279  0.4177 -0.0394  0.0782
 2959TIP3    H130292   2.144   4.675   1.290 -0.2564 -1.1016 -1.0061
 2959TIP3    H230293   2.072   4.791   1.357  2.9488  0.6056 -0.3883
 2960TIP3   OH230294   2.794   3.226   5.741  0.1227  0.6096  0.0688
 2960TIP3    H130295   2.790   3.297   5.805  1.2825  0.0883  0.7254
 2960TIP3    H230296   2.702   3.208   5.721 -0.2108  1.6872  0.5687
 2961TIP3   OH230297   1.239   5.145   2.045  0.0065  0.0194 -0.1858
 2961TIP3    H130298   1.228   5.051   2.064 -0.3708 -0.3760 -2.2379
 2961TIP3    H230299   1.149   5.178   2.036  0.1540 -0.1031 -2.4943
 2962TIP3   OH230300   3.714   1.479   5.104 -0.2034  0.5914 -0.0523
 2962TIP3    H130301   3.622   1.503   5.092 -0.9846  0.1570  4.2149
 2962TIP3    H230302   3.756   1.559   5.137  0.2571 -0.0647  0.9653
 2963TIP3   OH230303   5.934   1.304   2.263 -0.5575 -0.1817  0.1845
 2963TIP3    H130304   5.910   1.396   2.273 -1.1095 -0.2566 -0.4062
 2963TIP3    H230305   6.001   1.303   2.195 -0.2266 -0.1687  0.5106
 2964TIP3   OH230306   0.729   2.305  11.418  0.0963  0.6695 -0.6106
 2964TIP3    H130307   0.752   2.377  11.359 -3.2738  2.5456  0.2174
 2964TIP3    H230308   0.694   2.237  11.361 -0.3346  1.2728 -1.0777
 2965TIP3   OH230309   1.849   4.661   3.914  0.0950 -0.2937 -0.8403
 2965TIP3    H130310   1.891   4.609   3.846  0.8248  0.9414 -1.3543
 2965TIP3    H230311   1.758   4.670   3.886 -0.3165 -2.1866 -0.1973
 2966TIP3   OH230312   5.125   3.947   5.331  0.3379  0.6385  0.3131
 2966TIP3    H130313   5.175   3.999   5.269 -0.1918  1.3096  0.4413
 2966TIP3    H230314   5.154   3.857   5.316 -0.9393  0.5783 -2.0365
 2967TIP3   OH230315   5.562   5.921  11.643 -0.7061 -0.3267  0.1361
 2967TIP3    H130316   5.490   5.857  11.644 -1.3274  0.3689  1.4257
 2967TIP3    H230317   5.537   5.983  11.575 -0.7649 -0.7276 -0.2083
 2968TIP3   OH230318   0.781   5.691   5.589 -0.0156  0.2502  0.5079
 2968TIP3    H130319   0.743   5.756   5.530  0.1582  0.5657  0.7400
 2968TIP3    H230320   0.766   5.607   5.546  0.1849  0.4874 -0.0298
 2969TIP3   OH230321   6.771   0.804  11.662 -1.0031  0.0667 -0.6088
 2969TIP3    H130322   6.856   0.767  11.637 -0.8140  0.7422 -0.9928
 2969TIP3    H230323   6.757   0.772  11.751  1.8502  3.5850  1.2574
 2970TIP3   OH230324   0.170   6.370   0.088  0.4461  0.2001 -0.1039
 2970TIP3    H130325   0.139   6.378  -0.002  0.0101  0.3484  0.0632
 2970TIP3    H230326   0.117   6.300   0.126  2.7030 -2.0106 -0.8742
 2971TIP3   OH230327   4.274   4.441  11.264  0.2203  0.6330 -0.2087
 2971TIP3    H130328   4.228   4.525  11.257  2.1548  1.6335 -1.2484
 2971TIP3    H230329   4.227   4.383  11.204 -0.9652  1.0321  0.3173
 2972TIP3   OH230330   1.914   1.811  16.152  0.1999 -0.1269 -0.0319
 2972TIP3    H130331   1.884   1.902  16.153 -1.0573 -0.4945 -1.7790
 2972TIP3    H230332   1.969   1.804  16.075  0.3179 -0.8426  0.1105
 2973TIP3   OH230333   3.148   0.751   3.465  0.4557  0.1161  0.0673
 2973TIP3    H130334   3.230   0.762   3.513  0.1066  1.2216  0.4395
 2973TIP3    H230335   3.153   0.815   3.393 -0.3906  0.7467  0.5519
 2974TIP3   OH230336   6.403   0.751  15.987  0.4050 -0.3212  0.3900
 2974TIP3    H130337   6.309   0.735  15.993  0.2096 -0.0595 -1.6779
 2974TIP3    H230338   6.435   0.737  16.076 -1.6401 -0.0345  1.2025
 2975TIP3   OH230339   5.739   4.447   6.086  0.0902  0.6569  0.2898
 2975TIP3    H130340   5.760   4.442   6.179  1.3668 -1.8219 -0.1003
 2975TIP3    H230341   5.815   4.492   6.047  1.4220 -1.8595 -0.0915
 2976TIP3   OH230342   5.769   5.721  14.824 -0.2794 -0.0382  0.0975
 2976TIP3    H130343   5.825   5.798  14.830 -0.8910  0.2499  3.0497
 2976TIP3    H230344   5.720   5.734  14.743  1.2698  1.5190 -0.6332
 2977TIP3   OH230345   4.371   0.389  11.123 -0.2828 -0.0048 -0.2559
 2977TIP3    H130346   4.431   0.394  11.049 -1.1426  0.7839 -0.9233
 2977TIP3    H230347   4.284   0.382  11.083 -0.5839 -2.0597  0.6856
 2978TIP3   OH230348   2.368   5.184   3.364  0.2949 -0.2291 -0.3101
 2978TIP3    H130349   2.297   5.180   3.300 -0.2447  1.9230  0.1390
 2978TIP3    H230350   2.444   5.148   3.317 -0.6696 -0.9692 -1.3372
 2979TIP3   OH230351   1.358   6.481   3.319  0.0393  0.1170 -0.4864
 2979TIP3    H130352   1.386   6.449   3.233  0.9791 -2.8483  0.8572
 2979TIP3    H230353   1.437   6.478   3.372 -0.3033  2.9286  0.2530
 2980TIP3   OH230354   0.397   3.764   1.882 -0.1673 -0.8438  0.0719
 2980TIP3    H130355   0.303   3.746   1.885 -0.2698 -0.1406  1.5604
 2980TIP3    H230356   0.428   3.719   1.803 -1.9739  0.0342 -1.1494
 2981TIP3   OH230357   5.881   5.307   3.543  0.2702 -0.2691 -0.6564
 2981TIP3    H130358   5.973   5.311   3.568  0.2031 -0.7047 -0.3319
 2981TIP3    H230359   5.858   5.397   3.519  0.7146 -0.1174 -0.5010
 2982TIP3   OH230360   3.791   6.557   2.394  0.6612 -0.1178 -0.4193
 2982TIP3    H130361   3.850   6.564   2.319  1.2515  1.4693  0.1830
 2982TIP3    H230362   3.774   6.647   2.420  0.1453 -0.6454  1.1146
 2983TIP3   OH230363   2.967   5.186  14.639 -0.2195 -0.8701  0.1552
 2983TIP3    H130364   2.907   5.114  14.656  2.4281 -3.4519 -0.9056
 2983TIP3    H230365   3.043   5.167  14.694  0.9407  0.5200 -0.9241
 2984TIP3   OH230366   3.402   3.072  15.446 -0.2273 -0.2825  0.4035
 2984TIP3    H130367   3.388   3.162  15.416  0.5587 -0.2593  0.1067
 2984TIP3    H230368   3.318   3.028  15.430  0.0749 -0.1974 -1.5770
 2985TIP3   OH230369   4.323   3.531   2.191  0.0674 -0.3740  0.1516
 2985TIP3    H130370   4.290   3.539   2.101 -0.3895 -3.1552  0.0262
 2985TIP3    H230371   4.408   3.488   2.182 -0.0702 -0.8565  1.0546
 2986TIP3   OH230372   1.871   2.197  12.987  0.5680 -0.3343 -1.2052
 2986TIP3    H130373   1.825   2.131  12.935 -0.6773 -1.3193  1.0727
 2986TIP3    H230374   1.809   2.270  12.993  0.8578 -0.0696 -1.4081
 2987TIP3   OH230375   3.100   0.972  13.874 -0.5327  0.5486  0.1808
 2987TIP3    H130376   3.175   0.999  13.822 -0.4763 -0.9828 -0.5535
 2987TIP3    H230377   3.037   1.044  13.865  0.5141  1.4593  0.1250
 2988TIP3   OH230378   5.812   3.229   5.679 -0.5130 -0.4091  0.4916
 2988TIP3    H130379   5.840   3.222   5.770  0.7059 -0.9431  0.0823
 2988TIP3    H230380   5.812   3.139   5.647 -1.7273 -0.3105  0.1837
 2989TIP3   OH230381   6.156   5.370  16.488  0.2230  0.0717  0.5653
 2989TIP3    H130382   6.082   5.314  16.511  0.5781 -0.6899 -0.1199
 2989TIP3    H230383   6.120   5.433  16.426  0.2274 -0.5718 -0.1128
 2990TIP3   OH230384   0.944   0.944   0.505 -0.1544  0.1447 -0.2325
 2990TIP3    H130385   0.949   0.851   0.485 -0.6911  0.0945 -0.1206
 2990TIP3    H230386   0.862   0.974   0.465 -0.2854  0.4424  0.2485
 2991TIP3   OH230387   3.678   4.117   3.471 -0.2343 -0.1093 -0.1945
 2991TIP3    H130388   3.724   4.192   3.433  0.2619  0.1948  0.9813
 2991TIP3    H230389   3.732   4.090   3.545 -1.9143  0.2508  1.2159
 2992TIP3   OH230390   1.641   5.820  11.260  0.0710 -0.2129  0.3870
 2992TIP3    H130391   1.586   5.828  11.182 -0.0261 -2.6966  0.1504
 2992TIP3    H230392   1.683   5.905  11.269 -0.7652  0.4529 -1.7412
 2993TIP3   OH230393   4.069   3.205  13.043  0.0397 -0.1944  0.3647
 2993TIP3    H130394   4.065   3.144  12.970 -0.9691  0.6042 -0.2605
 2993TIP3    H230395   3.981   3.205  13.080  0.2463  0.2641  0.8729
 2994TIP3   OH230396   6.231   0.413   4.725  0.4381  0.0075 -0.3710
 2994TIP3    H130397   6.309   0.437   4.775  0.8274  0.5346 -1.2165
 2994TIP3    H230398   6.240   0.319   4.710  0.5075 -0.0812  0.2238
 2995TIP3   OH230399   1.560   3.143  12.718  0.0043 -0.0986  0.3633
 2995TIP3    H130400   1.562   3.054  12.754  0.9519 -0.5458 -0.7811
 2995TIP3    H230401   1.650   3.174  12.727  0.5920 -0.7138 -2.8049
 2996TIP3   OH230402   4.750   6.509   4.491  0.5319  0.1238  0.0332
 2996TIP3    H130403   4.729   6.581   4.550  1.4229 -0.2879  0.8609
 2996TIP3    H230404   4.841   6.523   4.465  0.4806 -0.2907 -0.3939
 2997TIP3   OH230405   5.006   4.868   0.286  0.0079 -0.4409  0.3432
 2997TIP3    H130406   4.994   4.808   0.360 -1.8320 -1.4402 -0.7457
 2997TIP3    H230407   5.016   4.954   0.327  1.9742 -1.3710  1.8893
 2998TIP3   OH230408   4.782   0.592  12.162  0.1598  0.7739  0.4478
 2998TIP3    H130409   4.694   0.620  12.135  0.1688  0.1965 -0.1801
 2998TIP3    H230410   4.828   0.674  12.181 -0.0019  1.1682 -0.7958
 2999TIP3   OH230411   1.981   4.289   5.083  0.7215  0.0237  0.0464
 2999TIP3    H130412   1.944   4.375   5.101  2.7413  0.8065  0.5866
 2999TIP3    H230413   1.917   4.227   5.120 -0.0467  1.3172  0.9234
 3000TIP3   OH230414   5.545   4.606   1.022  0.1075 -0.0645 -0.5277
 3000TIP3    H130415   5.509   4.679   0.972 -0.8461 -0.8350 -0.9762
 3000TIP3    H230416   5.636   4.631   1.039 -0.2349  1.2553 -0.6109
 3001TIP3   OH230417   6.136   4.729  11.965  0.2575  0.2336 -0.1459
 3001TIP3    H130418   6.131   4.645  11.920  0.8263  0.5455 -0.7950
 3001TIP3    H230419   6.150   4.793  11.896 -1.3945  1.0228  0.2210
 3002TIP3   OH230420   3.307   2.546  11.993  0.0639 -0.0812 -0.6257
 3002TIP3    H130421   3.263   2.471  11.953  0.4512  0.0157 -1.2390
 3002TIP3    H230422   3.401   2.527  11.985  0.1595  0.3003 -0.4666
 3003TIP3   OH230423   1.358   0.070   2.247 -0.7691  0.0546 -0.1527
 3003TIP3    H130424   1.293   0.058   2.177 -0.5236  0.4887 -0.4620
 3003TIP3    H230425   1.322   0.140   2.301  1.4989  3.4974 -2.8610
 3004TIP3   OH230426   2.441   5.780  11.133  0.8203 -0.4098  0.0720
 3004TIP3    H130427   2.435   5.875  11.143  2.7703 -0.2426 -0.1164
 3004TIP3    H230428   2.404   5.745  11.214  0.3443  0.5195  0.2633
 3005TIP3   OH230429   4.370   3.547  11.064  0.8200  0.2230 -0.2283
 3005TIP3    H130430   4.418   3.494  11.000 -1.1405  0.0694 -1.6102
 3005TIP3    H230431   4.438   3.587  11.117  2.6213  1.5898 -3.4116
 3006TIP3   OH230432   5.076   5.920  11.211  0.0413 -0.1433  0.3942
 3006TIP3    H130433   5.121   5.838  11.193 -0.6627 -0.4442  0.0047
 3006TIP3    H230434   5.081   5.968  11.128  0.5219  0.2510  0.6431
 3007TIP3   OH230435   0.689   2.527  14.050 -0.2243 -0.3855  0.4263
 3007TIP3    H130436   0.662   2.610  14.009  0.6782  0.1534  0.8897
 3007TIP3    H230437   0.785   2.529  14.044 -0.1727 -1.0912  1.0497
 3008TIP3   OH230438   5.132   4.246  15.291 -0.3725 -0.1976  0.0963
 3008TIP3    H130439   5.174   4.304  15.227 -0.2810 -0.1502  0.2002
 3008TIP3    H230440   5.127   4.297  15.371 -2.2701  0.4598 -0.3965
 3009TIP3   OH230441   0.300   1.535   3.041  0.6736  0.1164 -0.3644
 3009TIP3    H130442   0.210   1.510   3.062  0.4150  0.4916 -1.0317
 3009TIP3    H230443   0.354   1.479   3.097  0.0235 -0.0363  0.1081
 3010TIP3   OH230444   3.631   2.158  10.754  0.2884 -0.2747 -0.0692
 3010TIP3    H130445   3.639   2.102  10.678  0.9075 -0.9584  0.4974
 3010TIP3    H230446   3.550   2.129  10.797  1.1434 -1.4295  0.7832
 3011TIP3   OH230447   4.482   2.358  17.191  0.1535 -0.1529  0.2374
 3011TIP3    H130448   4.456   2.295  17.259 -1.0769  1.8666  1.7036
 3011TIP3    H230449   4.416   2.348  17.122  0.2984 -0.8677  0.1989
 3012TIP3   OH230450   2.331   4.238  16.010  0.0150  0.2964 -0.2536
 3012TIP3    H130451   2.373   4.152  16.009  0.5595  0.5313  0.6960
 3012TIP3    H230452   2.387   4.292  15.954 -0.4652 -0.0212 -1.0511
 3013TIP3   OH230453   1.678   1.894  11.561 -0.3692 -0.1400  0.2295
 3013TIP3    H130454   1.737   1.847  11.501 -0.7199 -0.1529 -0.1043
 3013TIP3    H230455   1.732   1.912  11.638 -0.1615 -0.8758  0.2582
 3014TIP3   OH230456   1.829   2.068   0.987 -0.5390 -0.1629 -0.1018
 3014TIP3    H130457   1.846   1.974   0.989  0.2407 -0.0638 -1.4612
 3014TIP3    H230458   1.750   2.079   1.040  0.0088 -1.4339  1.0257
 3015TIP3   OH230459   6.702   1.050   2.343 -0.2087  0.0192 -0.2095
 3015TIP3    H130460   6.626   1.009   2.383  0.3085 -0.7492 -0.0013
 3015TIP3    H230461   6.764   0.979   2.330  0.7626  0.7635  0.2844
 3016TIP3   OH230462   6.531   3.456  15.523  0.0459 -0.1799  0.0884
 3016TIP3    H130463   6.574   3.387  15.474  0.3968 -0.4721  0.7927
 3016TIP3    H230464   6.523   3.529  15.462  1.0281 -0.3223 -0.2142
 3017TIP3   OH230465   3.392   2.268   1.472  0.2555 -0.0585 -0.2051
 3017TIP3    H130466   3.345   2.186   1.459 -0.6020  0.5504 -1.0145
 3017TIP3    H230467   3.445   2.253   1.550  0.6358 -1.6145 -0.7447
 3018TIP3   OH230468   4.964   4.481  16.599 -0.6537  0.0091 -0.0653
 3018TIP3    H130469   4.879   4.524  16.598 -0.3986  0.5150 -0.5407
 3018TIP3    H230470   4.984   4.468  16.692 -0.7579  0.8661  0.0791
 3019TIP3   OH230471   4.191   0.649   5.709  0.4154  0.3963 -0.0413
 3019TIP3    H130472   4.196   0.563   5.749 -0.7353  1.0197  1.4827
 3019TIP3    H230473   4.277   0.688   5.725  1.0536 -0.5684 -1.0241
 3020TIP3   OH230474   6.671   4.682  16.587  0.1572 -0.5343 -1.0127
 3020TIP3    H130475   6.644   4.769  16.559  1.1137 -0.4926 -1.8512
 3020TIP3    H230476   6.701   4.640  16.506  3.1273 -0.3668 -0.0398
 3021TIP3   OH230477   2.200   2.202  12.583 -0.0215 -0.1819 -0.4944
 3021TIP3    H130478   2.284   2.247  12.591 -0.3593  0.1808  1.3541
 3021TIP3    H230479   2.213   2.138  12.514  1.5674  0.3387 -0.6904
 3022TIP3   OH230480   1.040   0.675  12.118  0.8423  0.0833 -0.4447
 3022TIP3    H130481   0.980   0.642  12.051  0.3369 -0.8480  0.4517
 3022TIP3    H230482   1.025   0.618  12.193  2.1150  0.5031  0.1314
 3023TIP3   OH230483   2.404   5.617  15.898 -0.0931 -0.6789  0.0997
 3023TIP3    H130484   2.352   5.671  15.839 -0.3799  0.3383  1.2653
 3023TIP3    H230485   2.460   5.679  15.944  2.2188 -1.7582 -1.1652
 3024TIP3   OH230486   5.567   3.656  11.634 -0.4598 -0.6013 -0.0539
 3024TIP3    H130487   5.543   3.597  11.705 -0.1783  0.0155  0.5589
 3024TIP3    H230488   5.626   3.720  11.674 -0.4919 -0.1028 -0.7843
 3025TIP3   OH230489   6.670   2.128   2.869  0.2993  0.2254 -0.2093
 3025TIP3    H130490   6.582   2.157   2.842  0.2764  1.2681  0.9739
 3025TIP3    H230491   6.720   2.209   2.880  0.7332 -0.2559  1.4293
 3026TIP3   OH230492   3.160   1.119  17.029  0.2674  0.7861 -0.0516
 3026TIP3    H130493   3.124   1.034  17.054 -0.4082  0.7459 -1.0966
 3026TIP3    H230494   3.102   1.149  16.959  1.2967  1.5009 -0.6065
 3027TIP3   OH230495   5.875   6.324  11.228  0.1201 -0.3402 -0.1357
 3027TIP3    H130496   5.850   6.307  11.137  0.4094  1.7869 -0.6356
 3027TIP3    H230497   5.796   6.360  11.269  0.4315  0.1382  0.0467
 3028TIP3   OH230498   4.943   2.299  15.951 -0.3901 -0.1671 -0.3056
 3028TIP3    H130499   5.014   2.268  16.007 -0.3853 -0.0523 -0.2475
 3028TIP3    H230500   4.864   2.280  16.000 -0.4313 -0.8443 -0.6410
 3029TIP3   OH230501   6.178   6.047   4.704  0.5240  0.3149 -0.3189
 3029TIP3    H130502   6.234   6.090   4.640  1.1412 -1.5937 -1.0918
 3029TIP3    H230503   6.235   6.030   4.779  0.4207  0.3914 -0.2235
 3030TIP3   OH230504   5.257   0.866  14.206  0.1102 -0.1339 -0.4808
 3030TIP3    H130505   5.251   0.813  14.285  0.0923  2.3373  1.2141
 3030TIP3    H230506   5.210   0.815  14.139  0.1162 -2.2308  1.0901
 3031TIP3   OH230507   1.111   3.814  11.407  0.1935 -0.1120  0.2127
 3031TIP3    H130508   1.201   3.784  11.392  0.3624 -1.5546  3.4651
 3031TIP3    H230509   1.120   3.906  11.432  0.4570  0.5527 -2.2466
 3032TIP3   OH230510   4.544   1.873   5.940  0.2148  0.0788 -0.7515
 3032TIP3    H130511   4.527   1.845   6.031  1.1620  1.6495 -0.0796
 3032TIP3    H230512   4.493   1.811   5.887  1.7657 -2.5548  0.7051
 3033TIP3   OH230513   4.314   0.871   4.473 -0.2869  0.4300 -0.7869
 3033TIP3    H130514   4.228   0.914   4.482  0.5205  1.6426  1.6502
 3033TIP3    H230515   4.301   0.785   4.514  0.1857  1.4057  1.4657
 3034TIP3   OH230516   3.350   3.381  16.039  0.0388  0.0455  0.0861
 3034TIP3    H130517   3.423   3.441  16.024 -1.4560  1.1101 -3.4099
 3034TIP3    H230518   3.390   3.294  16.038  1.4656  0.6939 -0.1589
 3035TIP3   OH230519   1.378   2.263   2.328 -0.3664 -0.4245 -0.3233
 3035TIP3    H130520   1.303   2.281   2.384 -1.6563 -3.9605 -0.8114
 3035TIP3    H230521   1.434   2.204   2.380  1.4121  1.0723 -0.4830
 3036TIP3   OH230522   3.012   0.455  14.637  0.2347 -0.3648 -0.2389
 3036TIP3    H130523   3.041   0.365  14.646  0.5540 -0.1294  1.0608
 3036TIP3    H230524   3.086   0.508  14.665 -0.4572  0.2844  0.3880
 3037TIP3   OH230525   3.743   4.101   1.775  0.0906 -0.3575 -0.1477
 3037TIP3    H130526   3.761   4.082   1.867  1.1721  1.6736  0.0812
 3037TIP3    H230527   3.670   4.162   1.777  0.4480  0.0871 -0.6235
 3038TIP3   OH230528   0.432   0.163   2.536  0.8055 -0.1925  0.7542
 3038TIP3    H130529   0.406   0.112   2.459 -0.5700 -0.5748  1.4625
 3038TIP3    H230530   0.366   0.143   2.602  0.7875  1.7631  1.3629
 3039TIP3   OH230531   5.406   6.164  15.530 -0.4885  0.5210 -0.0535
 3039TIP3    H130532   5.479   6.184  15.588 -1.5888  1.6360  0.9679
 3039TIP3    H230533   5.447   6.148  15.445  1.0242  0.0882  0.7305
 3040TIP3   OH230534   2.866   3.711  16.459  0.0734 -0.4637  0.1049
 3040TIP3    H130535   2.934   3.663  16.411 -1.4664 -1.9319 -0.6778
 3040TIP3    H230536   2.784   3.684  16.417 -1.0332  0.9604  1.2943
 3041TIP3   OH230537   4.054   3.387  13.531  0.2493 -0.4007  0.6689
 3041TIP3    H130538   3.975   3.342  13.501 -0.9800  1.8248  0.4028
 3041TIP3    H230539   4.044   3.393  13.626  0.1088 -0.1850  0.6421
 3042TIP3   OH230540   5.108   0.979  13.860  0.3639 -0.5274  0.3630
 3042TIP3    H130541   5.202   0.986  13.871  0.4151 -1.0903  0.2977
 3042TIP3    H230542   5.097   0.910  13.795 -0.0537  0.2496 -0.3989
 3043TIP3   OH230543   4.101   0.136   4.386 -0.4307  0.0875  0.1042
 3043TIP3    H130544   4.075   0.215   4.339 -3.1328  0.9999  2.9916
 3043TIP3    H230545   4.132   0.167   4.471  0.2336 -1.8451  0.6010
 3044TIP3   OH230546   6.260   3.851   0.561  0.7049  0.2478 -0.8141
 3044TIP3    H130547   6.180   3.899   0.542  0.7186 -0.0277 -1.5802
 3044TIP3    H230548   6.230   3.767   0.597  0.6446  0.1463 -1.0970
 3045TIP3   OH230549   1.061   5.271  14.017 -0.1977 -0.5966 -0.0979
 3045TIP3    H130550   1.017   5.218  13.951  0.2153 -0.2410 -0.6719
 3045TIP3    H230551   1.145   5.293  13.976 -0.0059 -0.2464  0.4898
 3046TIP3   OH230552   5.993   1.041   5.224 -0.6424  0.2710 -0.2646
 3046TIP3    H130553   5.965   0.987   5.150  0.9452 -0.6973 -0.1909
 3046TIP3    H230554   5.956   0.997   5.301  0.2615 -0.4618 -0.2428
 3047TIP3   OH230555   6.350   0.273  14.196 -0.6616 -0.0860  0.0525
 3047TIP3    H130556   6.310   0.224  14.125 -0.9640 -0.5407  0.5363
 3047TIP3    H230557   6.412   0.212  14.236  1.8605  1.1734 -1.8150
 3048TIP3   OH230558   4.007   5.767  14.371  0.0507  0.1364  0.0151
 3048TIP3    H130559   3.967   5.761  14.284 -2.1308 -3.4801  1.1753
 3048TIP3    H230560   3.942   5.814  14.424  0.2596  0.1253  0.2821
 3049TIP3   OH230561   6.206   5.000  10.690  0.1484  0.3967  0.2052
 3049TIP3    H130562   6.172   4.913  10.669  0.1518 -0.0257  1.9017
 3049TIP3    H230563   6.275   4.984  10.754  0.7959  1.5843 -0.1885
 3050TIP3   OH230564   6.270   0.970   5.294  0.1149 -0.4436  0.2923
 3050TIP3    H130565   6.331   1.034   5.257 -0.0217 -1.4358 -1.7013
 3050TIP3    H230566   6.183   1.009   5.280  0.1837  0.5169  2.2571
 3051TIP3   OH230567   5.915   3.044  13.803  0.0853 -0.1177  0.1996
 3051TIP3    H130568   5.896   3.135  13.781  1.3108  0.3079  0.8538
 3051TIP3    H230569   5.843   3.017  13.860  0.1974  0.7257  0.7448
 3052TIP3   OH230570   0.256   2.632  15.144 -0.2050 -0.2042  0.4489
 3052TIP3    H130571   0.264   2.558  15.205 -1.6386 -1.1893 -0.5313
 3052TIP3    H230572   0.170   2.669  15.164  0.2345  0.8070  0.4816
 3053TIP3   OH230573   2.956   5.439  11.653 -0.2345 -0.1057 -0.1363
 3053TIP3    H130574   3.040   5.424  11.696 -0.5091 -0.1374  0.3955
 3053TIP3    H230575   2.892   5.398  11.711 -0.4985 -1.1315 -1.1402
 3054TIP3   OH230576   6.058   6.161   6.256 -0.4315 -0.3698 -0.1916
 3054TIP3    H130577   6.009   6.221   6.199 -1.2332  0.2592  1.1548
 3054TIP3    H230578   6.000   6.145   6.330  0.7723 -0.8751  0.6560
 3055TIP3   OH230579   3.623   4.078   5.968 -0.2110  0.2804 -0.2785
 3055TIP3    H130580   3.672   4.005   6.004 -0.2165  0.5804  0.3444
 3055TIP3    H230581   3.678   4.113   5.898  0.1671  0.2075 -0.0153
 3056TIP3   OH230582   2.251   6.257   6.040 -0.8396 -0.4475 -0.3142
 3056TIP3    H130583   2.296   6.310   6.105 -0.7311 -0.9922  0.0581
 3056TIP3    H230584   2.294   6.172   6.044  0.1365 -0.0748 -2.1054
 3057TIP3   OH230585   6.556   1.205  14.016 -0.2197  0.5859 -0.2198
 3057TIP3    H130586   6.586   1.290  14.047  1.4608  0.1799 -0.7157
 3057TIP3    H230587   6.546   1.152  14.095 -1.6235  1.3325  0.1245
 3058TIP3   OH230588   5.534   3.801   4.429 -0.5689 -0.3997 -0.1152
 3058TIP3    H130589   5.532   3.896   4.421 -0.6625 -0.3528  0.4154
 3058TIP3    H230590   5.443   3.778   4.452  0.1192 -0.3139  2.9029
 3059TIP3   OH230591   1.864   2.551  16.829 -0.7057 -0.3119  0.6059
 3059TIP3    H130592   1.822   2.595  16.755  0.4597  0.9288  0.6766
 3059TIP3    H230593   1.950   2.592  16.837  0.0117 -1.8913  1.3270
 3060TIP3   OH230594   4.913   6.548   4.991  0.1072 -0.3192  0.1511
 3060TIP3    H130595   4.981   6.549   5.059 -0.3808  0.5397  0.6305
 3060TIP3    H230596   4.870   6.463   5.001  0.4513 -0.4553  0.4916
 3061TIP3   OH230597   1.482   5.892   1.455 -0.0523 -0.0736 -0.0531
 3061TIP3    H130598   1.496   5.798   1.455  1.3687  0.1073  2.1405
 3061TIP3    H230599   1.517   5.922   1.539 -0.8133  2.3598 -0.5551
 3062TIP3   OH230600   6.178   3.162   1.401  0.8795 -0.2638  0.4486
 3062TIP3    H130601   6.113   3.138   1.334  1.3171 -0.4939  0.1048
 3062TIP3    H230602   6.183   3.257   1.397  0.6997 -0.2573  0.3489
 3063TIP3   OH230603   1.476   3.085  14.129  0.4340  0.4743  0.1674
 3063TIP3    H130604   1.489   3.171  14.169 -1.2599  0.5540  0.6097
 3063TIP3    H230605   1.444   3.104  14.041 -0.0434  0.3078  0.3023
 3064TIP3   OH230606   2.752   1.985   4.188  0.3657 -0.4172  0.1693
 3064TIP3    H130607   2.719   2.074   4.199  1.1178 -0.2000  0.7200
 3064TIP3    H230608   2.705   1.934   4.255  0.1249 -0.3826  0.0264
 3065TIP3   OH230609   4.458   5.830   4.049  0.5338 -0.0424 -0.8684
 3065TIP3    H130610   4.507   5.770   3.993 -0.1712 -0.0459 -1.5060
 3065TIP3    H230611   4.432   5.901   3.990 -0.8259 -0.3995 -0.7173
 3066TIP3   OH230612   5.994   4.382   4.657 -0.0746 -0.2689  0.1947
 3066TIP3    H130613   5.914   4.434   4.652  0.0952 -0.0044  0.1964
 3066TIP3    H230614   5.986   4.333   4.738 -0.2953 -0.3419  0.1290
 3067TIP3   OH230615   0.517   0.928  16.372 -0.5675 -0.2905 -0.3983
 3067TIP3    H130616   0.572   0.853  16.394 -0.8838 -0.2616  0.5218
 3067TIP3    H230617   0.433   0.909  16.414 -0.8252  0.3139 -0.6361
 3068TIP3   OH230618   5.321   4.075   3.665 -0.5659  0.3157 -0.2952
 3068TIP3    H130619   5.285   4.015   3.730  0.8179  0.3236  0.5154
 3068TIP3    H230620   5.249   4.135   3.645 -1.4724 -0.6305  0.0759
 3069TIP3   OH230621   0.800   4.893   5.883  0.0904 -0.1527  0.1777
 3069TIP3    H130622   0.847   4.916   5.803  2.1029  1.4148  1.7406
 3069TIP3    H230623   0.734   4.962   5.893 -0.2400 -0.4180 -0.2212
 3070TIP3   OH230624   6.455   0.825   4.912 -0.3053 -0.6880  0.1963
 3070TIP3    H130625   6.440   0.920   4.911 -0.8826 -0.7885 -0.9274
 3070TIP3    H230626   6.441   0.800   5.004  0.7111  0.4379  0.6845
 3071TIP3   OH230627   4.422   0.979  14.649 -0.2872  0.1402 -0.1793
 3071TIP3    H130628   4.389   0.894  14.620  1.3634 -0.1467 -1.2696
 3071TIP3    H230629   4.515   0.964  14.666 -0.4058  1.2476  1.5861
 3072TIP3   OH230630   5.447   5.724  16.826  0.1608 -0.1873  0.9103
 3072TIP3    H130631   5.469   5.765  16.910  1.4605  0.5969  0.2149
 3072TIP3    H230632   5.526   5.737  16.773 -0.8925 -0.1130 -0.6450
 3073TIP3   OH230633   3.572   6.744  12.470  0.1541 -0.3661 -0.7019
 3073TIP3    H130634   3.516   6.672  12.499  0.3577 -1.7541 -3.5651
 3073TIP3    H230635   3.661   6.713  12.486  0.2192 -0.2274 -0.7973
 3074TIP3   OH230636   1.787   5.745   6.061 -0.0475 -0.2894 -0.1298
 3074TIP3    H130637   1.718   5.733   6.126  0.5997 -0.1690  0.5893
 3074TIP3    H230638   1.772   5.677   5.996 -0.4981 -0.6267  0.3282
 3075TIP3   OH230639   0.567   2.670  13.559  0.3557 -0.0034 -0.2028
 3075TIP3    H130640   0.506   2.621  13.504 -0.2606  0.2199  0.2647
 3075TIP3    H230641   0.603   2.605  13.619  1.1517 -0.2765 -0.9716
 3076TIP3   OH230642   4.119   4.977   0.950 -0.2347  0.1024 -0.3033
 3076TIP3    H130643   4.201   4.983   0.999 -0.2088 -0.1632 -0.3133
 3076TIP3    H230644   4.141   4.923   0.874 -0.4498 -0.0727 -0.2418
 3077TIP3   OH230645   1.827   1.884   4.466  0.0550  0.0889 -0.4497
 3077TIP3    H130646   1.797   1.809   4.415  0.0012 -2.1480  2.7527
 3077TIP3    H230647   1.747   1.925   4.498  0.1364  0.2532 -0.4551
 3078TIP3   OH230648   4.922   3.627  14.070  0.1060 -0.1377 -0.1877
 3078TIP3    H130649   4.996   3.684  14.049  0.1986 -0.5910 -1.1223
 3078TIP3    H230650   4.870   3.624  13.989 -0.7370 -0.1172  0.3459
 3079TIP3   OH230651   1.661   1.710   4.293 -0.6399 -0.1868  0.8290
 3079TIP3    H130652   1.667   1.641   4.227  0.7642  0.3848  0.3444
 3079TIP3    H230653   1.567   1.717   4.311 -0.9570 -1.0096 -0.3953
 3080TIP3   OH230654   0.479   6.197   2.224 -0.2846  0.5491  0.5011
 3080TIP3    H130655   0.541   6.204   2.152  1.1299 -0.5660  1.5729
 3080TIP3    H230656   0.440   6.284   2.231  1.3184  1.3237 -0.0647
 3081TIP3   OH230657   4.076   3.062   1.789 -0.4912  0.3659 -0.2836
 3081TIP3    H130658   4.059   3.155   1.805 -2.4417 -0.2776  1.6663
 3081TIP3    H230659   3.989   3.023   1.779  0.3092 -1.2430 -1.1232
 3082TIP3   OH230660   6.696   5.461  12.819  0.5933  1.0637  0.3522
 3082TIP3    H130661   6.675   5.396  12.753 -0.9763 -0.0241  1.8970
 3082TIP3    H230662   6.786   5.487  12.798  0.8939 -0.8456 -0.8997
 3083TIP3   OH230663   5.028   3.853   6.654  0.0116 -0.5048 -0.7018
 3083TIP3    H130664   4.945   3.805   6.657  0.4723 -1.4322 -2.0205
 3083TIP3    H230665   5.095   3.785   6.662  0.6776 -0.1342 -2.7992
 3084TIP3   OH230666   3.948   0.618   2.642  0.7529  0.6998 -0.6705
 3084TIP3    H130667   3.962   0.527   2.669 -0.1709  0.7320 -0.0649
 3084TIP3    H230668   4.036   0.655   2.636  1.0691  0.1461  0.4423
 3085TIP3   OH230669   3.122   3.543   2.313  0.0733 -0.1516  0.3980
 3085TIP3    H130670   3.055   3.591   2.264 -0.1335  0.9182  1.7089
 3085TIP3    H230671   3.111   3.572   2.403  1.8559 -0.4929  0.7354
 3086TIP3   OH230672   6.566   6.138  10.996 -0.2885  0.0439  0.0725
 3086TIP3    H130673   6.508   6.171  10.928  0.1264  1.3175  0.3263
 3086TIP3    H230674   6.639   6.199  10.997 -0.6698  0.4950  2.2009
 3087TIP3   OH230675   5.191   1.007  15.347  0.0017 -0.5298 -0.3280
 3087TIP3    H130676   5.096   1.021  15.355 -0.0061  0.4498 -1.9904
 3087TIP3    H230677   5.224   1.018  15.437 -1.5619 -1.7757  0.4265
 3088TIP3   OH230678   2.395   3.327  12.102  0.0169 -0.2535  0.1392
 3088TIP3    H130679   2.333   3.396  12.077  0.3280 -0.4053 -1.1007
 3088TIP3    H230680   2.463   3.374  12.151 -1.3380 -0.1753  1.9954
 3089TIP3   OH230681   5.135   5.416  12.262  0.6434 -0.6300 -0.3618
 3089TIP3    H130682   5.126   5.496  12.211 -1.6762 -0.8728 -0.3738
 3089TIP3    H230683   5.130   5.346  12.198 -1.3741 -0.9036  0.0653
 3090TIP3   OH230684   5.685   0.672   3.512 -0.2319  0.0151 -0.0520
 3090TIP3    H130685   5.604   0.631   3.482  1.3797 -3.1448 -0.3867
 3090TIP3    H230686   5.747   0.657   3.440  1.7301 -1.2725  1.8236
 3091TIP3   OH230687   4.170   3.209   0.669 -1.0527  0.1649  0.5422
 3091TIP3    H130688   4.223   3.205   0.590 -0.3609  1.3140  0.9290
 3091TIP3    H230689   4.151   3.302   0.680 -0.7155  0.0833  1.9876
 3092TIP3   OH230690   5.155   1.010  12.029  1.1135 -0.2293 -0.6504
 3092TIP3    H130691   5.136   1.075  12.097  2.2127  1.3293 -1.7801
 3092TIP3    H230692   5.205   0.942  12.073 -0.2454 -0.4505  0.6063
 3093TIP3   OH230693   6.016   6.490  12.259  0.7346  0.0069  0.0564
 3093TIP3    H130694   6.044   6.479  12.168 -0.2395  1.1393 -0.3976
 3093TIP3    H230695   5.979   6.578  12.262  1.6041  0.3251  1.7789
 3094TIP3   OH230696   6.724   2.139   2.416  0.1070  0.2134  0.3353
 3094TIP3    H130697   6.751   2.188   2.493 -1.0022  0.8581  0.3269
 3094TIP3    H230698   6.657   2.193   2.375  2.1940  0.9057 -2.2938
 3095TIP3   OH230699   4.251   3.631   1.108  0.1887  0.4181  0.3726
 3095TIP3    H130700   4.205   3.655   1.189  0.8166 -0.1487  0.9032
 3095TIP3    H230701   4.312   3.703   1.093 -1.5731  1.6898 -0.9041
 3096TIP3   OH230702   4.740   4.710   3.813 -0.4663  0.0415  0.3663
 3096TIP3    H130703   4.663   4.760   3.838 -1.3250 -0.6286 -0.8298
 3096TIP3    H230704   4.706   4.641   3.756  0.8090 -1.2759  1.1616
 3097TIP3   OH230705   0.144   5.460   5.456  0.6007 -0.8178  0.3134
 3097TIP3    H130706   0.214   5.407   5.418  1.1523  1.7508 -2.4187
 3097TIP3    H230707   0.161   5.458   5.551  4.2450 -0.4688 -0.2785
 3098TIP3   OH230708   5.529   4.885   1.979 -0.1587 -0.2670 -0.1590
 3098TIP3    H130709   5.467   4.822   1.944  0.6351 -1.1131 -0.0688
 3098TIP3    H230710   5.548   4.944   1.906  0.1082 -0.9320 -0.6330
 3099TIP3   OH230711   1.561   3.300   5.707 -0.4170  0.1527  0.0731
 3099TIP3    H130712   1.611   3.225   5.741 -0.0954  1.0016  1.4965
 3099TIP3    H230713   1.506   3.327   5.780 -2.3401 -0.2211 -1.2269
 3100TIP3   OH230714   0.930   2.133  14.719 -0.2209 -0.0395 -0.2483
 3100TIP3    H130715   0.864   2.181  14.769  0.7619  0.9521  0.1228
 3100TIP3    H230716   0.978   2.200  14.671  0.0963 -0.8114 -1.0306
 3101TIP3   OH230717   0.001   4.459   1.632 -0.3448  0.1297  0.0462
 3101TIP3    H130718   0.092   4.432   1.618 -0.5014 -0.3540 -0.0345
 3101TIP3    H230719   0.005   4.519   1.707  0.6782  3.6393 -2.6939
 3102TIP3   OH230720   4.723   5.686  11.950 -0.6472 -0.0251  0.0108
 3102TIP3    H130721   4.775   5.613  11.916 -1.3933 -0.4712 -0.1914
 3102TIP3    H230722   4.784   5.737  12.003 -0.4739 -1.6322  1.3893
 3103TIP3   OH230723   2.942   4.566  14.877 -0.4121  0.5768  0.3626
 3103TIP3    H130724   2.900   4.590  14.960 -0.8156  0.1549  0.2876
 3103TIP3    H230725   3.008   4.502  14.902 -1.5176 -0.6559  0.2069
 3104TIP3   OH230726   2.779   6.249   2.589  0.6804  0.1907 -0.3877
 3104TIP3    H130727   2.709   6.314   2.595 -1.1544 -1.5108 -2.7850
 3104TIP3    H230728   2.857   6.300   2.567  0.0466  1.9747  1.3218
 3105TIP3   OH230729   5.125   4.789  15.876 -0.2068 -0.0035 -0.0059
 3105TIP3    H130730   5.137   4.871  15.922 -1.8072  0.0575  0.3016
 3105TIP3    H230731   5.039   4.796  15.835  0.1101 -1.0804 -0.8841
 3106TIP3   OH230732   6.455   5.354   5.361  0.1586 -0.0456 -0.3562
 3106TIP3    H130733   6.511   5.290   5.317 -0.0664  0.0791 -0.8252
 3106TIP3    H230734   6.496   5.438   5.342 -0.0727  0.0289 -0.5216
 3107TIP3   OH230735   1.936   0.004  12.639  0.0566 -0.0870 -0.1573
 3107TIP3    H130736   2.016   0.050  12.614 -0.4637  0.4676 -0.8331
 3107TIP3    H230737   1.870   0.033  12.575 -0.5545 -0.9372  0.0676
 3108TIP3   OH230738   5.428   3.715  15.812 -0.0768  0.0122 -0.1999
 3108TIP3    H130739   5.517   3.682  15.825 -0.5453 -1.7935 -1.3289
 3108TIP3    H230740   5.417   3.781  15.879  2.4168  0.8685 -0.5632
 3109TIP3   OH230741   5.621   5.021  16.905  0.5392 -0.3998  0.5356
 3109TIP3    H130742   5.525   5.031  16.905  0.4805 -0.9373  1.0249
 3109TIP3    H230743   5.653   5.104  16.870 -0.1809 -1.0633 -1.7964
 3110TIP3   OH230744   4.143   3.660   0.530 -0.5760 -0.4191  0.7280
 3110TIP3    H130745   4.137   3.584   0.472 -0.8526 -0.7316  1.1619
 3110TIP3    H230746   4.206   3.718   0.487 -1.7495 -0.0663 -0.5296
 3111TIP3   OH230747   6.184   3.154   6.109 -0.2777 -0.1442  0.4286
 3111TIP3    H130748   6.174   3.244   6.139 -1.9503 -0.7342  1.7679
 3111TIP3    H230749   6.258   3.120   6.159 -0.0196  0.2949  0.3510
 3112TIP3   OH230750   4.243   0.430  11.369 -0.3936  0.3439  0.4950
 3112TIP3    H130751   4.166   0.480  11.341 -2.1035 -2.4380  0.1236
 3112TIP3    H230752   4.294   0.417  11.289 -0.3221  0.7921  0.4622
 3113TIP3   OH230753   0.095   0.108   3.512 -0.0446  0.1860  0.1791
 3113TIP3    H130754   0.028   0.073   3.571 -0.9099  0.2373 -0.7612
 3113TIP3    H230755   0.141   0.030   3.480 -0.0787  0.1105  0.3098
 3114TIP3   OH230756   5.523   5.373  14.315  0.1694  0.0734  0.3024
 3114TIP3    H130757   5.491   5.358  14.226  0.5107 -0.4633  0.2726
 3114TIP3    H230758   5.531   5.468  14.321 -0.4656  0.1550 -0.0272
 3115TIP3   OH230759   1.692   0.870  17.092  0.2312 -0.2658 -0.2735
 3115TIP3    H130760   1.705   0.793  17.037 -1.4685  0.1777 -1.3496
 3115TIP3    H230761   1.615   0.913  17.055 -0.1029  0.8189  1.6094
 3116TIP3   OH230762   5.207   2.997   6.123  0.3580 -0.0270 -0.0554
 3116TIP3    H130763   5.112   2.995   6.123  0.2971  1.7716  1.1447
 3116TIP3    H230764   5.232   2.947   6.201  0.3771  0.0166 -0.0334
 3117TIP3   OH230765   4.413   3.909   2.194  0.3260 -0.9688  0.1175
 3117TIP3    H130766   4.374   3.996   2.198  1.0002 -0.6794  0.5758
 3117TIP3    H230767   4.358   3.860   2.132 -0.3535 -0.3767  0.2492
 3118TIP3   OH230768   4.432   2.601   1.584 -0.3116  0.2755 -0.2205
 3118TIP3    H130769   4.487   2.679   1.581  0.6645 -0.4415 -1.4960
 3118TIP3    H230770   4.456   2.558   1.667  0.5930  0.2987 -0.4640
 3119TIP3   OH230771   6.158   6.220   1.230  0.0816  0.0029 -0.1312
 3119TIP3    H130772   6.136   6.271   1.309  1.3514  1.3933 -0.6640
 3119TIP3    H230773   6.128   6.275   1.158  1.7951  0.1862 -0.7234
 3120TIP3   OH230774   4.429   3.322   4.785  0.2925 -0.2089  0.3890
 3120TIP3    H130775   4.444   3.272   4.865  1.1900 -0.1085  0.2837
 3120TIP3    H230776   4.490   3.395   4.791  0.8098 -0.5471 -0.6874
 3121TIP3   OH230777   0.464   2.480   2.285 -0.1151  0.2115  0.2618
 3121TIP3    H130778   0.556   2.456   2.288  0.3808  1.9037 -0.8680
 3121TIP3    H230779   0.457   2.558   2.340 -1.0428 -0.4083  1.0479
 3122TIP3   OH230780   0.076   6.505   5.764  0.1082  0.2649  0.0402
 3122TIP3    H130781   0.114   6.561   5.832 -0.6475 -0.4621  1.0730
 3122TIP3    H230782   0.148   6.489   5.704  0.7330  1.0982  0.5503
 3123TIP3   OH230783   4.421   0.511   4.394  0.2037  0.2217  0.7285
 3123TIP3    H130784   4.415   0.556   4.478  1.5636 -0.0359  0.9831
 3123TIP3    H230785   4.492   0.448   4.406 -1.4229 -1.7464  0.2690
 3124TIP3   OH230786   3.771   2.468   1.454  0.8824 -0.3803  0.3639
 3124TIP3    H130787   3.780   2.487   1.547 -0.0813  0.9911  0.1979
 3124TIP3    H230788   3.699   2.525   1.425 -0.1720 -2.2610 -0.7938
 3125TIP3   OH230789   1.066   2.680  14.919 -0.3478 -0.5761  0.2879
 3125TIP3    H130790   1.026   2.718  14.840 -0.7389  0.8109  1.1300
 3125TIP3    H230791   1.104   2.755  14.964 -0.2629 -1.3410  1.5008
 3126TIP3   OH230792   2.775   0.753  14.506 -0.0604  0.3034 -0.1048
 3126TIP3    H130793   2.755   0.788  14.419 -0.6220 -0.3890 -0.2551
 3126TIP3    H230794   2.781   0.659  14.493  0.0217  0.2163  0.5809
 3127TIP3   OH230795   2.098   2.070  13.748  0.0563 -0.0817  0.0358
 3127TIP3    H130796   2.114   2.129  13.822  0.2927 -0.5414  0.3562
 3127TIP3    H230797   2.047   2.122  13.687 -2.4301 -0.5140  1.6713
 3128TIP3   OH230798   2.403   1.623  12.802 -0.3239 -0.1406 -0.2992
 3128TIP3    H130799   2.473   1.579  12.755  1.6493  0.1188  2.3292
 3128TIP3    H230800   2.337   1.555  12.815 -0.0067 -0.7227 -1.6089
 3129TIP3   OH230801   0.134   1.444   1.095  0.3965  0.2449  0.1246
 3129TIP3    H130802   0.116   1.357   1.133  2.2160 -0.1824  0.0245
 3129TIP3    H230803   0.074   1.502   1.141 -1.3781 -1.1736 -0.3222
 3130TIP3   OH230804   4.820   5.271   0.225  0.0731  0.0284  0.0448
 3130TIP3    H130805   4.912   5.261   0.202  0.2430  0.6356  0.4301
 3130TIP3    H230806   4.796   5.187   0.265  1.2963  0.8678  2.6824
 3131TIP3   OH230807   6.165   5.942   3.779 -0.0130 -0.0643 -0.6608
 3131TIP3    H130808   6.211   6.022   3.805 -0.1422 -0.1181 -0.2646
 3131TIP3    H230809   6.107   5.922   3.853 -0.2968 -0.2823 -0.9435
 3132TIP3   OH230810   0.663   1.153   2.580 -0.0102  0.2389 -0.0327
 3132TIP3    H130811   0.754   1.178   2.565  0.0293  0.2319  0.1933
 3132TIP3    H230812   0.625   1.227   2.628 -0.7130  1.2258 -2.0027
 3133TIP3   OH230813   1.545   3.637  14.534  0.4334  0.3706  0.2932
 3133TIP3    H130814   1.640   3.630  14.543  0.6744  2.9780  0.0918
 3133TIP3    H230815   1.532   3.711  14.474 -1.7034 -0.6453 -0.5627
 3134TIP3   OH230816   0.800   3.338  12.158  0.6255  0.6323  0.0497
 3134TIP3    H130817   0.752   3.417  12.181  0.0057  0.6323 -1.2021
 3134TIP3    H230818   0.753   3.267  12.203  0.2879  0.7928 -0.0557
 3135TIP3   OH230819   2.232   2.830   5.629  0.7895  0.1552  0.0236
 3135TIP3    H130820   2.289   2.767   5.586  0.6621  1.0383 -1.4791
 3135TIP3    H230821   2.277   2.914   5.620 -0.3819  0.7492 -0.5695
 3136TIP3   OH230822   0.939   0.122   5.381  0.2226 -0.5302  0.5922
 3136TIP3    H130823   0.960   0.178   5.306  1.4969 -2.3612 -0.4575
 3136TIP3    H230824   0.848   0.096   5.366  0.2162 -0.2504  0.1097
 3137TIP3   OH230825   1.779   6.590   2.576  0.1671 -0.0244 -0.4101
 3137TIP3    H130826   1.708   6.557   2.630  0.0563  0.6509 -0.1412
 3137TIP3    H230827   1.736   6.627   2.499  0.2825 -0.3662 -0.6431
 3138TIP3   OH230828   5.025   4.164   5.797  0.1617  0.3501  0.1014
 3138TIP3    H130829   5.104   4.184   5.848  0.7708  1.1882 -1.1640
 3138TIP3    H230830   5.002   4.246   5.754 -0.4942 -0.2845 -0.7877
 3139TIP3   OH230831   2.231   4.460  10.346 -0.1066  0.1612 -0.7585
 3139TIP3    H130832   2.207   4.369  10.327 -0.5063  0.5903 -2.4336
 3139TIP3    H230833   2.294   4.454  10.418 -0.0667 -1.4495 -0.9142
 3140TIP3   OH230834   4.476   2.906  15.296  0.1612  0.1646  0.6787
 3140TIP3    H130835   4.384   2.880  15.287  0.2118  0.3567 -0.5013
 3140TIP3    H230836   4.513   2.890  15.209  0.9262  1.3302  0.7898
 3141TIP3   OH230837   4.314   5.845  12.841 -0.1183  0.0211  0.6671
 3141TIP3    H130838   4.324   5.940  12.832  2.2757 -0.2998 -0.2697
 3141TIP3    H230839   4.231   5.826  12.797 -0.6155  1.6822  0.8553
 3142TIP3   OH230840   4.420   3.239   0.307  0.1259  0.2573 -0.2569
 3142TIP3    H130841   4.489   3.303   0.326 -0.2189  0.3759  0.6137
 3142TIP3    H230842   4.339   3.280   0.338 -0.1623 -0.3965 -0.1192
 3143TIP3   OH230843   5.940   2.561  14.900  0.2626 -0.1125  0.0389
 3143TIP3    H130844   5.976   2.631  14.845  2.0839 -1.2141 -0.2024
 3143TIP3    H230845   5.911   2.606  14.979  1.2518  0.9658 -0.1945
 3144TIP3   OH230846   1.061   6.191   4.297  0.0316 -0.6312 -0.1824
 3144TIP3    H130847   1.104   6.113   4.262  0.0274 -0.8263  0.2442
 3144TIP3    H230848   0.967   6.174   4.285  0.0925  0.5199 -2.6777
 3145TIP3   OH230849   3.970   1.192   4.544 -0.3623 -0.0686 -0.0922
 3145TIP3    H130850   4.021   1.256   4.494 -0.3209 -0.0233  0.0074
 3145TIP3    H230851   3.879   1.219   4.532 -0.3698 -0.2136 -0.3582
 3146TIP3   OH230852   6.161   3.106  11.129 -0.2315  0.0634  0.0714
 3146TIP3    H130853   6.240   3.054  11.148 -1.1284 -1.2611  0.2860
 3146TIP3    H230854   6.185   3.159  11.053  0.4743 -1.2751 -0.6741
 3147TIP3   OH230855   2.869   2.629  17.130  0.7191  0.1302  0.4188
 3147TIP3    H130856   2.961   2.607  17.141  0.5297 -1.7485 -1.3516
 3147TIP3    H230857   2.868   2.705  17.071  1.0746 -3.0564 -3.9880
 3148TIP3   OH230858   5.013   0.793  13.153  0.1576 -0.2015 -0.2101
 3148TIP3    H130859   5.097   0.747  13.150  0.3597  0.0902  0.7796
 3148TIP3    H230860   5.032   0.881  13.120  0.4474  0.1607  0.9052
 3149TIP3   OH230861   0.241   5.669  12.940  0.2649 -0.1708  0.1287
 3149TIP3    H130862   0.333   5.694  12.949 -0.2744  2.8132 -1.9068
 3149TIP3    H230863   0.241   5.597  12.878  1.1438  0.6544 -0.8447
 3150TIP3   OH230864   4.316   1.165   0.526 -0.2256  0.9191  0.1940
 3150TIP3    H130865   4.304   1.204   0.612 -1.1425  2.0624 -0.4317
 3150TIP3    H230866   4.400   1.200   0.495 -0.9260  2.2356 -0.2603
 3151TIP3   OH230867   4.292   6.165  11.561  0.3520 -0.0829  0.1590
 3151TIP3    H130868   4.260   6.081  11.528 -2.9083  1.6920 -1.4480
 3151TIP3    H230869   4.253   6.173  11.648  0.7740 -0.3033  0.3681
 3152TIP3   OH230870   5.442   0.332   2.127 -0.5013 -0.1776  0.0563
 3152TIP3    H130871   5.408   0.260   2.180 -1.2336  0.5191  0.5358
 3152TIP3    H230872   5.377   0.401   2.135 -0.3848  0.1113 -1.3816
 3153TIP3   OH230873   1.542   5.077  16.448  0.1402 -0.1249  0.5507
 3153TIP3    H130874   1.528   5.077  16.353 -0.5126 -2.1153  0.6359
 3153TIP3    H230875   1.606   5.147  16.462 -1.9403  2.2132 -1.0194
 3154TIP3   OH230876   3.845   5.410  15.727 -0.3980 -0.4719  0.1632
 3154TIP3    H130877   3.862   5.436  15.818 -0.1259 -1.1480  0.3044
 3154TIP3    H230878   3.892   5.476  15.675 -3.1169  1.7959  0.4303
 3155TIP3   OH230879   6.564   4.256   3.279 -0.0014 -0.2085  0.2793
 3155TIP3    H130880   6.585   4.196   3.208 -1.8781 -0.4614 -0.0964
 3155TIP3    H230881   6.646   4.266   3.327  0.7102 -1.9286 -0.5163
 3156TIP3   OH230882   5.690   0.433   2.118 -0.6127 -0.3074  0.0128
 3156TIP3    H130883   5.596   0.422   2.107 -0.5232 -0.0398 -1.1969
 3156TIP3    H230884   5.700   0.480   2.201 -1.7164  1.9623 -1.0902
 3157TIP3   OH230885   6.127   5.429  10.884 -0.2030 -0.3100 -0.3530
 3157TIP3    H130886   6.127   5.356  10.822  0.3234 -0.3882 -0.2658
 3157TIP3    H230887   6.053   5.412  10.942  0.5363 -1.3082  0.3016
 3158TIP3   OH230888   0.677   3.274  16.824 -0.1231  0.4674  0.0514
 3158TIP3    H130889   0.665   3.187  16.862  0.4344  0.5005  0.3086
 3158TIP3    H230890   0.771   3.279  16.804 -0.6063 -0.0698 -2.5735
 3159TIP3   OH230891   2.483   0.349   1.698 -0.9606 -0.1909  0.1732
 3159TIP3    H130892   2.512   0.276   1.752  0.1710  1.3084  1.6501
 3159TIP3    H230893   2.427   0.401   1.756 -3.6984 -1.0956 -1.5568
 3160TIP3   OH230894   3.585   1.215  12.793 -0.0499  0.5101  0.1238
 3160TIP3    H130895   3.671   1.174  12.805 -0.8612 -0.3445  3.2370
 3160TIP3    H230896   3.534   1.150  12.746 -0.0015 -0.3309  1.2187
 3161TIP3   OH230897   4.721   3.010  14.708  0.3256  0.1756 -1.2249
 3161TIP3    H130898   4.668   3.025  14.786  0.3143  2.2683 -1.5981
 3161TIP3    H230899   4.662   3.028  14.634  1.5126  2.6135 -1.6423
 3162TIP3   OH230900   2.067   1.835   4.771  0.1974 -0.2905  0.7000
 3162TIP3    H130901   2.037   1.753   4.732  1.0650  0.0009 -0.6019
 3162TIP3    H230902   2.159   1.820   4.791  0.0884  0.0075  1.4435
 3163TIP3   OH230903   5.731   2.511  12.783 -0.3772 -0.3379 -0.6465
 3163TIP3    H130904   5.718   2.419  12.805 -0.0759 -0.2093  0.1003
 3163TIP3    H230905   5.749   2.511  12.689  1.3729 -1.2155 -0.3333
 3164TIP3   OH230906   5.993   2.931  12.634  0.2054  0.5317 -0.1032
 3164TIP3    H130907   6.023   3.009  12.586  0.0986  0.3707 -0.4351
 3164TIP3    H230908   6.037   2.858  12.589  1.2677  0.5047  0.9738
 3165TIP3   OH230909   4.301   4.102  17.141 -0.0233 -0.2358 -0.0862
 3165TIP3    H130910   4.317   4.013  17.109 -0.6582 -0.1736 -0.5889
 3165TIP3    H230911   4.276   4.090  17.233  1.4067 -0.4472  0.2960
 3166TIP3   OH230912   1.185   5.898   1.686 -0.4167 -0.0651  0.3629
 3166TIP3    H130913   1.239   5.834   1.731  0.1117  0.2331  0.1469
 3166TIP3    H230914   1.112   5.914   1.746 -0.9595 -1.4446  0.0836
 3167TIP3   OH230915   5.021   0.046   2.919 -1.3008  0.2107 -0.3850
 3167TIP3    H130916   5.030  -0.049   2.924 -1.1769  0.3476  4.0784
 3167TIP3    H230917   5.111   0.078   2.925 -1.3047  0.6125 -2.3827
 3168TIP3   OH230918   6.645   3.381   1.888 -0.2575 -0.4629 -0.1375
 3168TIP3    H130919   6.602   3.361   1.804  0.7216 -0.0466 -0.7489
 3168TIP3    H230920   6.578   3.364   1.954 -2.1103  2.3547 -1.2087
 3169TIP3   OH230921   2.293   2.180   6.008 -0.1714 -0.0127  0.5579
 3169TIP3    H130922   2.338   2.252   5.965 -2.1070  0.3020 -1.0535
 3169TIP3    H230923   2.231   2.222   6.068  0.3981 -0.3877  1.4110
 3170TIP3   OH230924   2.062   5.518   4.271  0.1288  0.1130 -0.4075
 3170TIP3    H130925   2.071   5.527   4.176  2.3116 -1.1180 -0.3566
 3170TIP3    H230926   1.973   5.549   4.289  0.2372  1.9404 -2.6257
 3171TIP3   OH230927   3.267   3.150  14.219 -0.8050  0.1342  0.1720
 3171TIP3    H130928   3.242   3.057  14.222  0.3973 -0.1574  1.2473
 3171TIP3    H230929   3.248   3.183  14.306  1.8563  0.0770  0.8178
 3172TIP3   OH230930   0.045   3.201   0.080 -0.0824  0.0529  0.1799
 3172TIP3    H130931   0.007   3.160   0.002 -3.3299  3.6364 -0.2448
 3172TIP3    H230932  -0.024   3.199   0.146  1.7607 -0.5828  2.1714
 3173TIP3   OH230933   1.863   0.532  15.356  0.6328 -0.2775  0.1889
 3173TIP3    H130934   1.848   0.613  15.307 -2.2230 -1.6147 -1.2710
 3173TIP3    H230935   1.940   0.493  15.314  0.6973  0.6023 -0.5195
 3174TIP3   OH230936   3.862   3.529  16.695  0.1755  0.6181 -0.2441
 3174TIP3    H130937   3.933   3.589  16.671 -0.0285  0.5506 -1.0203
 3174TIP3    H230938   3.791   3.550  16.634 -0.4231  0.5745  0.4217
 3175TIP3   OH230939   2.116   4.644   5.102  0.5289 -0.0379 -0.3616
 3175TIP3    H130940   2.185   4.580   5.120  0.1586 -0.5786 -0.8568
 3175TIP3    H230941   2.049   4.625   5.167  0.2881 -0.3489 -0.7011
 3176TIP3   OH230942   4.407   0.479   2.270 -0.2267 -0.0418  0.2528
 3176TIP3    H130943   4.420   0.539   2.344 -0.2133 -0.3775  0.5247
 3176TIP3    H230944   4.316   0.492   2.245 -1.1906 -2.2639  2.4185
 3177TIP3   OH230945   1.719   5.977   0.848  0.2979  0.2159 -0.1682
 3177TIP3    H130946   1.684   6.022   0.771 -1.3021  2.1286  1.6145
 3177TIP3    H230947   1.744   6.048   0.908  1.5550 -1.2383  1.0533
 3178TIP3   OH230948   5.265   2.241   0.923  0.4385 -0.1883  0.2346
 3178TIP3    H130949   5.350   2.197   0.930  1.0056  0.8250 -0.1220
 3178TIP3    H230950   5.229   2.238   1.012  0.1955 -1.8819  0.0948
 3179TIP3   OH230951   1.128   4.817  13.731 -0.0334 -0.3997  0.4454
 3179TIP3    H130952   1.152   4.731  13.697 -0.4666 -0.3262 -0.0545
 3179TIP3    H230953   1.164   4.879  13.667  1.0781 -0.1657  1.2803
 3180TIP3   OH230954   5.034   3.779  11.064  0.2392  0.1004  0.1353
 3180TIP3    H130955   4.959   3.818  11.019 -0.1847 -1.4925 -0.5660
 3180TIP3    H230956   5.108   3.797  11.007 -0.1729 -1.2527 -0.8485
 3181TIP3   OH230957   1.197   0.653   0.162  0.0492 -0.2071 -0.1765
 3181TIP3    H130958   1.116   0.669   0.115 -0.2831 -0.7732  0.1960
 3181TIP3    H230959   1.266   0.687   0.105 -0.5091  1.0976 -0.0942
 3182TIP3   OH230960   5.087   0.478  14.901  0.0248  0.2508 -0.0492
 3182TIP3    H130961   5.042   0.552  14.862  1.0605  1.5057  1.1019
 3182TIP3    H230962   5.028   0.448  14.970 -1.6424 -1.7443 -2.2596
 3183TIP3   OH230963   5.506   3.897   1.570  0.0345 -0.5620  0.1766
 3183TIP3    H130964   5.463   3.969   1.523  2.3324  1.1103  0.5329
 3183TIP3    H230965   5.506   3.825   1.508 -3.6214 -0.7830  0.3232
 3184TIP3   OH230966   1.728   0.084   1.574  0.2144 -0.2389 -0.2003
 3184TIP3    H130967   1.804   0.027   1.589 -1.1172 -1.2785  2.9442
 3184TIP3    H230968   1.672   0.035   1.514  0.6896 -0.7346 -0.2424
 3185TIP3   OH230969   1.353   5.561   0.429 -0.6100  0.6616  0.5077
 3185TIP3    H130970   1.321   5.473   0.411  3.9834 -1.0004 -0.0821
 3185TIP3    H230971   1.330   5.612   0.351  0.4095 -1.0926 -0.9525
 3186TIP3   OH230972   6.750   0.389  12.246 -0.4956 -0.5253  0.6358
 3186TIP3    H130973   6.765   0.295  12.254  0.9216 -0.4545 -0.9787
 3186TIP3    H230974   6.835   0.426  12.226 -1.5816  0.7122 -1.9170
 3187TIP3   OH230975   2.403   6.602  11.906  0.3749  0.1690 -0.1374
 3187TIP3    H130976   2.349   6.562  11.839 -0.1288  1.3591 -0.4351
 3187TIP3    H230977   2.389   6.547  11.984 -1.6677  0.7965 -0.0584
 3188TIP3   OH230978   0.809   2.995  15.374  0.1952 -0.4284 -0.0733
 3188TIP3    H130979   0.753   3.020  15.448 -0.6209  0.2220 -0.8918
 3188TIP3    H230980   0.882   3.056  15.378 -1.7712  2.2159 -2.0380
 3189TIP3   OH230981   5.043   0.577  12.475 -0.1211  0.2884 -0.6216
 3189TIP3    H130982   4.974   0.521  12.513  1.5850 -1.6208 -0.2314
 3189TIP3    H230983   5.007   0.665  12.480 -1.8657 -0.4624  1.1602
 3190TIP3   OH230984   1.668   4.109   5.549 -0.3816  0.0222 -0.2439
 3190TIP3    H130985   1.683   4.022   5.587 -0.0476  0.8487  1.5587
 3190TIP3    H230986   1.573   4.117   5.543 -0.4391 -0.1596  0.3626
 3191TIP3   OH230987   2.079   5.598  15.574 -0.2695  0.2993  0.3336
 3191TIP3    H130988   2.172   5.617  15.569 -0.7285  2.1497 -1.9761
 3191TIP3    H230989   2.059   5.598  15.668  1.7584  1.2422  0.7857
 3192TIP3   OH230990   0.926   5.205   1.887 -0.2987  0.1730  0.0776
 3192TIP3    H130991   0.848   5.164   1.925 -0.6765  0.9748  0.1974
 3192TIP3    H230992   0.905   5.214   1.794  0.8047 -2.1906 -0.4107
 3193TIP3   OH230993   3.385   4.600   4.697  1.1139 -0.3208  0.0178
 3193TIP3    H130994   3.328   4.625   4.624  2.0375 -1.7822 -1.2488
 3193TIP3    H230995   3.469   4.641   4.676  0.7546  1.2521  1.5229
 3194TIP3   OH230996   6.708   2.908   5.559 -0.0916  0.2992 -0.7170
 3194TIP3    H130997   6.613   2.911   5.572 -0.1645  0.6139 -1.3141
 3194TIP3    H230998   6.732   2.817   5.578 -0.3970  0.4061  0.1909
 3195TIP3   OH230999   0.160   2.050   1.498  0.4030 -0.3589  0.4878
 3195TIP3    H131000   0.097   2.062   1.569 -1.7364  0.4378 -1.4926
 3195TIP3    H231001   0.221   2.124   1.506 -1.2953  1.1137  0.0058
 3196TIP3   OH231002   0.218   5.463   4.763  0.3868  0.3759 -0.8549
 3196TIP3    H131003   0.284   5.406   4.802  0.7260  1.4105  0.1058
 3196TIP3    H231004   0.144   5.461   4.824  0.2503  0.6710 -1.0065
 3197TIP3   OH231005   0.678   2.612  17.236  0.1857 -0.1112  0.2044
 3197TIP3    H131006   0.720   2.528  17.254  0.7978  0.0033 -0.6459
 3197TIP3    H231007   0.745   2.677  17.258 -0.0210  0.1242  0.1380
 3198TIP3   OH231008   6.437   3.740   0.091 -0.2596  0.3650  0.2814
 3198TIP3    H131009   6.482   3.818   0.060  2.1413 -0.8596  0.5582
 3198TIP3    H231010   6.365   3.727   0.029 -0.7545  2.8174  0.3058
 3199TIP3   OH231011   3.415   3.647  14.420  0.0051  0.0200  0.0074
 3199TIP3    H131012   3.465   3.662  14.501 -0.4282 -0.5407  0.3877
 3199TIP3    H231013   3.335   3.700  14.432 -0.8560 -1.4066  0.7163
 3200TIP3   OH231014   0.382   2.967  17.022  0.0786 -0.0727  0.0352
 3200TIP3    H131015   0.307   2.931  17.070  1.3847 -0.7525  1.6269
 3200TIP3    H231016   0.373   2.931  16.934 -0.7096 -1.2935  0.5911
 3201TIP3   OH231017   4.177   2.475  10.378 -0.4354  0.1448 -0.4737
 3201TIP3    H131018   4.201   2.383  10.374  0.3503  0.3547 -0.5906
 3201TIP3    H231019   4.200   2.510  10.291  0.8192  0.8270  0.1238
 3202TIP3   OH231020   0.766   5.653  10.692  0.0064  0.0670 -0.1276
 3202TIP3    H131021   0.724   5.661  10.606  0.6342  0.6501 -0.3907
 3202TIP3    H231022   0.695   5.630  10.751 -0.3234 -0.9497 -0.9117
 3203TIP3   OH231023   0.007   2.250  16.720 -0.6699  0.0269 -0.5108
 3203TIP3    H131024  -0.031   2.248  16.633  0.3909 -1.9087 -0.9387
 3203TIP3    H231025   0.093   2.290  16.708 -0.1821 -1.0057 -0.4951
 3204TIP3   OH231026   2.142   1.856   4.448  0.4495 -0.4088  0.8256
 3204TIP3    H131027   2.086   1.799   4.501  1.1886 -1.7275  0.2118
 3204TIP3    H231028   2.173   1.922   4.509 -2.1066  0.6176  1.0884
 3205TIP3   OH231029   1.871   0.762  15.187 -0.5748 -0.4615 -0.4491
 3205TIP3    H131030   1.880   0.795  15.097  1.5919 -0.3735 -0.2425
 3205TIP3    H231031   1.793   0.804  15.221 -0.1379  1.2781 -1.5505
 3206TIP3   OH231032   1.926   5.984  12.395 -0.6795  0.1640  0.0642
 3206TIP3    H131033   1.935   6.012  12.486  0.5886  1.7944 -0.5313
 3206TIP3    H231034   1.950   6.062  12.344  0.4896 -1.2852 -1.6475
 3207TIP3   OH231035   5.223   2.061  16.774 -0.0671  0.1371 -0.9816
 3207TIP3    H131036   5.308   2.100  16.752  0.6194  0.2038  1.6062
 3207TIP3    H231037   5.163   2.097  16.708  1.5665  1.4687 -1.8037
 3208TIP3   OH231038   3.338   3.770  10.632 -0.0035  0.1649  0.1888
 3208TIP3    H131039   3.248   3.738  10.632  0.4619 -1.1750  2.0656
 3208TIP3    H231040   3.374   3.741  10.548 -0.7329 -0.9702  0.2651
 3209TIP3   OH231041   3.041   1.882   1.132  0.4102 -0.7588 -0.2910
 3209TIP3    H131042   3.123   1.860   1.088 -0.2682 -0.6040 -1.6488
 3209TIP3    H231043   3.029   1.811   1.196  2.7816  0.4404  1.5880
 3210TIP3   OH231044   0.853   5.241  14.382  0.4947 -0.2113 -0.5645
 3210TIP3    H131045   0.802   5.179  14.433  0.7986  0.1992  0.2360
 3210TIP3    H231046   0.918   5.277  14.443 -0.1947  1.4982 -0.7920
 3211TIP3   OH231047   0.044   0.634   5.855  0.7752  0.2347 -0.2334
 3211TIP3    H131048   0.022   0.727   5.857  2.0864  0.5774 -1.0503
 3211TIP3    H231049   0.017   0.604   5.768 -1.4122 -0.6175  0.7066
 3212TIP3   OH231050   4.412   1.140   2.204  0.1092  0.2187  0.5450
 3212TIP3    H131051   4.505   1.140   2.222  0.1541  0.9560  0.3401
 3212TIP3    H231052   4.397   1.060   2.153  0.7174  0.3736  0.1244
 3213TIP3   OH231053   6.636   1.250  15.232 -0.2470  0.5590  0.0644
 3213TIP3    H131054   6.589   1.314  15.179  0.6812  1.3209  0.1373
 3213TIP3    H231055   6.729   1.273  15.221  0.0348 -0.0722  0.9971
 3214TIP3   OH231056   4.354   5.030  12.888  0.1362 -0.2316  0.4143
 3214TIP3    H131057   4.441   4.994  12.899  0.2506 -0.2426 -0.5672
 3214TIP3    H231058   4.334   5.020  12.795 -0.2454  1.2719  0.3160
 3215TIP3   OH231059   1.878   6.293   2.928  0.4447  0.2763  0.0476
 3215TIP3    H131060   1.864   6.375   2.976  1.3530  1.5078 -1.7401
 3215TIP3    H231061   1.962   6.260   2.961  0.7278  0.7613 -0.1784
 3216TIP3   OH231062   4.056   0.652   3.783  0.1419 -0.1077 -0.5895
 3216TIP3    H131063   4.093   0.607   3.859  0.9298  2.9286  0.8975
 3216TIP3    H231064   4.109   0.623   3.709  0.0954 -2.2158  0.1671
 3217TIP3   OH231065   0.506   6.560  16.319  0.2244 -0.0761 -0.5213
 3217TIP3    H131066   0.562   6.600  16.253  0.5966  1.1770  0.5433
 3217TIP3    H231067   0.442   6.510  16.269  0.0839  1.4026 -1.8431
 3218TIP3   OH231068   0.366   1.806  14.875 -0.6757  0.1174 -0.1734
 3218TIP3    H131069   0.386   1.831  14.965 -0.5334 -1.2710  0.1965
 3218TIP3    H231070   0.273   1.781  14.877 -0.5608 -0.3261 -0.3151
 3219TIP3   OH231071   6.744   0.203  17.106  0.2981  0.3406  0.5159
 3219TIP3    H131072   6.786   0.197  17.020 -0.5519  0.6411  0.0721
 3219TIP3    H231073   6.796   0.268  17.154  0.4603  0.5683  0.0390
 3220TIP3   OH231074   2.839   5.785  14.459 -0.4669  0.0540 -0.3663
 3220TIP3    H131075   2.888   5.736  14.394  0.3688 -0.5868  0.7345
 3220TIP3    H231076   2.903   5.844  14.499 -0.2058 -1.7703  2.0626
 3221TIP3   OH231077   4.268   2.314  14.068 -0.3867  0.2093  0.0729
 3221TIP3    H131078   4.260   2.353  13.981 -2.0409 -1.4119 -0.5161
 3221TIP3    H231079   4.351   2.267  14.066 -1.6085 -1.9524 -1.5224
 3222TIP3   OH231080   6.187   4.293  14.402 -0.0681  0.0945  0.0956
 3222TIP3    H131081   6.133   4.292  14.481 -1.4635  0.6400 -0.8360
 3222TIP3    H231082   6.136   4.343  14.338  0.5438 -1.2396 -1.4933
 3223TIP3   OH231083   4.570   3.712  11.702 -0.1106  0.0106  0.5988
 3223TIP3    H131084   4.593   3.732  11.793 -0.4597 -0.1055  0.7125
 3223TIP3    H231085   4.557   3.617  11.701  1.6289 -0.2325  0.0442
 3224TIP3   OH231086   5.009   5.733  13.755  0.0720 -0.1188 -0.3633
 3224TIP3    H131087   5.099   5.701  13.761 -0.2726 -1.1146 -0.4454
 3224TIP3    H231088   5.018   5.827  13.738  1.0872 -0.0131  0.7106
 3225TIP3   OH231089   0.785   4.421  14.009 -0.2654  0.3585  0.1244
 3225TIP3    H131090   0.878   4.440  14.026 -0.0774 -0.6743  0.3362
 3225TIP3    H231091   0.746   4.505  13.987  0.5950  0.9023  0.6634
 3226TIP3   OH231092   3.377   4.807   2.276  0.1075 -0.6171  0.0719
 3226TIP3    H131093   3.365   4.875   2.210 -1.5944 -0.8420  0.1344
 3226TIP3    H231094   3.439   4.845   2.339 -0.9806  0.9631  0.2161
 3227TIP3   OH231095   4.907   5.253   2.684 -0.3813 -0.4051 -0.5433
 3227TIP3    H131096   4.949   5.315   2.623  0.4242 -1.5252 -1.1465
 3227TIP3    H231097   4.834   5.302   2.721  0.7420  1.1942 -0.3820
 3228TIP3   OH231098   5.158   5.671  16.397  0.2201 -0.1540 -0.2092
 3228TIP3    H131099   5.223   5.615  16.439  1.3277  1.8595  0.8486
 3228TIP3    H231100   5.080   5.663  16.452  0.4352 -0.5209  0.0408
 3229TIP3   OH231101   3.142   6.712  12.403  0.6083  0.0869 -0.0680
 3229TIP3    H131102   3.047   6.704  12.389  0.9169 -1.2303 -1.5808
 3229TIP3    H231103   3.171   6.622  12.421  1.6779  0.3812 -0.3014
 3230TIP3   OH231104   0.517   0.442   2.022 -0.0738 -0.2810  0.0393
 3230TIP3    H131105   0.480   0.354   2.029 -0.8757 -0.0815 -1.5413
 3230TIP3    H231106   0.480   0.478   1.941 -0.0351  1.6398  0.8362
 3231TIP3   OH231107   0.907   4.405  15.503 -0.1172  0.4758 -0.5395
 3231TIP3    H131108   0.824   4.406  15.455 -0.2333  0.1232 -0.3512
 3231TIP3    H231109   0.945   4.492  15.489  0.4937 -0.0676 -2.3897
 3232TIP3   OH231110   4.548   6.621   5.898 -0.0945 -0.1097 -0.2388
 3232TIP3    H131111   4.574   6.560   5.968  0.8167  0.6588  0.0955
 3232TIP3    H231112   4.453   6.623   5.903 -0.0424 -0.1120  0.9432
 3233TIP3   OH231113   5.162   1.523  11.854 -0.3562 -0.0989 -0.0420
 3233TIP3    H131114   5.195   1.434  11.849 -1.1326 -0.3075 -1.8673
 3233TIP3    H231115   5.068   1.513  11.870 -0.4376  0.3924 -0.2055
 3234TIP3   OH231116   6.785   2.202   5.400 -0.1109 -0.2358 -0.1644
 3234TIP3    H131117   6.743   2.219   5.315  2.5288  1.9455 -1.0952
 3234TIP3    H231118   6.791   2.106   5.404 -1.0518 -0.4133 -2.0399
 3235TIP3   OH231119   0.262   1.437   5.279 -0.2960 -0.6888  0.4025
 3235TIP3    H131120   0.176   1.433   5.236  0.3281  2.6282 -1.3201
 3235TIP3    H231121   0.288   1.529   5.272  3.7783 -1.7540  0.1362
 3236TIP3   OH231122   6.259   1.174   3.978  0.1098 -0.0038  0.1297
 3236TIP3    H131123   6.224   1.156   4.065  1.7813 -0.3282  0.7518
 3236TIP3    H231124   6.275   1.268   3.977  1.0656 -0.1653  0.5355
 3237TIP3   OH231125   6.182   2.079   5.770  0.0814 -0.1644  0.8328
 3237TIP3    H131126   6.135   2.105   5.850  0.6531 -0.2994  1.2208
 3237TIP3    H231127   6.186   1.984   5.775 -0.8200 -0.2470  0.0947
 3238TIP3   OH231128   3.398   3.800   1.306  0.3751  0.2677 -0.7687
 3238TIP3    H131129   3.405   3.748   1.226 -0.4969 -3.5753  1.5512
 3238TIP3    H231130   3.307   3.830   1.306  0.1617 -0.3625 -0.8661
 3239TIP3   OH231131   2.253   5.967   3.498 -0.2910  0.3127 -0.4581
 3239TIP3    H131132   2.339   6.008   3.502  0.0402 -0.3569 -0.5404
 3239TIP3    H231133   2.230   5.967   3.406 -1.0765  1.8957 -0.2694
 3240TIP3   OH231134   4.766   4.848  14.534  0.2833 -0.2026 -0.3475
 3240TIP3    H131135   4.792   4.843  14.442 -0.1274 -2.7239 -0.3460
 3240TIP3    H231136   4.678   4.886  14.533  0.6611  0.6663 -0.9131
 3241TIP3   OH231137   2.834   3.395   0.919  0.3259 -0.3784 -0.0222
 3241TIP3    H131138   2.756   3.438   0.953  0.2809 -1.1121  0.8177
 3241TIP3    H231139   2.885   3.466   0.878 -1.0561 -0.0083 -1.1172
 3242TIP3   OH231140   2.343   6.630   4.113  0.0819 -0.1713  0.0473
 3242TIP3    H131141   2.291   6.706   4.137  1.8778  1.0539  0.1837
 3242TIP3    H231142   2.308   6.558   4.166 -2.2621  0.3227 -0.8126
 3243TIP3   OH231143   4.989   3.547   6.402  0.5917 -0.3852  0.0583
 3243TIP3    H131144   4.969   3.503   6.484  1.1536  1.6065  1.3241
 3243TIP3    H231145   5.074   3.511   6.375  1.5891  0.6780  1.6674
 3244TIP3   OH231146   3.149   4.212  15.369 -0.5496 -0.8057  0.1023
 3244TIP3    H131147   3.127   4.151  15.299 -1.1500 -0.4912  0.0140
 3244TIP3    H231148   3.090   4.188  15.441 -0.9255 -0.2032 -0.0032
 3245TIP3   OH231149   3.950   3.691  11.306 -0.4166  0.2230  0.2716
 3245TIP3    H131150   3.887   3.688  11.235 -0.9485  2.0187  0.6463
 3245TIP3    H231151   4.016   3.626  11.283 -0.9134  0.3523 -1.5536
 3246TIP3   OH231152   5.471   6.010   4.981  0.2512  0.2000 -0.3520
 3246TIP3    H131153   5.460   6.104   4.997 -0.1918  0.5493 -2.5988
 3246TIP3    H231154   5.532   6.005   4.908 -0.1013 -1.2649 -0.5594
 3247TIP3   OH231155   2.561   6.528   3.228 -0.3773  0.0595 -0.2559
 3247TIP3    H131156   2.531   6.525   3.318 -1.5213 -0.4835 -0.6418
 3247TIP3    H231157   2.524   6.610   3.193 -2.1154 -0.9895 -0.9540
 3248TIP3   OH231158   1.744   3.123  15.422 -0.2004  0.0072 -0.0104
 3248TIP3    H131159   1.729   3.082  15.337  1.3053 -0.5633 -0.0160
 3248TIP3    H231160   1.730   3.217  15.405 -0.9207 -0.2000 -0.6349
 3249TIP3   OH231161   0.114   6.707   5.948 -0.2929 -0.3389 -0.3462
 3249TIP3    H131162   0.152   6.648   6.014  0.0961 -1.0674 -1.2038
 3249TIP3    H231163   0.102   6.790   5.994 -0.0023 -0.8315  0.6355
 3250TIP3   OH231164   6.687   6.404   1.239  0.4299  0.5645 -0.6725
 3250TIP3    H131165   6.601   6.363   1.238  0.5873  0.2082  0.2402
 3250TIP3    H231166   6.692   6.448   1.324  2.0771 -1.4314  0.3190
 3251TIP3   OH231167   0.190   1.997  14.006  0.5561 -0.3288 -0.1513
 3251TIP3    H131168   0.162   1.942  14.079 -1.7998  0.0825 -0.7033
 3251TIP3    H231169   0.157   2.084  14.028  2.2019  0.3840 -0.4246
 3252TIP3   OH231170   0.755   5.039  14.544  0.3690 -0.1974 -0.1079
 3252TIP3    H131171   0.709   4.958  14.567  1.3204 -1.2558 -1.8430
 3252TIP3    H231172   0.840   5.010  14.511  0.7185  1.5115 -0.7620
 3253TIP3   OH231173   0.790   4.977   2.904  0.1136  0.3015 -0.0073
 3253TIP3    H131174   0.717   5.029   2.936 -0.9694 -0.4811 -1.1633
 3253TIP3    H231175   0.809   4.916   2.976 -1.1501 -0.2736 -0.1448
 3254TIP3   OH231176   2.038   0.507  14.933 -0.0813 -0.2346  0.7953
 3254TIP3    H131177   2.058   0.556  14.853  1.6280 -1.3028  0.5424
 3254TIP3    H231178   2.087   0.552  15.002 -0.0745 -0.4080  0.9041
 3255TIP3   OH231179   1.229   1.629   3.918 -0.2173  0.0065 -0.4783
 3255TIP3    H131180   1.255   1.579   3.841 -0.7990 -1.9737  0.5989
 3255TIP3    H231181   1.216   1.718   3.885  0.2625 -0.6527 -2.5137
 3256TIP3   OH231182   5.273   6.435  12.291  0.4041 -0.1632  0.3984
 3256TIP3    H131183   5.276   6.518  12.243  1.7331 -0.4680 -0.0606
 3256TIP3    H231184   5.349   6.438  12.348  0.6325 -1.1985  0.1505
 3257TIP3   OH231185   0.974   0.658  10.974 -0.8711  0.2769 -0.3762
 3257TIP3    H131186   0.917   0.697  10.907 -0.0020  0.3129 -1.1078
 3257TIP3    H231187   1.030   0.598  10.926 -1.5291 -1.1563  0.6135
 3258TIP3   OH231188   4.828   2.994  15.230 -0.0891  0.0397  0.0430
 3258TIP3    H131189   4.813   2.912  15.276  1.3877  0.1806  0.8054
 3258TIP3    H231190   4.900   2.975  15.170 -0.3457  0.5394 -0.4273
 3259TIP3   OH231191   6.303   2.054  12.222 -0.6396  0.7872  0.3757
 3259TIP3    H131192   6.263   1.987  12.278 -0.5234 -0.4074 -0.9591
 3259TIP3    H231193   6.397   2.037  12.228 -0.4637  2.1209  1.6433
 3260TIP3   OH231194   3.013   6.445  13.602 -0.0055  0.2098 -0.4094
 3260TIP3    H131195   2.956   6.444  13.679 -1.0086 -0.3348 -1.1498
 3260TIP3    H231196   3.072   6.371  13.615 -1.5773 -1.2059 -1.1922
 3261TIP3   OH231197   4.921   0.008   5.370  0.1698 -0.5497 -0.6331
 3261TIP3    H131198   4.998   0.039   5.322  0.7588 -0.2587  0.4761
 3261TIP3    H231199   4.923   0.057   5.452 -0.0611 -2.0093  0.2684
 3262TIP3   OH231200   2.148   3.070  14.729  0.2292  0.5742 -0.0529
 3262TIP3    H131201   2.154   3.046  14.636 -0.8807 -0.3582  0.1031
 3262TIP3    H231202   2.164   3.164  14.730  1.5281  0.3851 -1.0412
 3263TIP3   OH231203   1.274   5.384   5.475  0.0345  0.3879 -0.2623
 3263TIP3    H131204   1.199   5.414   5.526 -0.2095 -0.1655 -0.2925
 3263TIP3    H231205   1.340   5.452   5.487 -0.0143  0.2422  0.7954
 3264TIP3   OH231206   5.587   5.681   1.411  0.3533  0.2390  0.1369
 3264TIP3    H131207   5.617   5.607   1.463  0.0992 -0.9101 -1.3096
 3264TIP3    H231208   5.663   5.706   1.359 -0.0910 -0.2270 -0.7483
 3265TIP3   OH231209   0.274   0.961   4.862 -0.2579  0.4437  0.4430
 3265TIP3    H131210   0.299   0.875   4.894  2.0216  0.0215 -2.2762
 3265TIP3    H231211   0.228   0.944   4.780 -1.6175  1.7326  0.9159
 3266TIP3   OH231212   1.232   2.804  13.492  0.5159 -0.1418 -0.2225
 3266TIP3    H131213   1.216   2.797  13.586 -1.0822  1.5953 -0.3477
 3266TIP3    H231214   1.296   2.735  13.474  0.1172 -1.1238  1.9533
 3267TIP3   OH231215   0.454   2.509  11.336 -0.4816  0.3097 -0.2968
 3267TIP3    H131216   0.521   2.577  11.343 -2.2960  2.0578  0.6784
 3267TIP3    H231217   0.450   2.489  11.242  0.6428  0.9636 -0.4948
 3268TIP3   OH231218   0.944   0.491  14.386 -0.6629  0.2666 -0.3036
 3268TIP3    H131219   0.902   0.432  14.324 -0.4280  1.2816 -1.4490
 3268TIP3    H231220   0.996   0.434  14.442  0.4115 -0.5360 -2.0744
 3269TIP3   OH231221   5.815   1.772  13.849  0.1160 -0.5117  0.4841
 3269TIP3    H131222   5.822   1.845  13.910  0.1331  1.8380 -2.2690
 3269TIP3    H231223   5.725   1.742  13.858 -0.5098  1.2260  0.0839
 3270TIP3   OH231224   1.329   4.322   1.995  0.4703 -0.2094  0.3353
 3270TIP3    H131225   1.292   4.390   2.053  2.2720  0.6590  0.4818
 3270TIP3    H231226   1.254   4.292   1.944 -0.4657  1.5140  0.6460
 3271TIP3   OH231227   0.261   4.750   4.733 -0.1471  0.0203  0.6968
 3271TIP3    H131228   0.216   4.668   4.752  0.7264 -0.9347 -1.2088
 3271TIP3    H231229   0.351   4.723   4.712 -0.1170  1.3645 -0.9415
 3272TIP3   OH231230   0.859   1.874  14.798  0.5113  0.6530 -0.0710
 3272TIP3    H131231   0.889   1.962  14.776 -1.4460  1.4230  0.2367
 3272TIP3    H231232   0.795   1.853  14.730 -1.4998  0.8371  1.7015
 3273TIP3   OH231233   2.717   3.195  12.038 -0.1636  0.1426 -0.7177
 3273TIP3    H131234   2.658   3.137  11.989 -0.5775 -0.3771  0.3813
 3273TIP3    H231235   2.664   3.273  12.055 -0.5602 -0.3333  0.2890
 3274TIP3   OH231236   6.141   4.653  14.081 -0.6628  0.3735  0.7840
 3274TIP3    H131237   6.215   4.699  14.041  0.2562 -0.7879  1.1127
 3274TIP3    H231238   6.068   4.715  14.077 -0.1887  0.8341 -1.3263
 3275TIP3   OH231239   0.185   5.398   4.336 -0.0895 -0.2104 -0.0330
 3275TIP3    H131240   0.214   5.343   4.409  0.3274  0.6001  0.4137
 3275TIP3    H231241   0.235   5.479   4.346 -1.1040  0.4574 -0.3740
 3276TIP3   OH231242   3.175   6.429  14.890  0.9163 -0.1098 -0.1141
 3276TIP3    H131243   3.146   6.352  14.842 -0.7469 -0.3139  1.1937
 3276TIP3    H231244   3.253   6.400  14.937  0.2166 -1.0365  0.4832
 3277TIP3   OH231245   3.968   2.899  11.095  0.1875  0.4519  0.0860
 3277TIP3    H131246   3.949   2.987  11.128 -0.5361  0.6072 -0.6949
 3277TIP3    H231247   3.967   2.909  11.000 -2.8839 -0.9596 -0.1003
 3278TIP3   OH231248   0.168   3.214  15.171  0.0685 -0.4913 -0.1648
 3278TIP3    H131249   0.254   3.199  15.210 -1.5182 -1.4206  3.1278
 3278TIP3    H231250   0.148   3.306  15.192  0.3147 -0.2338 -1.0513
 3279TIP3   OH231251   1.101   2.430  13.370 -0.0931 -0.1459  0.4570
 3279TIP3    H131252   1.152   2.464  13.296 -1.7870 -2.7747 -2.0372
 3279TIP3    H231253   1.037   2.499  13.388  2.1967  1.8155  1.5532
 3280TIP3   OH231254   4.321   0.212   4.557 -0.0542 -0.0266 -0.2636
 3280TIP3    H131255   4.337   0.192   4.649  0.1149  1.4265  0.0342
 3280TIP3    H231256   4.372   0.147   4.509 -1.7702 -2.1214  0.6362
 3281TIP3   OH231257   6.179   3.606   2.378  0.1461 -0.5235 -0.0009
 3281TIP3    H131258   6.110   3.637   2.438  0.5686 -2.4157  1.5100
 3281TIP3    H231259   6.134   3.595   2.294 -0.8386  0.5507  0.3701
 3282TIP3   OH231260   1.286   2.567   3.939  0.2885  0.3925 -0.2165
 3282TIP3    H131261   1.224   2.575   3.866 -0.5113  1.5265  0.5662
 3282TIP3    H231262   1.299   2.657   3.968 -0.8920 -0.1963  2.2668
 3283TIP3   OH231263   0.387   6.739   6.412 -0.3145 -0.6017 -0.2485
 3283TIP3    H131264   0.441   6.782   6.345 -1.9644  0.5678 -0.8641
 3283TIP3    H231265   0.450   6.701   6.473  1.2088 -0.0628 -1.4558
 3284TIP3   OH231266   4.814   0.327  13.501 -0.1976 -0.2906 -0.1532
 3284TIP3    H131267   4.770   0.340  13.417  1.1523  2.9325 -0.4377
 3284TIP3    H231268   4.751   0.358  13.566 -1.0151 -2.2391  0.0099
 3285TIP3   OH231269   0.744   0.250  11.880 -0.0038 -0.3270 -0.7379
 3285TIP3    H131270   0.803   0.225  11.808  2.1437  0.8649  0.5616
 3285TIP3    H231271   0.788   0.323  11.923 -1.2629 -1.0202  1.8088
 3286TIP3   OH231272   1.355   6.337  11.023  0.0324 -0.0855  0.3682
 3286TIP3    H131273   1.440   6.364  11.058 -0.0270 -2.4318  2.4917
 3286TIP3    H231274   1.367   6.245  11.000 -2.1027 -0.6203  1.2931
 3287TIP3   OH231275   0.368   3.837  13.461 -0.1173 -0.1761  0.2724
 3287TIP3    H131276   0.339   3.924  13.490 -0.1516 -0.8824  2.5003
 3287TIP3    H231277   0.323   3.823  13.378 -0.5768  1.6843  0.1845
 3288TIP3   OH231278   1.619   6.217   1.698 -0.1263 -0.4548 -0.3604
 3288TIP3    H131279   1.685   6.160   1.736  1.1806 -0.1381 -2.0734
 3288TIP3    H231280   1.535   6.184   1.732  0.8047 -1.7119  0.7403
 3289TIP3   OH231281   0.860   4.512   6.197 -0.0912 -0.3730 -0.3434
 3289TIP3    H131282   0.912   4.590   6.181  0.6334 -0.1239  2.8673
 3289TIP3    H231283   0.924   4.444   6.218 -0.9083 -0.8497  0.6343
 3290TIP3   OH231284   1.284   1.665  16.756  0.8240 -0.1646  0.0527
 3290TIP3    H131285   1.298   1.621  16.840 -0.5651  0.2310  0.5035
 3290TIP3    H231286   1.370   1.664  16.714  1.2642 -1.4534  0.9466
 3291TIP3   OH231287   5.828   4.726   2.796  0.2308  0.3905  0.2738
 3291TIP3    H131288   5.814   4.775   2.877  1.2639 -0.0248  0.7220
 3291TIP3    H231289   5.820   4.634   2.822  1.7512  0.2168  0.1598
 3292TIP3   OH231290   0.508   0.314  17.145  0.3920 -0.6159  0.5609
 3292TIP3    H131291   0.475   0.389  17.194  0.0462 -0.6659  0.4077
 3292TIP3    H231292   0.589   0.289  17.190  0.9019  0.3017  0.1613
 3293TIP3   OH231293   1.187   4.074   5.285 -0.7225 -0.2087  0.1963
 3293TIP3    H131294   1.176   4.102   5.194  1.3857  0.5574  0.1671
 3293TIP3    H231295   1.166   3.980   5.283  2.0013 -0.8562 -1.6544
 3294TIP3   OH231296   5.868   2.327  15.929 -0.2763 -0.0063 -0.3659
 3294TIP3    H131297   5.822   2.402  15.965  0.9439  0.5467  0.0964
 3294TIP3    H231298   5.809   2.291  15.864 -1.2352  0.8400  0.0256
 3295TIP3   OH231299   0.034   2.454  11.293 -0.0431 -0.0391 -0.3116
 3295TIP3    H131300  -0.035   2.395  11.262 -0.4076  0.7110 -0.9636
 3295TIP3    H231301   0.086   2.472  11.215  0.1646  0.3559 -0.0798
 3296TIP3   OH231302   2.713   1.658  16.346  0.2713 -0.2172  0.0161
 3296TIP3    H131303   2.645   1.599  16.313  0.0293  0.1076 -0.0717
 3296TIP3    H231304   2.746   1.615  16.425 -0.1072 -0.3290  0.1169
 3297TIP3   OH231305   4.729   0.184  11.627 -0.2290  0.1606 -0.1452
 3297TIP3    H131306   4.649   0.198  11.576  0.0933  0.9544 -0.4404
 3297TIP3    H231307   4.716   0.237  11.706 -0.4227 -0.5033  0.2682
 3298TIP3   OH231308   1.131   4.172  16.896 -0.0552  0.1690  0.0975
 3298TIP3    H131309   1.044   4.207  16.878  0.9408  2.4574 -0.4185
 3298TIP3    H231310   1.184   4.248  16.918  2.2996 -0.9628 -1.4403
 3299TIP3   OH231311   0.558   6.337  16.053  0.3323  0.4049 -0.0572
 3299TIP3    H131312   0.470   6.376  16.063  0.3883  0.3320  0.7557
 3299TIP3    H231313   0.617   6.403  16.090  0.8082  1.2554 -2.2528
 3300TIP3   OH231314   4.204   0.991  15.507  0.2766  0.2490 -0.7275
 3300TIP3    H131315   4.148   0.962  15.579 -0.7584  0.9824 -1.2250
 3300TIP3    H231316   4.293   0.977  15.539 -0.1446  1.5753  1.1484
 3301TIP3   OH231317   4.342   2.353  11.027  0.0717  0.4411  0.4960
 3301TIP3    H131318   4.247   2.358  11.016  0.2052 -0.3354 -1.3418
 3301TIP3    H231319   4.356   2.275  11.081 -0.3326  0.2434  0.3218
 3302TIP3   OH231320   0.489   5.144  12.336 -0.2210  0.2285 -0.1998
 3302TIP3    H131321   0.479   5.185  12.251 -1.1238  1.3776  0.4423
 3302TIP3    H231322   0.400   5.140  12.372 -0.1810 -2.4296 -0.2915
 3303TIP3   OH231323   5.685   0.557   5.365  0.5142  0.2075  0.1643
 3303TIP3    H131324   5.671   0.632   5.422  1.3006  0.2621  0.2909
 3303TIP3    H231325   5.679   0.594   5.276 -0.0269  0.2434  0.2104
 3304TIP3   OH231326   1.845   1.310  16.671  0.4691  0.3569  0.7496
 3304TIP3    H131327   1.937   1.335  16.671  0.7842 -0.5532 -2.1708
 3304TIP3    H231328   1.845   1.220  16.636 -1.6354  0.9584 -0.8991
 3305TIP3   OH231329   5.127   1.605  11.545  0.0008 -0.2226  0.1015
 3305TIP3    H131330   5.131   1.601  11.449  0.1080 -0.8757  0.1323
 3305TIP3    H231331   5.187   1.537  11.574 -0.7511 -0.6667  0.6312
 3306TIP3   OH231332   6.393   4.366   2.576  0.3535  0.2352  0.4129
 3306TIP3    H131333   6.356   4.429   2.638  0.0967 -0.1174  0.6165
 3306TIP3    H231334   6.488   4.383   2.578  0.2102  1.1149 -0.0862
 3307TIP3   OH231335   3.607   0.969  13.356 -0.3021 -0.6260 -0.0589
 3307TIP3    H131336   3.599   0.931  13.444 -0.4657 -0.0858  0.1648
 3307TIP3    H231337   3.572   0.903  13.297 -0.7637 -0.7378  0.3420
 3308TIP3   OH231338   5.772   3.137  14.916  0.7472  0.7806  0.5849
 3308TIP3    H131339   5.807   3.049  14.900 -0.3982  0.4796 -0.3671
 3308TIP3    H231340   5.794   3.155  15.007  3.0414  0.4699  0.1410
 3309TIP3   OH231341   6.396   3.244  10.976 -0.1834  0.0142  0.0993
 3309TIP3    H131342   6.323   3.226  10.917 -0.8677 -0.4349  1.0769
 3309TIP3    H231343   6.441   3.160  10.985  0.9001  0.4475 -1.0780
 3310TIP3   OH231344   3.823   1.050   0.488 -0.3254 -0.2173  0.0602
 3310TIP3    H131345   3.846   0.958   0.475 -0.6155 -0.4038  0.8068
 3310TIP3    H231346   3.906   1.097   0.487  0.1867 -0.9319  3.1336
 3311TIP3   OH231347   2.305   1.114  15.137  0.5055  0.1474  0.0510
 3311TIP3    H131348   2.333   1.205  15.145 -0.2368  0.5575 -1.7557
 3311TIP3    H231349   2.252   1.099  15.215  1.5259  0.9339  0.9022
 3312TIP3   OH231350   1.967   0.993   5.539  0.4681 -0.8472  0.4830
 3312TIP3    H131351   1.960   1.086   5.559  2.7816 -0.3689 -0.7086
 3312TIP3    H231352   2.008   0.954   5.616 -0.0950 -0.8028  0.8047
 3313TIP3   OH231353   0.197   3.345  11.062  0.3236 -0.2847  0.5858
 3313TIP3    H131354   0.142   3.420  11.086  0.2060  0.3122 -1.4712
 3313TIP3    H231355   0.136   3.283  11.023  0.8881 -0.2182 -0.4071
 3314TIP3   OH231356   4.146   3.305  11.652 -0.1262 -0.7042 -0.1204
 3314TIP3    H131357   4.214   3.254  11.607 -0.5101 -0.0003 -1.5438
 3314TIP3    H231358   4.139   3.385  11.600 -1.5811 -0.4849  0.4003
 3315TIP3   OH231359   0.688   3.100   5.624  0.3846 -0.5364  0.6414
 3315TIP3    H131360   0.657   3.123   5.536  1.7266  2.7789  0.9553
 3315TIP3    H231361   0.608   3.084   5.674 -0.5390  0.8618 -0.3595
 3316TIP3   OH231362   6.110   0.840  15.670  0.3447 -0.3075  0.1446
 3316TIP3    H131363   6.202   0.831  15.647  0.4402 -1.1357  0.8335
 3316TIP3    H231364   6.088   0.930  15.646  1.9209  0.6265  2.0056
 3317TIP3   OH231365   2.029   2.754   2.452 -0.3076 -0.4053 -0.1291
 3317TIP3    H131366   2.111   2.784   2.413  1.1970 -1.6285  2.0102
 3317TIP3    H231367   1.968   2.749   2.378  1.6179  0.1993 -1.8063
 3318TIP3   OH231368   0.785   5.743   3.059 -0.5162  0.5279 -0.0231
 3318TIP3    H131369   0.694   5.739   3.088 -0.6563  0.4204 -0.4675
 3318TIP3    H231370   0.783   5.797   2.979 -0.1330  0.8525  0.1817
 3319TIP3   OH231371   1.072   3.224  14.421  0.0513 -0.1472 -0.1089
 3319TIP3    H131372   1.023   3.281  14.363  0.1556 -1.0820 -1.1234
 3319TIP3    H231373   1.005   3.177  14.471 -0.0516 -0.2142 -0.3129
 3320TIP3   OH231374   4.068   4.498   5.789 -0.5486  0.3073  0.1716
 3320TIP3    H131375   3.973   4.492   5.803 -0.4481  0.1402  0.7694
 3320TIP3    H231376   4.106   4.449   5.862 -0.0724 -1.7398 -1.3990
 3321TIP3   OH231377   2.067   5.519  15.086  0.4969 -0.8365 -0.4604
 3321TIP3    H131378   2.081   5.503  15.180  2.3726  3.6856  0.1705
 3321TIP3    H231379   1.972   5.522  15.077  0.2831 -1.3949  1.2918
 3322TIP3   OH231380   1.265   2.097  12.776  0.5054  0.1602  0.6395
 3322TIP3    H131381   1.185   2.078  12.728  0.7784 -0.5347  0.4501
 3322TIP3    H231382   1.267   2.031  12.846 -0.6264  2.0375  2.5119
 3323TIP3   OH231383   5.596   5.588   0.570  0.3770  0.2943  0.1504
 3323TIP3    H131384   5.508   5.587   0.606  0.2503  2.0978 -0.0304
 3323TIP3    H231385   5.653   5.568   0.644 -0.0814  0.8948  0.6709
 3324TIP3   OH231386   5.972   5.793   5.531 -0.4725 -0.0221 -0.3186
 3324TIP3    H131387   5.913   5.729   5.571 -2.4918  0.0620 -2.9796
 3324TIP3    H231388   5.961   5.872   5.583 -0.5748 -0.8363  0.9098
 3325TIP3   OH231389   1.657   1.929  12.221  0.4109 -0.2992  0.0871
 3325TIP3    H131390   1.688   1.993  12.157  0.7002  0.8489  1.3359
 3325TIP3    H231391   1.574   1.965  12.253  0.7108 -0.4019  0.9952
 3326TIP3   OH231392   4.092   2.952   0.663 -0.2870 -0.0709  0.3721
 3326TIP3    H131393   4.129   3.040   0.663 -0.7558  0.1380 -1.0988
 3326TIP3    H231394   4.092   2.925   0.571 -0.9165 -1.2740  0.7068
 3327TIP3   OH231395   3.571   3.027  14.210  0.0180  0.7878 -0.7286
 3327TIP3    H131396   3.522   3.077  14.275  0.7107  0.8405 -0.2386
 3327TIP3    H231397   3.550   3.068  14.126 -0.2595  1.2198 -0.4484
 3328TIP3   OH231398   2.463   0.735  12.165  0.0316 -0.1249  0.3200
 3328TIP3    H131399   2.421   0.700  12.087  1.3912 -0.5087 -0.2526
 3328TIP3    H231400   2.544   0.685  12.174  1.0162  1.4655  0.6420
 3329TIP3   OH231401   6.097   3.331   0.836  0.2474 -0.0076  0.3925
 3329TIP3    H131402   6.062   3.307   0.751  3.1166  0.2696 -0.9073
 3329TIP3    H231403   6.183   3.288   0.840  0.8021  1.2238  2.4959
 3330TIP3   OH231404   0.788   1.482   4.930 -0.2764 -0.0010  0.5004
 3330TIP3    H131405   0.819   1.470   4.840  2.2483 -0.6654  1.4152
 3330TIP3    H231406   0.819   1.570   4.954 -0.1200 -0.2020  1.0381
 3331TIP3   OH231407   5.574   5.705   2.530  0.6519  0.0356 -0.2768
 3331TIP3    H131408   5.606   5.626   2.487  0.8663  0.0099 -0.0702
 3331TIP3    H231409   5.521   5.672   2.603  1.0302  0.0859  0.0193
 3332TIP3   OH231410   5.767   5.249  12.741  0.5933  0.2172 -0.1970
 3332TIP3    H131411   5.819   5.306  12.684  0.3984 -0.4674 -1.0693
 3332TIP3    H231412   5.775   5.162  12.702 -0.0072 -0.1572  0.5025
 3333TIP3   OH231413   1.977   5.132  15.875 -0.6009  0.1387 -0.1030
 3333TIP3    H131414   1.965   5.145  15.969  1.7404  1.8406  0.0016
 3333TIP3    H231415   1.952   5.215  15.836 -0.3274 -0.1370 -0.8665
 3334TIP3   OH231416   1.638   4.014  14.183  0.0717  0.2203 -0.1026
 3334TIP3    H131417   1.674   4.019  14.095 -0.9789  1.5336 -0.4754
 3334TIP3    H231418   1.654   4.100  14.221  1.7012 -0.7437  1.4821
 3335TIP3   OH231419   5.837   1.174   1.300 -0.2240  0.1936  0.3579
 3335TIP3    H131420   5.814   1.255   1.345  0.8936  0.1992  0.9451
 3335TIP3    H231421   5.907   1.136   1.354 -0.3579 -0.8754 -0.2121
 3336TIP3   OH231422   6.041   1.714  16.550 -0.3238 -0.2126 -0.1599
 3336TIP3    H131423   5.999   1.767  16.618 -0.0428  0.7548 -0.7326
 3336TIP3    H231424   6.130   1.748  16.545  0.7206 -2.5821  1.3900
 3337TIP3   OH231425   4.482   4.664   1.716  0.1424 -0.3327  0.3148
 3337TIP3    H131426   4.527   4.582   1.734  2.6471  0.6589 -1.2776
 3337TIP3    H231427   4.460   4.660   1.623 -1.6484 -0.0956  0.7039
 3338TIP3   OH231428   3.827   4.743  11.501 -0.1472 -0.0909 -0.2078
 3338TIP3    H131429   3.797   4.693  11.425 -0.9044  0.1150 -0.0506
 3338TIP3    H231430   3.890   4.806  11.465  1.8893 -2.0610 -0.2066
 3339TIP3   OH231431   3.018   2.863  10.893 -0.4106 -0.3665 -0.0154
 3339TIP3    H131432   2.985   2.837  10.807 -1.1620  2.1044 -0.5364
 3339TIP3    H231433   2.947   2.842  10.953 -0.9069  0.1826 -0.3926
 3340TIP3   OH231434   5.214   2.262  13.683 -0.0455 -0.5228 -0.0905
 3340TIP3    H131435   5.193   2.251  13.590 -0.7702 -0.1564  0.0243
 3340TIP3    H231436   5.307   2.284  13.684 -0.2144  0.2641 -0.7955
 3341TIP3   OH231437   3.282   6.767   5.384  0.4198 -0.9104  0.0628
 3341TIP3    H131438   3.263   6.674   5.396 -0.8240 -0.5764  0.7839
 3341TIP3    H231439   3.246   6.809   5.462  2.4781  0.0025  0.5706
 3342TIP3   OH231440   2.617   3.596  14.520  0.2740  0.1071  0.6980
 3342TIP3    H131441   2.528   3.617  14.491  0.8839  2.1776  0.2347
 3342TIP3    H231442   2.607   3.578  14.614 -1.0174 -2.3108  0.1550
 3343TIP3   OH231443   0.774   2.509  16.503  0.4475 -0.1158 -0.0138
 3343TIP3    H131444   0.852   2.472  16.544  0.0122  0.5180  1.3985
 3343TIP3    H231445   0.775   2.474  16.413  1.0906 -1.9824  0.6955
 3344TIP3   OH231446   6.087   6.045  17.161 -0.9595  0.5974 -0.1684
 3344TIP3    H131447   6.119   6.131  17.132 -0.5022  0.9255  1.2599
 3344TIP3    H231448   6.006   6.065  17.210 -1.7394  0.0532 -1.2213
 3345TIP3   OH231449   4.978   5.753  10.923  0.4034  0.0490  0.1529
 3345TIP3    H131450   4.903   5.695  10.915  0.5929 -0.4215  1.6120
 3345TIP3    H231451   4.940   5.841  10.928  0.0030 -0.1125 -0.0599
 3346TIP3   OH231452   0.944   3.746   2.358 -0.2775  0.7471 -0.1096
 3346TIP3    H131453   0.850   3.733   2.353  0.1642 -2.8387 -0.5270
 3346TIP3    H231454   0.970   3.704   2.440  1.1743 -0.0000 -0.9236
 3347TIP3   OH231455   2.487   6.329  14.448 -0.0769  0.4057  0.5038
 3347TIP3    H131456   2.423   6.346  14.379  0.4883 -0.4694 -0.2385
 3347TIP3    H231457   2.540   6.256  14.415  0.4547  0.2467  1.6830
 3348TIP3   OH231458   0.707   3.915   5.571  0.2336 -0.7053 -0.3310
 3348TIP3    H131459   0.688   3.972   5.645 -1.7266  0.0073 -1.3475
 3348TIP3    H231460   0.797   3.937   5.547 -0.2501  1.5194 -0.2707
 3349TIP3   OH231461   3.408   1.536   2.676  0.4604 -0.3903 -0.4119
 3349TIP3    H131462   3.415   1.522   2.581 -0.9373 -0.3957 -0.5363
 3349TIP3    H231463   3.485   1.587   2.699  1.2445 -1.1085 -1.4144
 3350TIP3   OH231464   6.230   4.251  13.982 -0.2776  0.2054  0.4088
 3350TIP3    H131465   6.242   4.193  13.907  0.1043  0.4602  0.2691
 3350TIP3    H231466   6.255   4.198  14.057  0.7813  0.4147  0.2128
 3351TIP3   OH231467   5.064   5.999  13.703  0.5194 -0.4890  0.1146
 3351TIP3    H131468   5.075   6.078  13.651 -0.5448 -0.7759 -0.5542
 3351TIP3    H231469   5.086   6.025  13.792 -0.6067  0.7602  0.0345
 3352TIP3   OH231470   3.585   3.432  12.644  0.4291 -0.0873  0.0533
 3352TIP3    H131471   3.576   3.519  12.682 -1.4569 -0.1572 -0.1839
 3352TIP3    H231472   3.660   3.439  12.586 -0.1498  1.6007 -0.5209
 3353TIP3   OH231473   4.073   5.582   4.093 -0.2039  0.4453 -0.2384
 3353TIP3    H131474   4.033   5.645   4.034 -0.1909 -0.0298 -0.7625
 3353TIP3    H231475   4.167   5.598   4.085 -0.1982  0.3301 -0.4075
 3354TIP3   OH231476   3.835   5.648   1.606  0.2773  0.5096 -0.1324
 3354TIP3    H131477   3.775   5.580   1.575  0.7137 -0.0057  0.1385
 3354TIP3    H231478   3.887   5.604   1.674  0.3200  1.2171  0.2904
 3355TIP3   OH231479   4.925   4.729   1.157  0.3667 -0.5826 -0.2722
 3355TIP3    H131480   4.953   4.782   1.231  0.6113  0.1948 -0.9087
 3355TIP3    H231481   4.971   4.646   1.167 -0.2316 -0.7859  0.8858
 3356TIP3   OH231482   4.601   2.440  14.271 -0.5503  0.1744  0.1757
 3356TIP3    H131483   4.513   2.471  14.295 -0.0366  0.8261  1.2515
 3356TIP3    H231484   4.658   2.477  14.338  0.6527  0.3521 -0.9376
 3357TIP3   OH231485   3.524   2.414   5.612  0.4708  0.2263 -0.2849
 3357TIP3    H131486   3.529   2.510   5.611  0.3943  0.2728  1.7846
 3357TIP3    H231487   3.600   2.386   5.662  0.1869 -0.7800 -0.3987
 3358TIP3   OH231488   1.338   1.757  12.168 -0.6072 -0.1837  0.4083
 3358TIP3    H131489   1.390   1.679  12.148 -0.6106 -0.3800  1.1570
 3358TIP3    H231490   1.318   1.749  12.261 -0.7947  0.6059  0.4339
 3359TIP3   OH231491   0.426   0.417   6.512 -0.0012  0.1755 -0.5439
 3359TIP3    H131492   0.424   0.501   6.466  2.0032 -0.2965 -1.5057
 3359TIP3    H231493   0.374   0.358   6.458  2.2794 -0.3554 -2.2176
 3360TIP3   OH231494   3.809   2.833  11.713  0.6391 -0.0815 -0.2863
 3360TIP3    H131495   3.843   2.799  11.630  1.0112  1.0404 -0.5988
 3360TIP3    H231496   3.726   2.874  11.690 -0.3769 -1.7924  0.2836
 3361TIP3   OH231497   3.517   4.727   2.849 -0.1613  0.2886 -0.2946
 3361TIP3    H131498   3.534   4.762   2.761 -0.0334  0.9553 -0.0091
 3361TIP3    H231499   3.431   4.685   2.842 -0.0056  0.0428 -0.8221
 3362TIP3   OH231500   0.325   2.830  13.161 -0.1334 -0.7747 -0.1537
 3362TIP3    H131501   0.291   2.785  13.083 -0.2781  2.4239 -2.0086
 3362TIP3    H231502   0.416   2.850  13.140  0.1674 -0.9028  0.9798
 3363TIP3   OH231503   5.708   3.161  13.586 -0.1706  0.1404  0.3245
 3363TIP3    H131504   5.792   3.118  13.569  0.4858  1.6190 -0.2849
 3363TIP3    H231505   5.644   3.090  13.585  0.8487 -0.7851 -0.9464
 3364TIP3   OH231506   3.835   5.635   1.084  0.2974 -0.2471 -0.0268
 3364TIP3    H131507   3.826   5.586   1.002  1.7840 -0.9878  0.2290
 3364TIP3    H231508   3.855   5.725   1.057  0.9819 -0.5306 -0.4961
 3365TIP3   OH231509   2.891   4.162  13.270 -0.1497  0.4872  0.6918
 3365TIP3    H131510   2.920   4.088  13.218  0.0076  1.0392 -0.0102
 3365TIP3    H231511   2.911   4.239  13.217  0.1051  1.0648  1.6090
 3366TIP3   OH231512   6.457   5.208   3.017  0.3255  0.3799 -0.1358
 3366TIP3    H131513   6.448   5.173   2.928  0.4560  1.3018 -0.5200
 3366TIP3    H231514   6.500   5.293   3.005  0.0310  0.6645  0.7805
 3367TIP3   OH231515   5.631   0.978   3.609  0.3732 -0.5201  0.0007
 3367TIP3    H131516   5.585   0.894   3.610 -0.5941  0.0097  1.3578
 3367TIP3    H231517   5.563   1.042   3.589  0.4962  0.2697  1.9969
 3368TIP3   OH231518   6.319   2.955  12.127 -0.3979 -0.1564  0.4665
 3368TIP3    H131519   6.353   3.007  12.200 -0.5898 -0.7547  0.9766
 3368TIP3    H231520   6.386   2.888  12.112  0.5528  1.1167 -1.1516
 3369TIP3   OH231521   3.298   0.098  17.030 -0.4163 -0.1729  0.2841
 3369TIP3    H131522   3.339   0.151  17.098 -0.7162 -0.2644  0.5383
 3369TIP3    H231523   3.245   0.160  16.980  0.0463 -0.0499 -0.0607
 3370TIP3   OH231524   0.991   1.735   3.589 -0.1364  0.1949 -0.1647
 3370TIP3    H131525   1.032   1.752   3.504  0.4433 -0.0501  0.0691
 3370TIP3    H231526   0.927   1.805   3.599 -0.1867  0.2391 -0.7953
 3371TIP3   OH231527   0.967   2.905  16.999 -0.9145  0.4414  0.2837
 3371TIP3    H131528   0.948   2.855  17.078 -0.1706  0.3677  0.4214
 3371TIP3    H231529   1.041   2.859  16.959 -0.7582  0.9590 -0.0251
 3372TIP3   OH231530   3.546   5.762   4.819  0.9975  0.0278 -0.4637
 3372TIP3    H131531   3.499   5.816   4.883  1.2460 -0.4111  0.0984
 3372TIP3    H231532   3.611   5.820   4.782  0.2227  0.5522 -1.0135
 3373TIP3   OH231533   5.864   4.547   3.812 -0.2027 -0.6139 -0.5972
 3373TIP3    H131534   5.776   4.556   3.777  0.4428  0.8377 -1.9410
 3373TIP3    H231535   5.885   4.634   3.846  0.2184 -1.2968  0.9427
 3374TIP3   OH231536   2.908   6.636   5.632 -0.2722  1.0878 -0.1414
 3374TIP3    H131537   2.868   6.716   5.667  0.2662  1.7765 -1.0532
 3374TIP3    H231538   2.998   6.638   5.665 -0.8887 -0.3395  1.7184
 3375TIP3   OH231539   4.320   0.005   3.721 -0.0624 -0.0051  0.8038
 3375TIP3    H131540   4.320  -0.007   3.816  0.1207 -2.7821  0.5103
 3375TIP3    H231541   4.376  -0.066   3.689 -3.1315 -1.4085 -1.6172
 3376TIP3   OH231542   5.430   1.535   1.012  0.3344 -0.3070  0.5941
 3376TIP3    H131543   5.497   1.603   1.003  1.2390 -1.2739 -0.0613
 3376TIP3    H231544   5.477   1.459   1.045 -0.4268 -1.0036  0.1067
 3377TIP3   OH231545   4.851   4.808  15.745 -0.0864 -0.3509 -0.6741
 3377TIP3    H131546   4.775   4.770  15.700 -1.3386 -0.0805  1.1622
 3377TIP3    H231547   4.831   4.901  15.752  0.6894 -0.1792 -0.6995
 3378TIP3   OH231548   3.411   5.386   0.952  0.0576 -0.1686  0.2893
 3378TIP3    H131549   3.410   5.449   1.023 -0.1019  0.0904  0.0569
 3378TIP3    H231550   3.502   5.385   0.922 -0.5264  2.1631 -1.6788
 3379TIP3   OH231551   0.335   1.182  14.470  0.1655  0.6972  0.0019
 3379TIP3    H131552   0.401   1.164  14.404 -0.1369  1.3195 -0.4842
 3379TIP3    H231553   0.342   1.110  14.532  0.2998 -0.0168 -0.8312
 3380TIP3   OH231554   2.623   3.547  14.806 -0.2985  0.1842  0.2373
 3380TIP3    H131555   2.542   3.598  14.815 -1.0544 -0.9746  0.0452
 3380TIP3    H231556   2.648   3.525  14.896 -0.3282  0.3428  0.2842
 3381TIP3   OH231557   4.850   2.264  13.674  0.4041  0.2927 -0.3894
 3381TIP3    H131558   4.764   2.245  13.637 -0.3498 -1.1851  2.0134
 3381TIP3    H231559   4.887   2.178  13.694  1.7401  0.9801  0.1501
 3382TIP3   OH231560   3.972   0.361  11.955  0.3039 -1.0497  0.2975
 3382TIP3    H131561   4.055   0.362  12.004 -0.2604 -2.5611  1.3332
 3382TIP3    H231562   3.964   0.271  11.925 -0.4788 -0.6603 -0.6616
 3383TIP3   OH231563   2.084   0.925   1.190 -0.4511  0.4163 -0.2830
 3383TIP3    H131564   2.129   0.874   1.123 -2.2046 -1.3540 -0.1634
 3383TIP3    H231565   2.144   0.924   1.265 -0.9057 -2.3554  0.0623
 3384TIP3   OH231566   5.972   4.577  17.084 -0.2221  0.6205 -0.9403
 3384TIP3    H131567   5.931   4.514  17.024 -0.4694  0.4921 -0.6381
 3384TIP3    H231568   6.027   4.523  17.140 -2.1524  0.3628  0.7909
 3385TIP3   OH231569   3.649   4.426   3.788  0.1849 -0.8471 -0.7124
 3385TIP3    H131570   3.652   4.378   3.870 -2.4106 -0.4710 -0.3679
 3385TIP3    H231571   3.559   4.417   3.757  0.1543  2.0217 -1.6782
 3386TIP3   OH231572   0.097   3.180   6.214  0.0761  0.5234 -0.2355
 3386TIP3    H131573   0.037   3.167   6.287 -0.5881  0.2632 -0.8177
 3386TIP3    H231574   0.124   3.271   6.221  2.4362 -0.3154  2.1330
 3387TIP3   OH231575   0.398   2.420  12.071 -0.5687  0.5241 -0.6980
 3387TIP3    H131576   0.478   2.468  12.094  0.2860 -0.2071 -2.0221
 3387TIP3    H231577   0.407   2.336  12.116 -0.8922  0.6708 -0.3562
 3388TIP3   OH231578   1.982   4.607  16.189 -0.2017 -0.0234 -0.3804
 3388TIP3    H131579   2.012   4.523  16.223  2.3290  0.2754 -1.8023
 3388TIP3    H231580   2.049   4.670  16.215 -1.5548  1.3939 -0.2265
 3389TIP3   OH231581   3.035   0.318   5.639  0.9209 -0.3026  0.1468
 3389TIP3    H131582   2.971   0.387   5.621  1.5819  0.0086 -1.1456
 3389TIP3    H231583   3.106   0.363   5.685  1.7376  0.1026 -1.4379
 3390TIP3   OH231584   3.198   6.217  11.758  0.3245  0.4539  0.0387
 3390TIP3    H131585   3.196   6.293  11.699  1.7538  0.9046  0.5613
 3390TIP3    H231586   3.219   6.254  11.844 -1.5148 -0.2289  0.8053
 3391TIP3   OH231587   0.715   6.780   1.644 -0.3162 -0.1697 -0.3661
 3391TIP3    H131588   0.694   6.812   1.556 -1.4119 -0.2545 -0.1503
 3391TIP3    H231589   0.645   6.815   1.699  1.2768  1.2927  0.7840
 3392TIP3   OH231590   2.778   0.438   0.208 -0.1688 -0.4179  0.3553
 3392TIP3    H131591   2.764   0.492   0.130  0.5671 -0.8569 -0.0886
 3392TIP3    H231592   2.828   0.494   0.268  1.9275 -1.0991 -0.7073
 3393TIP3   OH231593   0.298   5.004  12.029 -0.0208  0.0111 -0.0182
 3393TIP3    H131594   0.258   4.993  12.115 -0.2599 -0.0781 -0.1392
 3393TIP3    H231595   0.377   4.950  12.032 -0.5562 -0.7980 -0.1992
 3394TIP3   OH231596   6.605   3.776   2.598  0.0017  0.3879 -0.3320
 3394TIP3    H131597   6.549   3.773   2.521  0.3875  2.3428 -0.7240
 3394TIP3    H231598   6.657   3.856   2.586  0.8532  0.1079  1.3992
 3395TIP3   OH231599   1.395   3.859  13.358 -0.3611  0.1077 -0.3568
 3395TIP3    H131600   1.463   3.904  13.308 -0.5736  0.7943 -0.0353
 3395TIP3    H231601   1.441   3.789  13.404  0.5488  1.9498  1.6330
 3396TIP3   OH231602   4.271   2.682   0.554 -0.4769 -0.5174  0.1821
 3396TIP3    H131603   4.284   2.633   0.473  3.3670  0.8726 -0.1450
 3396TIP3    H231604   4.239   2.767   0.526 -0.7311 -0.5856  0.2623
 3397TIP3   OH231605   1.387   6.245   0.595 -0.1328 -0.4604  0.1404
 3397TIP3    H131606   1.464   6.260   0.650  2.2469  1.2637 -3.4934
 3397TIP3    H231607   1.376   6.326   0.546 -2.5238 -1.7262 -1.5295
 3398TIP3   OH231608   1.874   1.881   4.956  0.3616 -0.0280  0.1298
 3398TIP3    H131609   1.942   1.866   4.890 -1.0218  1.3847 -1.6532
 3398TIP3    H231610   1.841   1.794   4.977 -1.1781 -0.3161 -3.2153
 3399TIP3   OH231611   1.468   0.287  12.048 -0.0189  0.8141  0.2069
 3399TIP3    H131612   1.534   0.223  12.020 -1.5882 -0.6017 -0.3541
 3399TIP3    H231613   1.503   0.371  12.020  0.9464 -0.0353 -1.2399
 3400TIP3   OH231614   0.131   0.864   3.667 -0.3465 -0.7080  0.0547
 3400TIP3    H131615   0.067   0.897   3.604  0.2727 -0.2478 -0.3416
 3400TIP3    H231616   0.085   0.864   3.751  0.2427  3.1803  0.4705
 3401TIP3   OH231617   5.679   4.006  16.024  0.2931 -0.1409  0.3502
 3401TIP3    H131618   5.662   4.100  16.018  0.8930 -0.1440 -1.7677
 3401TIP3    H231619   5.634   3.968  15.949  0.1647 -1.5458  1.1128
 3402TIP3   OH231620   3.201   0.475   1.175  0.9764 -0.1621 -0.6298
 3402TIP3    H131621   3.161   0.454   1.259 -0.8751  2.2090 -0.8461
 3402TIP3    H231622   3.169   0.407   1.115  0.6461 -0.6815  0.1403
 3403TIP3   OH231623   6.764   6.764   6.251 -0.1787  0.0041  0.0712
 3403TIP3    H131624   6.764   6.829   6.181 -1.1371  0.8689  0.8705
 3403TIP3    H231625   6.813   6.804   6.322  0.3216 -0.6576  0.1085
 3404TIP3   OH231626   4.456   2.449  15.601  0.2640  0.2826  0.1538
 3404TIP3    H131627   4.484   2.510  15.533  0.5875 -1.1703 -1.0220
 3404TIP3    H231628   4.516   2.375  15.595  1.3497  0.8293  3.1133
 3405TIP3   OH231629   3.555   0.003  16.912  0.1445 -0.0278 -0.0119
 3405TIP3    H131630   3.621  -0.066  16.911  0.1480 -0.0275 -1.4482
 3405TIP3    H231631   3.499  -0.018  16.986  1.4689 -0.2988  0.9298
 3406TIP3   OH231632   5.098   5.574   0.009 -0.3863  0.1779 -0.0383
 3406TIP3    H131633   5.090   5.657   0.057  0.2209 -0.2474  0.8145
 3406TIP3    H231634   5.117   5.600  -0.081  0.7278  0.9516  0.4122
 3407TIP3   OH231635   2.612   5.354   2.924  0.3172 -0.1330  0.0653
 3407TIP3    H131636   2.694   5.313   2.951  0.4198  0.2406  0.3235
 3407TIP3    H231637   2.632   5.393   2.839  1.0107  1.7363  1.0387
 3408TIP3   OH231638   0.131   0.015  11.443 -0.1389 -0.1959  0.1583
 3408TIP3    H131639   0.189  -0.059  11.426 -1.5970 -1.8563  2.2063
 3408TIP3    H231640   0.052  -0.024  11.481 -1.0301  2.3775  1.0691
 3409TIP3   OH231641   3.152   4.401   1.892 -0.1699 -0.4587  0.1295
 3409TIP3    H131642   3.117   4.450   1.966  1.8770  0.4161  0.5461
 3409TIP3    H231643   3.108   4.439   1.816 -1.4512 -0.5973  0.7941
 3410TIP3   OH231644   2.709   1.945  15.692 -0.1744 -0.2669 -0.3765
 3410TIP3    H131645   2.792   1.986  15.669  0.5656 -1.8947 -0.6779
 3410TIP3    H231646   2.681   1.990  15.772  1.8684 -0.8512  0.7026
 3411TIP3   OH231647   2.528   2.848  14.336  0.2362  0.8658 -0.7343
 3411TIP3    H131648   2.522   2.752  14.333  0.0634  0.8607 -0.2333
 3411TIP3    H231649   2.449   2.879  14.293  0.2251  0.7850 -0.7718
 3412TIP3   OH231650   0.694   0.146   1.420  0.4937  0.0780 -0.0702
 3412TIP3    H131651   0.640   0.223   1.403  1.4416  0.5661 -0.9474
 3412TIP3    H231652   0.771   0.158   1.364  0.3337 -1.8619 -0.7370
 3413TIP3   OH231653   6.370   0.380  14.988 -0.0985 -0.1956 -0.1596
 3413TIP3    H131654   6.436   0.313  15.004 -0.6090 -0.2333  1.9304
 3413TIP3    H231655   6.418   0.463  14.994 -0.0510 -0.2605  0.4061
 3414TIP3   OH231656   2.498   1.601  15.421  0.6442  0.1259  0.2292
 3414TIP3    H131657   2.500   1.653  15.501  0.5236  0.4568  0.0217
 3414TIP3    H231658   2.405   1.597  15.397  0.7612  0.7509 -0.3531
 3415TIP3   OH231659   4.808   6.285   2.847  0.1885 -0.1534  0.1618
 3415TIP3    H131660   4.864   6.312   2.920  0.4192 -1.3120  0.4209
 3415TIP3    H231661   4.847   6.327   2.771  0.0747  0.8942  0.6693
 3416TIP3   OH231662   2.133   3.669  11.505 -0.1185  0.2396  0.5190
 3416TIP3    H131663   2.123   3.638  11.595 -0.1072 -0.3845  0.3081
 3416TIP3    H231664   2.188   3.603  11.462  0.7854  1.0958  0.3392
 3417TIP3   OH231665   3.695   2.250  11.550  0.2094 -0.3556 -0.5464
 3417TIP3    H131666   3.646   2.232  11.470 -0.3529 -0.0778 -0.2717
 3417TIP3    H231667   3.649   2.201  11.618  0.0309  0.2831 -0.2013
 3418TIP3   OH231668   2.135   4.763  12.308 -0.4469  0.0143  0.9029
 3418TIP3    H131669   2.131   4.760  12.403  0.6723  0.6268  0.9734
 3418TIP3    H231670   2.137   4.856  12.287  0.4329 -0.1292  0.3301
 3419TIP3   OH231671   5.208   0.540  15.558  0.4765 -0.1622  0.3172
 3419TIP3    H131672   5.164   0.505  15.636 -0.4820  2.5457  1.0398
 3419TIP3    H231673   5.137   0.571  15.502  1.3342  2.2408  0.5175
 3420TIP3   OH231674   0.231   3.945  15.071  0.2738 -0.6425  0.1742
 3420TIP3    H131675   0.286   3.887  15.123  0.4056 -0.7395 -0.0719
 3420TIP3    H231676   0.194   3.888  15.003  1.0298 -0.2879 -0.5528
 3421TIP3   OH231677   3.799   1.041  12.809 -0.2543 -0.0939 -0.0395
 3421TIP3    H131678   3.778   0.951  12.785 -0.2927 -0.0171 -0.3025
 3421TIP3    H231679   3.890   1.052  12.784 -0.2181 -0.0934  0.0927
 3422TIP3   OH231680   0.373   3.288  11.274  0.8832  0.2530  0.2730
 3422TIP3    H131681   0.444   3.245  11.226  0.4786 -0.3049  0.1576
 3422TIP3    H231682   0.318   3.327  11.206 -0.0422 -1.0901  0.2300
 3423TIP3   OH231683   5.346   6.362   5.394  0.1565 -0.6011  0.2333
 3423TIP3    H131684   5.258   6.381   5.425 -0.1215  2.0638 -2.0281
 3423TIP3    H231685   5.343   6.381   5.300  3.3683  0.3804  0.2854
 3424TIP3   OH231686   3.216   0.308  13.878  0.5871  0.0807  0.0383
 3424TIP3    H131687   3.176   0.296  13.964 -0.5098  1.3301 -0.2776
 3424TIP3    H231688   3.145   0.339  13.823  1.4976  0.1806 -1.0935
 3425TIP3   OH231689   1.358   0.347  16.653  0.4429  0.0014  0.0628
 3425TIP3    H131690   1.343   0.277  16.589 -2.1178 -1.1956  1.8746
 3425TIP3    H231691   1.301   0.418  16.625  0.9213  0.3102 -0.1514
 3426TIP3   OH231692   1.172   5.615  14.036 -0.7044  0.4528  0.1629
 3426TIP3    H131693   1.088   5.608  13.991 -0.3339 -0.3037 -0.4229
 3426TIP3    H231694   1.155   5.582  14.124 -1.2234  1.0907  0.2994
 3427TIP3   OH231695   2.831   0.506   5.577 -0.5705  0.2983  0.1080
 3427TIP3    H131696   2.849   0.597   5.599  3.2414 -0.2090 -0.5270
 3427TIP3    H231697   2.832   0.503   5.481 -1.3964 -0.2997  0.1074
 3428TIP3   OH231698   2.526   3.844   4.295 -0.5378  0.0993  0.0436
 3428TIP3    H131699   2.511   3.930   4.256  0.4163  0.4135  0.3563
 3428TIP3    H231700   2.549   3.787   4.221  1.8706  0.8306  0.1783
 3429TIP3   OH231701   1.010   3.250   5.288 -0.1402 -0.3941 -0.0944
 3429TIP3    H131702   1.038   3.240   5.380 -0.5006 -0.9951 -0.0460
 3429TIP3    H231703   1.082   3.212   5.238  0.2466  0.3154 -0.0808
 3430TIP3   OH231704   4.842   0.102   1.289  0.0755 -0.3828 -0.0703
 3430TIP3    H131705   4.914   0.120   1.350  0.8366 -2.0760 -0.4528
 3430TIP3    H231706   4.880   0.114   1.202  0.2287 -2.3705 -0.3007
 3431TIP3   OH231707   1.214   3.920   0.850  0.1861 -1.0092  0.2977
 3431TIP3    H131708   1.209   3.831   0.815  0.3261 -1.3274  1.0922
 3431TIP3    H231709   1.221   3.976   0.772  0.8979 -1.7443 -0.1652
 3432TIP3   OH231710   3.143   6.523  14.016  0.6233  0.2990  0.6612
 3432TIP3    H131711   3.191   6.510  14.098  2.2927 -0.3704 -0.4119
 3432TIP3    H231712   3.210   6.523  13.948 -0.5175  2.8878 -0.5490
 3433TIP3   OH231713   0.721   0.447  16.917  0.0266 -0.1442 -0.0821
 3433TIP3    H131714   0.695   0.493  16.837 -0.2574 -1.5328 -0.7873
 3433TIP3    H231715   0.639   0.419  16.957  0.2879 -1.8760 -0.7410
 3434TIP3   OH231716   4.210   5.799  12.013  0.1789  1.0922 -0.5673
 3434TIP3    H131717   4.265   5.740  11.961  1.0335  0.9527  0.4964
 3434TIP3    H231718   4.260   5.880  12.018  0.6781  0.6842  1.1337
 3435TIP3   OH231719   0.670   4.117  15.394  0.0038 -0.2077  0.0287
 3435TIP3    H131720   0.623   4.052  15.341  1.1251 -1.6597  0.7788
 3435TIP3    H231721   0.601   4.175  15.427 -1.0618 -1.2038 -0.3956
 3436TIP3   OH231722   0.402   1.450  13.896 -0.4300 -0.2979  0.0406
 3436TIP3    H131723   0.388   1.450  13.991  1.0763  1.8260  0.3123
 3436TIP3    H231724   0.486   1.496  13.884 -0.1578 -1.3089 -2.2660
 3437TIP3   OH231725   3.939   2.008  15.011 -0.0099 -0.5061 -0.2848
 3437TIP3    H131726   4.005   1.957  14.965  0.6986  3.3351 -3.7028
 3437TIP3    H231727   3.868   2.018  14.948 -0.8339  1.3292  0.9081
 3438TIP3   OH231728   3.422   1.854  12.872 -0.6171 -0.6565 -0.3636
 3438TIP3    H131729   3.347   1.891  12.825 -1.1641 -2.3392 -0.8403
 3438TIP3    H231730   3.384   1.794  12.935  0.2465 -0.1135  0.7024
 3439TIP3   OH231731   0.875   2.074   5.225  0.2534 -0.1096 -0.0966
 3439TIP3    H131732   0.796   2.073   5.172 -0.1354  0.5120  0.4654
 3439TIP3    H231733   0.860   2.143   5.290  0.6993 -0.8985  0.8588
 3440TIP3   OH231734   4.720   5.806   3.741 -0.1482 -0.1791  0.1145
 3440TIP3    H131735   4.704   5.755   3.821  0.2528  1.1273  1.0409
 3440TIP3    H231736   4.663   5.882   3.749  2.0310  1.4646  0.5920
 3441TIP3   OH231737   1.724   4.263  16.715 -0.3926 -0.1701  0.2904
 3441TIP3    H131738   1.806   4.252  16.668  0.0198 -1.0007  1.1800
 3441TIP3    H231739   1.659   4.282  16.647  0.5997  0.8833 -0.3778
 3442TIP3   OH231740   2.666   5.636   1.266 -0.1036 -0.2644  0.0294
 3442TIP3    H131741   2.686   5.553   1.308 -0.6709 -0.0578  0.7187
 3442TIP3    H231742   2.574   5.652   1.286 -0.2030  0.1554 -0.7457
 3443TIP3   OH231743   2.880   5.311   4.421  0.0322 -0.1652  0.6433
 3443TIP3    H131744   2.818   5.383   4.432  0.0298 -0.0076 -0.3734
 3443TIP3    H231745   2.912   5.320   4.331 -1.3764 -2.5146 -0.1394
 3444TIP3   OH231746   1.736   1.910  10.588 -0.2473  0.1575 -0.3123
 3444TIP3    H131747   1.661   1.852  10.596  0.5352 -0.7809  0.2831
 3444TIP3    H231748   1.750   1.920  10.494  1.9512 -3.7089 -0.4786
 3445TIP3   OH231749   2.663   0.243   3.897 -0.0911  0.2818 -0.0096
 3445TIP3    H131750   2.735   0.180   3.897 -1.3721 -1.2175  0.6858
 3445TIP3    H231751   2.588   0.193   3.931 -0.6755  2.7008  2.3855
 3446TIP3   OH231752   0.393   3.105   6.035  0.1725 -0.1159  0.4904
 3446TIP3    H131753   0.385   3.037   6.101 -0.4597 -0.6721 -0.1454
 3446TIP3    H231754   0.306   3.110   5.995  0.0754  1.4176  0.8727
 3447TIP3   OH231755   5.052   0.827  15.593  0.1457  0.5822  0.3010
 3447TIP3    H131756   4.995   0.903  15.581 -0.6730 -0.1058 -0.1329
 3447TIP3    H231757   4.995   0.751  15.581  1.1451 -0.1079 -0.1400
 3448TIP3   OH231758   6.218   4.063   5.224  0.0424 -0.1460  0.4903
 3448TIP3    H131759   6.164   3.985   5.240 -0.2307 -0.1851 -0.5473
 3448TIP3    H231760   6.160   4.136   5.242 -1.3584 -0.1535 -3.4751
 3449TIP3   OH231761   3.802   6.494  11.879 -0.8140  0.0866 -0.3393
 3449TIP3    H131762   3.793   6.444  11.798  2.5753 -2.6253  0.8467
 3449TIP3    H231763   3.766   6.438  11.947 -2.2986  1.7319  0.2695
 3450TIP3   OH231764   2.247   5.745  13.059  0.5624  0.2221  0.0948
 3450TIP3    H131765   2.342   5.761  13.054  0.9963 -1.3688  2.3457
 3450TIP3    H231766   2.239   5.672  13.121 -2.0787 -0.3445 -0.8838
 3451TIP3   OH231767   1.688   6.279   2.707 -0.2884 -0.7383 -0.1319
 3451TIP3    H131768   1.619   6.218   2.732 -1.4278  1.0428  1.1314
 3451TIP3    H231769   1.758   6.264   2.770 -1.4452  0.7681  1.5354
 3452TIP3   OH231770   0.427   3.892   4.870 -0.2364  0.0447 -0.0318
 3452TIP3    H131771   0.414   3.847   4.953 -1.0968  0.6808  0.1837
 3452TIP3    H231772   0.375   3.972   4.877 -0.4776  0.0160 -1.2487
 3453TIP3   OH231773   6.059   0.238  14.383  0.4560 -0.1113  0.2763
 3453TIP3    H131774   6.130   0.183  14.416  0.0006 -0.3962  0.7864
 3453TIP3    H231775   6.102   0.319  14.356  1.0496 -0.4869  0.0823
 3454TIP3   OH231776   0.117   4.095   6.883 -0.2841  0.3915  0.1996
 3454TIP3    H131777   0.037   4.043   6.877 -0.0319  0.0440 -0.1776
 3454TIP3    H231778   0.090   4.183   6.858 -0.6555  0.3797  0.5631
 3455TIP3   OH231779   3.879   1.078  15.436  0.3886 -0.1976  0.2946
 3455TIP3    H131780   3.859   1.156  15.384  0.6919  0.3406  0.9792
 3455TIP3    H231781   3.915   1.112  15.518 -0.2048 -1.0328  0.9128
 3456TIP3   OH231782   5.365   1.342   5.535 -1.2691 -0.1268 -0.1523
 3456TIP3    H131783   5.307   1.397   5.484  0.8399  0.5194 -1.9081
 3456TIP3    H231784   5.439   1.324   5.477 -0.9758 -3.1883  1.0560
 3457TIP3   OH231785   2.810   3.866  14.147  0.9316 -0.3965 -0.2612
 3457TIP3    H131786   2.782   3.852  14.057  0.6883 -2.0575  0.0536
 3457TIP3    H231787   2.835   3.958  14.151 -0.0441 -0.0566 -1.7538
 3458TIP3   OH231788   4.720   1.213  11.316  0.4044  0.1160  0.0660
 3458TIP3    H131789   4.748   1.300  11.345 -2.3758  1.3771 -0.8203
 3458TIP3    H231790   4.731   1.158  11.394 -1.5900  2.1943  1.9093
 3459TIP3   OH231791   6.627   1.942   3.652 -0.4123 -0.1418 -0.1427
 3459TIP3    H131792   6.588   1.865   3.610 -0.2972 -0.3854  0.1960
 3459TIP3    H231793   6.709   1.910   3.688 -0.6453 -0.0005  0.5156
 3460TIP3   OH231794   0.569   4.104   5.730 -0.2425  0.2916  0.3746
 3460TIP3    H131795   0.486   4.082   5.773 -1.2912  0.5793 -1.4301
 3460TIP3    H231796   0.544   4.162   5.658  1.5235  0.3240 -0.2396
 3461TIP3   OH231797   3.783   3.535  12.494 -0.1956  0.1441 -0.3439
 3461TIP3    H131798   3.854   3.598  12.478  0.3057 -0.2469  0.2870
 3461TIP3    H231799   3.786   3.475  12.420  0.2295  0.0463 -0.2497
 3462TIP3   OH231800   4.662   0.043  16.559  0.9477 -0.1807 -0.3689
 3462TIP3    H131801   4.708   0.026  16.641 -0.4341  0.0702  0.4628
 3462TIP3    H231802   4.572   0.018  16.576  0.7025 -0.4072 -1.9073
 3463TIP3   OH231803   1.042   1.971   2.259 -0.1448 -0.4878  0.0393
 3463TIP3    H131804   1.045   1.988   2.353 -0.1982 -1.7267  0.2817
 3463TIP3    H231805   1.013   2.054   2.220 -1.3961 -0.3388  1.2366
 3464TIP3   OH231806   4.355   5.318   3.913 -0.1699  1.0017 -0.1162
 3464TIP3    H131807   4.448   5.336   3.900  0.1995  0.0799  1.1139
 3464TIP3    H231808   4.353   5.260   3.989 -1.8159  1.8415  0.4973
 3465TIP3   OH231809   5.450   2.009  16.244 -0.3035  0.0079 -0.4738
 3465TIP3    H131810   5.544   2.006  16.226 -0.3240  0.5807 -0.6896
 3465TIP3    H231811   5.442   1.985  16.336  0.2714  2.4329  0.2387
 3466TIP3   OH231812   6.424   4.328   6.693 -0.1275  0.1291 -0.0540
 3466TIP3    H131813   6.489   4.282   6.746  0.1149 -1.1158 -1.3979
 3466TIP3    H231814   6.429   4.419   6.722  1.3111 -0.1991  0.7488
 3467TIP3   OH231815   4.547   1.603  13.439 -0.0615  0.2681 -0.4155
 3467TIP3    H131816   4.581   1.525  13.396  0.4217  0.1314  0.1964
 3467TIP3    H231817   4.592   1.676  13.397  1.6493  0.0393  0.9667
 3468TIP3   OH231818   3.930   2.506   6.173 -0.1742 -0.0140 -0.5332
 3468TIP3    H131819   4.001   2.483   6.232 -0.8345 -0.1369  0.2286
 3468TIP3    H231820   3.873   2.562   6.225 -1.2131 -0.8145 -0.7863
 3469TIP3   OH231821   5.670   2.039   3.940  0.0978 -0.7983 -0.1144
 3469TIP3    H131822   5.746   1.982   3.954 -1.0177 -2.3526 -0.2079
 3469TIP3    H231823   5.646   2.024   3.848  1.4248  1.9087 -0.9671
 3470TIP3   OH231824   2.125   4.232  17.048 -0.1895  0.2030  0.7923
 3470TIP3    H131825   2.038   4.248  17.083  0.4052  1.6418  1.6816
 3470TIP3    H231826   2.185   4.256  17.119  0.9238 -1.1444  0.3343
 3471TIP3   OH231827   2.904   5.220   4.844  0.0997  0.1234 -0.0967
 3471TIP3    H131828   2.939   5.161   4.911  0.9392  0.6336 -0.0747
 3471TIP3    H231829   2.912   5.172   4.762  0.0335 -0.1036  0.0315
 3472TIP3   OH231830   6.054   0.643  15.171 -0.4695  0.2325 -0.0914
 3472TIP3    H131831   5.968   0.677  15.195  0.6635  1.1652  2.9354
 3472TIP3    H231832   6.116   0.697  15.220  1.7151 -2.1115 -0.1254
 3473TIP3   OH231833   3.765   0.157  17.172  0.1347  0.2163 -0.0247
 3473TIP3    H131834   3.759   0.127  17.263  2.7574  1.3739  0.5901
 3473TIP3    H231835   3.722   0.088  17.121  0.7633 -1.6383  1.8782
 3474TIP3   OH231836   5.458   5.718   6.612 -0.1145 -0.7467  0.5993
 3474TIP3    H131837   5.531   5.741   6.670 -0.6073 -1.0127  1.3353
 3474TIP3    H231838   5.384   5.768   6.647 -0.8885 -2.4480  1.4141
 3475TIP3   OH231839   0.177   2.362  16.370 -0.1700 -0.3631 -0.1911
 3475TIP3    H131840   0.154   2.408  16.450  2.1470  0.2816  0.1262
 3475TIP3    H231841   0.184   2.270  16.396  0.1993 -0.2045  0.2778
 3476TIP3   OH231842   4.323   4.497   2.345 -0.4051  0.4769 -0.1654
 3476TIP3    H131843   4.402   4.531   2.303  1.2557 -1.2005  1.5002
 3476TIP3    H231844   4.296   4.566   2.405  0.1344  0.8098 -0.3083
 3477TIP3   OH231845   6.349   5.361   0.007  0.5284  0.2971 -0.0738
 3477TIP3    H131846   6.360   5.335  -0.085  0.1295 -0.5862  0.1203
 3477TIP3    H231847   6.271   5.314   0.036 -1.7913  3.7014 -0.4466
 3478TIP3   OH231848   4.970   5.880  14.657  0.0006  0.4762 -0.3390
 3478TIP3    H131849   5.011   5.807  14.703  0.7396  1.2364  0.2312
 3478TIP3    H231850   4.901   5.840  14.605  0.1802 -0.5867  0.2262
 3479TIP3   OH231851   5.892   4.511   3.297  0.0756 -0.1372 -0.1051
 3479TIP3    H131852   5.965   4.461   3.260 -1.8327 -2.1172 -1.3024
 3479TIP3    H231853   5.900   4.498   3.392  2.5393  1.5132 -0.0298
 3480TIP3   OH231854   6.626   2.856  13.021 -0.0936  0.1395  0.5151
 3480TIP3    H131855   6.619   2.767  13.056 -1.1568  1.0140  2.5727
 3480TIP3    H231856   6.658   2.908  13.094  0.2026  1.5281 -0.5896
 3481TIP3   OH231857   4.120   3.037  15.207  1.0793 -0.1287 -0.0478
 3481TIP3    H131858   4.118   2.943  15.221 -1.3706  0.0553  1.0418
 3481TIP3    H231859   4.131   3.075  15.294 -1.2481  0.6543 -0.0587
 3482TIP3   OH231860   5.594   4.175  13.469 -0.3248 -0.0265 -0.6508
 3482TIP3    H131861   5.628   4.236  13.404  0.8113 -2.6660 -2.6177
 3482TIP3    H231862   5.652   4.099  13.463 -1.7283 -1.3409  1.7034
 3483TIP3   OH231863   3.262   0.803  12.826  0.4305  0.1285 -0.2626
 3483TIP3    H131864   3.301   0.748  12.895 -1.0237 -1.4006 -0.6217
 3483TIP3    H231865   3.177   0.763  12.809  0.0430  1.5359 -1.7265
 3484TIP3   OH231866   1.396   4.568  11.944  0.4429 -0.1902  0.3621
 3484TIP3    H131867   1.391   4.589  12.037 -0.4291 -0.8851  0.4777
 3484TIP3    H231868   1.308   4.539  11.921  1.2388 -2.2385 -0.1550
 3485TIP3   OH231869   3.453   4.521  11.331  0.3131 -0.3325 -0.2955
 3485TIP3    H131870   3.450   4.501  11.424 -0.2378 -0.3154 -0.3037
 3485TIP3    H231871   3.427   4.613  11.326 -2.3781 -1.0759 -0.6871
 3486TIP3   OH231872   2.674   3.572  16.298 -0.0585  0.0635  0.5524
 3486TIP3    H131873   2.719   3.605  16.221 -0.2717 -1.3421 -0.1880
 3486TIP3    H231874   2.585   3.554  16.269 -0.2104 -0.2486  1.1827
 3487TIP3   OH231875   4.027   6.647   3.035  0.5588 -0.0143  0.0649
 3487TIP3    H131876   3.985   6.618   3.116  2.9837 -1.5497  0.8285
 3487TIP3    H231877   3.994   6.736   3.021  0.5006  0.4732  3.0015
 3488TIP3   OH231878   6.065   5.113  11.025  0.1335  0.6054 -0.3407
 3488TIP3    H131879   6.139   5.130  11.083 -0.3970  1.1215  0.1886
 3488TIP3    H231880   6.073   5.020  11.003  1.6687  0.9429 -1.3320
 3489TIP3   OH231881   1.774   3.505   5.923  0.5732 -0.0869  0.0194
 3489TIP3    H131882   1.845   3.569   5.932  1.0989 -0.3282 -2.1523
 3489TIP3    H231883   1.776   3.456   6.005  2.8890 -0.0489  0.0305
 3490TIP3   OH231884   2.997   2.578  16.752  0.3960 -1.3111  0.1533
 3490TIP3    H131885   3.056   2.502  16.743 -0.8671 -2.3676  0.6737
 3490TIP3    H231886   2.962   2.571  16.841  1.7105  0.9610  0.8832
 3491TIP3   OH231887   2.859   3.938   2.075 -0.2860  0.0939 -0.1376
 3491TIP3    H131888   2.782   3.934   2.018  0.8511 -1.0925 -1.6232
 3491TIP3    H231889   2.865   4.030   2.100 -3.3061 -0.1230  1.5908
 3492TIP3   OH231890   0.449   1.243  13.716 -1.0247 -0.0778  0.2078
 3492TIP3    H131891   0.475   1.185  13.788  1.6943  2.4654  1.4074
 3492TIP3    H231892   0.428   1.326  13.758 -1.5279  0.8185 -1.7446
 3493TIP3   OH231893   2.674   4.854  13.257 -0.2829 -0.2887  0.3494
 3493TIP3    H131894   2.578   4.852  13.260 -0.2455 -0.5719  1.5822
 3493TIP3    H231895   2.695   4.816  13.171 -1.2718 -0.0150 -0.0286
 3494TIP3   OH231896   5.455   0.022   1.722  0.2825  0.5595  0.3033
 3494TIP3    H131897   5.411  -0.042   1.778 -0.3625  1.2230  0.5527
 3494TIP3    H231898   5.493   0.085   1.783  0.6940  0.5639  0.0441
 3495TIP3   OH231899   1.388   0.203   1.566  0.4571  0.4209  0.1362
 3495TIP3    H131900   1.349   0.139   1.625 -0.8755  1.5569  0.5392
 3495TIP3    H231901   1.432   0.266   1.624 -0.2696  1.1638 -0.1026
 3496TIP3   OH231902   5.139   1.109   5.628  0.4750 -0.1614 -0.5062
 3496TIP3    H131903   5.208   1.169   5.655 -0.3658  0.3342  0.5438
 3496TIP3    H231904   5.151   1.031   5.682 -0.4167  0.3278  0.4057
 3497TIP3   OH231905   6.275   0.748  14.895  0.0915  0.6587  0.1532
 3497TIP3    H131906   6.311   0.719  14.979 -1.3874  3.5711  1.8567
 3497TIP3    H231907   6.182   0.728  14.900  0.4473 -1.9758 -2.1140
 3498TIP3   OH231908   6.023   5.650   2.226  0.2230  0.1865  0.5099
 3498TIP3    H131909   5.950   5.703   2.257 -0.5298 -0.1001 -0.7490
 3498TIP3    H231910   6.077   5.710   2.175  0.2030  0.1056  0.3929
 3499TIP3   OH231911   0.993   1.292  14.672 -0.0829  0.1408 -0.3844
 3499TIP3    H131912   0.988   1.382  14.705 -0.4866 -0.0765  0.1475
 3499TIP3    H231913   1.086   1.271  14.674  0.0712  0.7280 -1.0028
 3500TIP3   OH231914   2.029   1.623  10.624 -0.3470 -0.5814 -0.1901
 3500TIP3    H131915   2.049   1.708  10.662 -1.3151 -0.2731 -0.3561
 3500TIP3    H231916   1.936   1.628  10.603 -0.3076 -1.5289 -0.5907
 3501TIP3   OH231917   3.708   3.883   1.156  0.1609  0.0542  0.0207
 3501TIP3    H131918   3.627   3.833   1.150  0.2109  0.1037 -1.2497
 3501TIP3    H231919   3.769   3.836   1.099  1.1648 -0.2486  1.3337
 3502TIP3   OH231920   6.453   6.760  15.528  0.2025 -0.4841  0.3012
 3502TIP3    H131921   6.428   6.820  15.458 -0.0783  0.1687  0.9591
 3502TIP3    H231922   6.501   6.691  15.483 -1.8610 -1.2203 -0.8204
 3503TIP3   OH231923   1.981   6.132   4.789 -0.1232  0.1558 -0.7186
 3503TIP3    H131924   2.012   6.057   4.738 -1.4428 -1.4914  0.8675
 3503TIP3    H231925   2.061   6.180   4.810  0.6623 -0.3658 -2.4146
 3504TIP3   OH231926   6.269   4.123  14.212 -0.3457 -0.2694 -0.2451
 3504TIP3    H131927   6.234   4.164  14.291 -0.2522 -1.5195  0.4422
 3504TIP3    H231928   6.324   4.051  14.244  0.8034  0.0739 -1.3931
 3505TIP3   OH231929   4.624   1.415  14.824  0.1901 -0.3271 -0.4456
 3505TIP3    H131930   4.719   1.419  14.822  0.1239  1.6353 -0.8965
 3505TIP3    H231931   4.599   1.459  14.905 -0.2912 -2.6768  0.7328
 3506TIP3   OH231932   3.082   2.149   4.743 -0.0785 -0.1172  0.2525
 3506TIP3    H131933   3.147   2.092   4.785 -1.1836 -0.8639  0.9884
 3506TIP3    H231934   3.057   2.211   4.812 -1.3930 -0.9148  0.5100
 3507TIP3   OH231935   1.799   4.005   3.763 -0.1334 -0.0584  0.1656
 3507TIP3    H131936   1.751   3.967   3.690  0.3102  1.1268 -0.7503
 3507TIP3    H231937   1.805   4.098   3.743  0.7950  0.1336  1.2603
 3508TIP3   OH231938   2.345   5.009   4.378  0.1277 -0.0949 -0.1751
 3508TIP3    H131939   2.260   5.019   4.335  0.6594  1.9770 -0.7720
 3508TIP3    H231940   2.323   4.989   4.469 -1.0244  1.7792 -0.0209
 3509TIP3   OH231941   5.762   1.824  12.266 -1.0245  0.3413  0.1480
 3509TIP3    H131942   5.668   1.811  12.249 -1.4289  1.5012  1.3703
 3509TIP3    H231943   5.782   1.763  12.337 -1.2104  1.1610  0.9084
 3510TIP3   OH231944   0.538   5.377   4.253 -0.0639  0.6518  0.0493
 3510TIP3    H131945   0.477   5.305   4.244 -0.0560  0.5922  0.4344
 3510TIP3    H231946   0.579   5.386   4.167 -1.4290  1.4393 -0.5388
 3511TIP3   OH231947   3.860   0.823   4.738  0.0129  0.6710  0.3514
 3511TIP3    H131948   3.768   0.827   4.766 -0.6408  0.4128 -1.7058
 3511TIP3    H231949   3.909   0.822   4.820 -1.8371  0.3266  1.4955
 3512TIP3   OH231950   2.867   4.666   1.492  0.1393  0.1349 -0.3672
 3512TIP3    H131951   2.929   4.640   1.424  1.8736  0.7205  0.9509
 3512TIP3    H231952   2.871   4.762   1.493  0.3387  0.1188  0.7482
 3513TIP3   OH231953   4.829   3.853  11.622 -0.7790  0.0960 -0.0318
 3513TIP3    H131954   4.749   3.807  11.648 -0.9621  0.3234 -0.1904
 3513TIP3    H231955   4.895   3.824  11.685 -0.0082 -3.0624 -2.1787
 3514TIP3   OH231956   4.437   1.715   4.788 -0.1071  0.2482 -0.8862
 3514TIP3    H131957   4.455   1.728   4.695 -1.0501  1.3183 -0.9369
 3514TIP3    H231958   4.362   1.657   4.790 -0.0493  0.1772 -0.7955
 3515TIP3   OH231959   0.544   6.556  12.394 -0.1586 -0.4155 -0.1766
 3515TIP3    H131960   0.459   6.557  12.350 -0.7943  0.9566  1.0447
 3515TIP3    H231961   0.546   6.472  12.441 -0.8175 -0.4737 -0.2527
 3516TIP3   OH231962   4.972   6.272  13.383 -0.4012  0.3261  0.2796
 3516TIP3    H131963   5.032   6.320  13.326 -2.1176  3.1774  0.7755
 3516TIP3    H231964   4.998   6.181  13.374  2.3373  1.2218 -1.4816
 3517TIP3   OH231965   4.443   4.652  12.750  0.0018  0.2061  0.3095
 3517TIP3    H131966   4.407   4.701  12.676 -0.1694 -0.3527  0.0223
 3517TIP3    H231967   4.536   4.641  12.729  0.2117  1.0595  0.7355
 3518TIP3   OH231968   0.678   3.992  12.730 -0.1682  0.6259 -0.0559
 3518TIP3    H131969   0.720   3.939  12.797 -0.2146  0.7806  0.0956
 3518TIP3    H231970   0.629   3.929  12.677 -0.3490  0.5372  0.2169
 3519TIP3   OH231971   0.170   2.267   4.319  0.3892  0.1965 -0.0972
 3519TIP3    H131972   0.143   2.313   4.239 -1.7280 -0.4887  0.1891
 3519TIP3    H231973   0.142   2.324   4.390  0.6836 -0.0232  0.1985
 3520TIP3   OH231974   2.662   1.394   1.337  0.1624  0.1254  0.2073
 3520TIP3    H131975   2.587   1.404   1.278  0.7568 -1.9920 -0.9509
 3520TIP3    H231976   2.675   1.300   1.343  2.4668  0.4640  0.7534
 3521TIP3   OH231977   2.297   1.493   3.991  0.2479 -0.1131  0.2862
 3521TIP3    H131978   2.346   1.413   4.010  1.1595  0.8267  2.0136
 3521TIP3    H231979   2.332   1.522   3.907  0.6078 -1.0153  0.1116
 3522TIP3   OH231980   1.246   6.052  11.967 -0.3710 -0.4251  0.3095
 3522TIP3    H131981   1.298   5.972  11.978  0.3923  0.3357  2.5498
 3522TIP3    H231982   1.253   6.072  11.874  2.4676 -0.9786  0.3516
 3523TIP3   OH231983   2.918   4.153   0.520 -0.0430  0.3954 -0.4693
 3523TIP3    H131984   2.964   4.118   0.444  0.8499  1.1265 -0.2736
 3523TIP3    H231985   2.897   4.243   0.497 -0.8845  0.2358 -0.3359
 3524TIP3   OH231986   1.000   0.771   3.231 -0.0722 -0.6369  0.2924
 3524TIP3    H131987   1.079   0.722   3.252 -0.3542 -1.1411  0.1847
 3524TIP3    H231988   0.972   0.738   3.145 -0.6254 -0.7568  0.5114
 3525TIP3   OH231989   6.080   0.797   4.235  0.3221  0.4711  0.0081
 3525TIP3    H131990   6.058   0.707   4.211 -0.5994  0.5620  0.4642
 3525TIP3    H231991   6.000   0.847   4.215  0.1732  0.8555  1.5080
 3526TIP3   OH231992   2.861   3.815   1.738 -0.4390 -0.0194  0.1623
 3526TIP3    H131993   2.850   3.880   1.807  2.8924 -0.6428  1.3373
 3526TIP3    H231994   2.809   3.849   1.665 -2.8562  1.3679  2.4293
 3527TIP3   OH231995   6.713   1.206   5.330 -0.2264 -0.1782 -0.2257
 3527TIP3    H131996   6.772   1.225   5.403  2.6041 -0.4016 -2.3631
 3527TIP3    H231997   6.672   1.289   5.309  2.3690  0.8867 -1.2531
 3528TIP3   OH231998   6.236   5.480   3.051  0.2103  0.2852  0.1561
 3528TIP3    H131999   6.302   5.419   3.084 -0.0063  0.2719  0.5674
 3528TIP3    H232000   6.207   5.442   2.968  1.7308  1.0059 -0.7381
 3529TIP3   OH232001   0.360   2.344   5.093  0.7124  0.1012  0.2004
 3529TIP3    H132002   0.381   2.264   5.141  0.5237  0.3902  0.7668
 3529TIP3    H232003   0.281   2.322   5.043 -1.2013  0.8971  2.8044
 3530TIP3   OH232004   0.117   1.900   3.730  0.1278 -0.2893  0.5047
 3530TIP3    H132005   0.164   1.948   3.662  0.7960 -0.7586  0.6231
 3530TIP3    H232006   0.104   1.964   3.800 -1.2766  0.4198 -0.3803
 3531TIP3   OH232007   6.742   6.342  16.475 -0.6749  0.4876 -0.1922
 3531TIP3    H132008   6.723   6.263  16.525 -0.1643  0.7302  0.3910
 3531TIP3    H232009   6.716   6.320  16.385 -1.5520  0.0373  0.1692
 3532TIP3   OH232010   2.396   0.831   0.251 -0.2102  0.8009  0.0114
 3532TIP3    H132011   2.378   0.740   0.229  2.4484 -0.0243  1.0691
 3532TIP3    H232012   2.320   0.879   0.218 -0.8711 -1.5690 -2.0716
 3533TIP3   OH232013   5.385   1.650   5.185  0.0705 -0.3599  0.5038
 3533TIP3    H132014   5.419   1.650   5.095  1.1081 -1.1240  0.8802
 3533TIP3    H232015   5.445   1.707   5.233 -0.1895 -0.3539  0.8191
 3534TIP3   OH232016   6.753   2.376   4.539 -0.0385 -0.3874 -0.7823
 3534TIP3    H132017   6.726   2.464   4.565  0.4959 -0.9087  1.7190
 3534TIP3    H232018   6.679   2.341   4.489 -1.4305  0.4460  0.6602
 3535TIP3   OH232019   2.259   4.896  10.372  0.6554  1.1037  0.3023
 3535TIP3    H132020   2.306   4.852  10.443 -3.5170 -2.7725  0.9091
 3535TIP3    H232021   2.193   4.949  10.416 -0.3768  0.6254 -0.6463
 3536TIP3   OH232022   5.339   2.114  12.965  0.6005 -0.2552  0.3638
 3536TIP3    H132023   5.429   2.082  12.965  0.3173 -1.0691  0.7110
 3536TIP3    H232024   5.330   2.159  12.881  1.6497  0.7527  0.7892
 3537TIP3   OH232025   2.614   2.468  14.103 -0.3809 -0.1269 -0.2035
 3537TIP3    H132026   2.710   2.461  14.109 -0.3666 -1.1502 -1.3275
 3537TIP3    H232027   2.598   2.562  14.093  0.3934  0.2173  1.6173
 3538TIP3   OH232028   5.768   1.293   3.326 -0.2433 -0.0571 -0.3206
 3538TIP3    H132029   5.779   1.388   3.327 -0.2155 -0.0573 -0.6563
 3538TIP3    H232030   5.673   1.280   3.332 -0.2125 -0.0201  0.3299
 3539TIP3   OH232031   2.815   5.652   5.847 -1.0924  0.8000 -0.0700
 3539TIP3    H132032   2.836   5.644   5.940  2.8135  0.6705 -0.8973
 3539TIP3    H232033   2.878   5.595   5.803 -3.2676  0.3950 -2.8039
 3540TIP3   OH232034   6.720   2.469  16.940 -0.0109 -0.5218  0.1547
 3540TIP3    H132035   6.728   2.406  16.869 -1.9903  0.0910 -0.6523
 3540TIP3    H232036   6.780   2.540  16.917 -1.0146 -0.0925 -1.1955
 3541TIP3   OH232037   5.394   5.295   1.113  0.1755  0.5251  0.0381
 3541TIP3    H132038   5.433   5.379   1.089  1.4730  0.3681  1.5214
 3541TIP3    H232039   5.446   5.264   1.187  1.6090 -3.0138 -2.2998
 3542TIP3   OH232040   6.503   1.378  13.625  0.2184  0.2810  0.1672
 3542TIP3    H132041   6.477   1.441  13.692  1.4441  1.0918 -0.0955
 3542TIP3    H232042   6.513   1.430  13.546 -1.9963 -0.8039 -0.8705
 3543TIP3   OH232043   4.616   4.943   5.743 -0.2004 -0.9108 -0.5174
 3543TIP3    H132044   4.606   4.851   5.767  1.9803 -0.7445  1.2623
 3543TIP3    H232045   4.711   4.958   5.745 -0.5772  1.6792  0.5197
 3544TIP3   OH232046   3.934   2.780   5.322 -0.0646  0.5764 -0.1358
 3544TIP3    H132047   3.952   2.860   5.273  3.7234 -0.8578 -1.3077
 3544TIP3    H232048   3.913   2.715   5.255 -1.2690  0.1180  0.6675
 3545TIP3   OH232049   1.549   1.386   0.688 -0.5525  0.3757 -0.6073
 3545TIP3    H132050   1.567   1.474   0.722  1.1126  0.6786 -2.2139
 3545TIP3    H232051   1.633   1.357   0.652 -1.6048 -1.0393 -1.9555
 3546TIP3   OH232052   1.720   1.849   2.430  0.0043  0.4238  0.3412
 3546TIP3    H132053   1.628   1.873   2.420 -0.5960 -1.3303  1.4281
 3546TIP3    H232054   1.732   1.842   2.525  1.3562  0.9536  0.2194
 3547TIP3   OH232055   3.865   2.767  14.412 -0.2231 -0.0122 -0.2278
 3547TIP3    H132056   3.790   2.708  14.417 -1.9698  2.2443  1.4406
 3547TIP3    H232057   3.854   2.813  14.329 -0.1247 -0.3615 -0.4385
 3548TIP3   OH232058   6.358   2.165   5.590 -0.4765 -0.0949 -0.0567
 3548TIP3    H132059   6.296   2.117   5.645 -2.1079 -0.0487 -1.7903
 3548TIP3    H232060   6.364   2.113   5.510 -0.7969  1.5979 -1.1975
 3549TIP3   OH232061   2.765   1.313   3.262 -0.4553 -0.4016  0.0005
 3549TIP3    H132062   2.732   1.400   3.242 -0.6777 -1.0753 -2.7809
 3549TIP3    H232063   2.703   1.277   3.325 -0.2817  1.4791  1.2769
 3550TIP3   OH232064   1.581   1.355   3.313 -0.2447 -0.2521 -0.0390
 3550TIP3    H132065   1.655   1.297   3.296  0.6273  1.1922 -1.3755
 3550TIP3    H232066   1.505   1.309   3.279  0.4235 -0.6490 -1.0314
 3551TIP3   OH232067   5.251   1.490  14.129  0.1886 -0.3916 -0.8656
 3551TIP3    H132068   5.225   1.582  14.137  0.3354 -0.3109 -1.3141
 3551TIP3    H232069   5.184   1.441  14.176  2.5552  0.2968  3.5124
 3552TIP3   OH232070   2.907   1.521  15.767 -0.1129  0.0989 -0.3259
 3552TIP3    H132071   2.985   1.545  15.818 -0.4651  1.6690 -0.5112
 3552TIP3    H232072   2.834   1.539  15.825 -0.4433  0.7046 -0.9155
 3553TIP3   OH232073   1.857   4.287  12.832 -0.2113 -0.5809  0.5291
 3553TIP3    H132074   1.777   4.331  12.803  0.7836  0.9539  0.0263
 3553TIP3    H232075   1.829   4.231  12.904 -1.3009  2.0901  2.2626
 3554TIP3   OH232076   0.269   5.840   3.776  0.3810  0.3268  0.0301
 3554TIP3    H132077   0.328   5.767   3.761  0.9351  0.6602  0.5757
 3554TIP3    H232078   0.298   5.878   3.859  0.4096  1.4680 -0.4855
 3555TIP3   OH232079   2.591   5.574   6.054  0.1542 -0.5607  0.1468
 3555TIP3    H132080   2.520   5.637   6.066  0.8477 -0.0442  1.7662
 3555TIP3    H232081   2.559   5.513   5.988  0.1103  2.4160 -2.6941
 3556TIP3   OH232082   2.525   4.630   3.229  0.0744  0.5720  0.1334
 3556TIP3    H132083   2.515   4.571   3.304  2.0482  0.9949  0.7555
 3556TIP3    H232084   2.574   4.580   3.165  1.2060  1.2958  0.4144
 3557TIP3   OH232085   1.657   4.591  15.837  1.0122  0.2243 -0.2419
 3557TIP3    H132086   1.736   4.631  15.871  1.6661 -1.8165  0.7355
 3557TIP3    H232087   1.590   4.610  15.903  1.2559 -0.0674  0.0912
 3558TIP3   OH232088   5.627   6.438   2.339  0.2343  0.3303 -0.4000
 3558TIP3    H132089   5.566   6.508   2.315  1.3163  1.4394  0.0331
 3558TIP3    H232090   5.673   6.418   2.257 -0.9094 -0.7269 -0.8001
 3559TIP3   OH232091   0.838   0.202   0.288  0.0768  0.3479  0.6669
 3559TIP3    H132092   0.896   0.128   0.309  0.5317  0.7105  0.6972
 3559TIP3    H232093   0.873   0.275   0.340  1.8881  1.5422 -2.1131
 3560TIP3   OH232094   4.244   0.286  16.267  0.2067  0.0710 -0.1372
 3560TIP3    H132095   4.250   0.379  16.289 -1.5352  0.0433  0.4879
 3560TIP3    H232096   4.238   0.242  16.351 -2.1093 -0.3549 -0.4922
 3561TIP3   OH232097   4.049   4.434   4.804 -0.3761 -0.1892 -0.0667
 3561TIP3    H132098   4.091   4.461   4.886  0.6185 -1.5315 -0.1118
 3561TIP3    H232099   4.072   4.502   4.741  1.4004 -0.6905  0.0154
 3562TIP3   OH232100   1.708   5.045  13.637 -0.2642 -0.0265 -0.3332
 3562TIP3    H132101   1.633   5.073  13.585 -1.0570 -1.9723 -0.2759
 3562TIP3    H232102   1.752   4.980  13.582  1.0982  0.7235 -0.1488
 3563TIP3   OH232103   1.276   2.907  16.120  0.8687  0.1355  0.1201
 3563TIP3    H132104   1.265   2.979  16.058  0.5236  1.0824  1.2518
 3563TIP3    H232105   1.222   2.931  16.195  2.4739 -0.2174  1.4364
 3564TIP3   OH232106   5.200   1.534   3.303 -0.1393 -0.3410  0.3531
 3564TIP3    H132107   5.270   1.556   3.242  0.4282 -1.6343  0.5083
 3564TIP3    H232108   5.160   1.455   3.267 -1.2750  0.1704  0.4696
 3565TIP3   OH232109   1.707   0.196   2.729  0.1211  0.5820  0.0556
 3565TIP3    H132110   1.778   0.205   2.665  0.2700  0.2586  0.1722
 3565TIP3    H232111   1.633   0.244   2.691 -0.0835 -0.3947 -0.7860
 3566TIP3   OH232112   4.682   3.377  11.784 -0.5269 -0.3442  0.0612
 3566TIP3    H132113   4.752   3.360  11.721 -1.6862 -1.2015 -1.0182
 3566TIP3    H232114   4.721   3.356  11.869  0.2162 -1.8325 -0.6198
 3567TIP3   OH232115   4.423   0.028   3.097 -0.0749  0.3719  0.1239
 3567TIP3    H132116   4.517   0.031   3.081  0.0200  1.4453  0.8669
 3567TIP3    H232117   4.413  -0.032   3.171 -0.0087  0.0506 -0.1243
 3568TIP3   OH232118   1.826   2.815   0.619  0.2239 -0.5575 -0.2531
 3568TIP3    H132119   1.818   2.769   0.535 -3.7406  1.1749 -0.8825
 3568TIP3    H232120   1.919   2.837   0.624  1.0557 -3.0626 -2.8825
 3569TIP3   OH232121   0.128   1.923   1.262  0.2829  0.3403  0.0150
 3569TIP3    H132122   0.166   1.978   1.331  1.8634  0.2914 -0.8075
 3569TIP3    H232123   0.182   1.940   1.185 -1.6857  0.6821 -1.3408
 3570TIP3   OH232124   2.649   0.024  12.793  0.1092  0.2587  0.4677
 3570TIP3    H132125   2.708   0.094  12.764  0.3224 -0.2600 -0.3782
 3570TIP3    H232126   2.647  -0.037  12.719 -1.1475  0.0600  0.6660
 3571TIP3   OH232127   6.739   1.568  16.832  0.8469  0.1187 -0.4648
 3571TIP3    H132128   6.750   1.661  16.852 -2.0005  0.3485  0.2419
 3571TIP3    H232129   6.784   1.523  16.903 -0.0924  0.9791  0.6975
 3572TIP3   OH232130   0.078   2.379   3.521 -0.1084  0.5621  0.3524
 3572TIP3    H132131   0.067   2.322   3.445  1.2359  1.0871 -0.2461
 3572TIP3    H232132   0.117   2.459   3.486  1.7783  0.3021  1.7927
 3573TIP3   OH232133   1.470   5.061  10.990 -0.8544 -0.1075  0.0674
 3573TIP3    H132134   1.436   5.117  11.060 -1.2684  0.1919 -0.3706
 3573TIP3    H232135   1.491   5.122  10.919 -0.4127 -0.4084 -0.0615
 3574TIP3   OH232136   6.106   1.160  10.054 -0.0017  0.2972  0.9623
 3574TIP3    H132137   6.172   1.209  10.004  1.2692 -1.4826  0.8665
 3574TIP3    H232138   6.065   1.103   9.989 -1.9923  1.6853  0.9257
 3575TIP3   OH232139   3.763   1.705   3.646 -0.3799 -0.8548 -0.0239
 3575TIP3    H132140   3.734   1.772   3.584  0.5323 -1.6409 -1.3224
 3575TIP3    H232141   3.838   1.744   3.691  1.2237 -1.6000 -1.9776
 3576TIP3   OH232142   5.066   2.397   2.260 -0.4232 -0.2589 -0.5260
 3576TIP3    H132143   5.030   2.311   2.239 -1.3555 -0.2672  1.0579
 3576TIP3    H232144   5.036   2.416   2.348 -0.5481  1.8627 -0.9778
 3577TIP3   OH232145   6.285   1.585  17.060  0.4605  0.4812 -0.1363
 3577TIP3    H132146   6.228   1.564  17.134  0.8545 -0.2103 -0.0218
 3577TIP3    H232147   6.368   1.611  17.101  0.4677  0.7517 -0.3226
 3578TIP3   OH232148   3.554   0.080   3.183 -0.5937  0.3523 -0.7226
 3578TIP3    H132149   3.585   0.166   3.156  0.7510 -0.3778 -1.5130
 3578TIP3    H232150   3.469   0.097   3.225  0.5219  2.2692  0.8194
 3579TIP3   OH232151   5.572   1.143  15.623  0.8381  0.4001 -0.5417
 3579TIP3    H132152   5.514   1.072  15.596  0.0078  0.7410  0.3322
 3579TIP3    H232153   5.654   1.100  15.645 -0.1386 -0.4888  1.4935
 3580TIP3   OH232154   0.695   4.191  11.578  0.3756 -0.2714  0.2010
 3580TIP3    H132155   0.680   4.211  11.485  2.7113  0.7296 -0.0075
 3580TIP3    H232156   0.790   4.189  11.586  0.1884 -0.1882  2.6164
 3581TIP3   OH232157   0.670   0.389   6.631  0.2348  0.6729  0.1855
 3581TIP3    H132158   0.690   0.296   6.621 -0.2665  0.4125  1.4128
 3581TIP3    H232159   0.578   0.397   6.603  0.1829  0.7400  0.3734
 3582TIP3   OH232160   2.772   3.911   1.292  0.3023  0.1545  0.1559
 3582TIP3    H132161   2.867   3.904   1.307  0.3011 -0.7721 -0.2867
 3582TIP3    H232162   2.739   3.954   1.371  0.8713 -0.9449  1.0058
 3583TIP3   OH232163   2.073   2.957   0.510 -0.3008  0.2904  0.1275
 3583TIP3    H132164   2.121   2.925   0.434 -1.6406 -1.1695 -0.1136
 3583TIP3    H232165   2.136   2.949   0.582  0.3647 -0.0711 -0.4826
 3584TIP3   OH232166   3.521   3.412  15.219 -0.6101 -0.3042 -0.3317
 3584TIP3    H132167   3.494   3.402  15.310 -2.0321  0.4415 -0.6687
 3584TIP3    H232168   3.444   3.387  15.168  0.7739 -2.6136 -1.3861
 3585TIP3   OH232169   2.843   5.921   3.991 -0.0234  0.2430 -0.4109
 3585TIP3    H132170   2.845   5.878   3.905 -0.1464  1.1231 -0.8580
 3585TIP3    H232171   2.858   6.014   3.972  1.0004  0.2960  0.6301
 3586TIP3   OH232172   2.373   2.012  17.120  0.0270 -0.0636  0.3755
 3586TIP3    H132173   2.432   2.084  17.141  0.1452  0.0253 -0.2307
 3586TIP3    H232174   2.286   2.051  17.120  0.0917  0.0896  0.0398
 3587TIP3   OH232175   0.278   4.448   2.775  0.1153 -0.2319  0.3500
 3587TIP3    H132176   0.371   4.427   2.778 -0.2758 -2.1058  0.0163
 3587TIP3    H232177   0.244   4.420   2.860 -0.1755  0.2884  0.4057
 3588TIP3   OH232178   3.751   1.683   5.277  0.7812  0.2068  0.2829
 3588TIP3    H132179   3.819   1.748   5.295  2.4475 -1.4067  0.0113
 3588TIP3    H232180   3.729   1.647   5.362  0.6426  0.3645  0.3131
 3589TIP3   OH232181   2.763   1.592   1.499 -0.0453  0.4922 -0.2230
 3589TIP3    H132182   2.778   1.528   1.569  0.1094 -0.8026 -1.4039
 3589TIP3    H232183   2.704   1.546   1.438 -0.4789  1.7366 -0.7459
 3590TIP3   OH232184   5.649   5.856  13.501 -0.4545  0.4493  0.1039
 3590TIP3    H132185   5.733   5.885  13.465 -0.2669 -0.1754  0.0349
 3590TIP3    H232186   5.670   5.823  13.588 -0.8935  1.8489  0.7564
 3591TIP3   OH232187   5.933   0.882  14.258 -0.5187 -0.0619 -0.1907
 3591TIP3    H132188   5.949   0.832  14.337  1.0841 -0.7151 -0.9068
 3591TIP3    H232189   5.897   0.819  14.195  3.4507 -0.8928 -1.7753
 3592TIP3   OH232190   1.313   5.122   5.356 -0.5846 -0.6912 -0.0858
 3592TIP3    H132191   1.247   5.060   5.385  1.0528 -1.9545  0.9747
 3592TIP3    H232192   1.303   5.197   5.414 -0.6137 -1.1775  0.5393
 3593TIP3   OH232193   0.480   5.769   2.524 -0.2015  0.1976 -0.0454
 3593TIP3    H132194   0.473   5.735   2.434  0.1598  0.9783 -0.3763
 3593TIP3    H232195   0.409   5.727   2.571 -0.8813  0.3762 -0.8953
 3594TIP3   OH232196   3.564   5.809  11.855  0.8032  0.0807 -0.0406
 3594TIP3    H132197   3.652   5.815  11.818 -0.0318  2.2535 -1.7585
 3594TIP3    H232198   3.514   5.876  11.809 -1.4731 -0.3500  1.7307
 3595TIP3   OH232199   0.661   5.765  12.098  0.3567  0.4590 -0.0501
 3595TIP3    H132200   0.734   5.712  12.131  0.6892  1.9653  1.6619
 3595TIP3    H232201   0.702   5.845  12.065 -0.3090  0.3664 -1.1275
 3596TIP3   OH232202   1.945   4.457  11.626 -0.5648 -0.0185  0.0730
 3596TIP3    H132203   1.906   4.477  11.541 -1.1610 -1.1870  0.0659
 3596TIP3    H232204   1.937   4.362  11.635 -1.8940  0.2422  2.0924
 3597TIP3   OH232205   3.369   4.469  16.124 -0.0689  0.2404 -0.0392
 3597TIP3    H132206   3.410   4.545  16.166 -0.7472 -0.1045  1.2897
 3597TIP3    H232207   3.337   4.416  16.198 -0.7084 -0.7123 -0.9926
 3598TIP3   OH232208   5.696   2.912  13.199 -0.2554 -0.3166  0.0527
 3598TIP3    H132209   5.645   2.985  13.165 -0.3238  0.3717  1.5713
 3598TIP3    H232210   5.757   2.890  13.129 -0.2428  1.1942 -0.4275
 3599TIP3   OH232211   6.558   0.400  11.213  0.3580  0.1009 -0.5816
 3599TIP3    H132212   6.485   0.367  11.265  1.1748 -0.9731 -0.1012
 3599TIP3    H232213   6.533   0.490  11.190 -1.6909 -0.7028 -1.5421
 3600TIP3   OH232214   2.157   0.943  14.285  0.2174 -0.0051 -0.2173
 3600TIP3    H132215   2.207   0.907  14.211 -0.1802 -0.1049 -0.4411
 3600TIP3    H232216   2.223   0.960  14.352  0.8814  1.9141 -1.2937
 3601TIP3   OH232217   1.148   4.792   4.677 -0.0376  0.7079  0.1326
 3601TIP3    H132218   1.176   4.831   4.594  0.2760  0.3991  0.0940
 3601TIP3    H232219   1.229   4.771   4.722 -0.1758 -1.4615 -0.5807
 3602TIP3   OH232220   4.769   0.717   5.225  0.3142  0.6154  0.3122
 3602TIP3    H132221   4.748   0.786   5.162  2.3922 -0.5343 -1.7506
 3602TIP3    H232222   4.836   0.665   5.181  0.8711 -1.0196  2.9909
 3603TIP3   OH232223   0.212   2.712  14.373  0.7825 -0.1195 -0.5685
 3603TIP3    H132224   0.210   2.767  14.295  0.7860  1.2819  0.4100
 3603TIP3    H232225   0.134   2.737  14.422  2.0271  0.7220  1.0267
 3604TIP3   OH232226   2.649   6.550   5.344 -0.1758  0.3390 -0.1196
 3604TIP3    H132227   2.660   6.644   5.336  0.7369  0.6424  3.9674
 3604TIP3    H232228   2.556   6.537   5.360  0.0011  0.7223  1.2481
 3605TIP3   OH232229   3.255   3.355   1.086 -0.2024  0.4466  0.1666
 3605TIP3    H132230   3.282   3.275   1.041  1.0119  0.3884  0.9949
 3605TIP3    H232231   3.164   3.337   1.113  0.0409 -0.6380  0.3061
 3606TIP3   OH232232   5.862   0.188  11.693 -0.4180 -0.8509  0.6277
 3606TIP3    H132233   5.896   0.266  11.649  0.1000 -0.9505  0.8401
 3606TIP3    H232234   5.894   0.195  11.783 -1.0081 -0.9264  0.8459
 3607TIP3   OH232235   4.291   1.067  12.673 -0.2746 -0.0311  0.2639
 3607TIP3    H132236   4.288   1.090  12.580 -1.1262  1.9432  0.7486
 3607TIP3    H232237   4.260   0.977  12.676  1.5428 -0.7657 -1.5472
 3608TIP3   OH232238   1.767   3.984  16.944  0.2961 -0.4136  0.4006
 3608TIP3    H132239   1.727   3.976  16.858  0.7378 -0.2723  0.1866
 3608TIP3    H232240   1.695   4.011  17.001 -0.1174 -1.0444  0.1862
 3609TIP3   OH232241   4.630   4.122   3.434  0.1782 -0.0551  0.1336
 3609TIP3    H132242   4.560   4.174   3.396 -1.6429  0.1035  3.5461
 3609TIP3    H232243   4.610   4.032   3.408 -0.8043  0.0867  0.4082
 3610TIP3   OH232244   4.756   2.961   2.054  0.3186 -0.2515 -0.3249
 3610TIP3    H132245   4.780   2.868   2.045  1.3868  0.1671 -1.9880
 3610TIP3    H232246   4.820   2.996   2.115  0.4580 -0.4116 -0.3793
 3611TIP3   OH232247   1.463   0.065  13.467  0.2025  0.7122  0.5112
 3611TIP3    H132248   1.547   0.102  13.440  0.5428  0.3529  1.0614
 3611TIP3    H232249   1.481  -0.029  13.476 -0.6950  0.3658 -1.0857
 3612TIP3   OH232250   0.105   2.200   4.043  0.0678 -0.3430 -0.4378
 3612TIP3    H132251   0.111   2.295   4.031  0.0563  0.1403  2.9343
 3612TIP3    H232252   0.027   2.174   3.995 -1.0347  1.6575  0.2356
 3613TIP3   OH232253   4.738   0.230   4.649  0.0282  0.3926 -0.8297
 3613TIP3    H132254   4.726   0.140   4.681 -3.1926  0.5939 -1.3296
 3613TIP3    H232255   4.769   0.278   4.726 -0.8478 -0.6124  0.1881
 3614TIP3   OH232256   0.062   3.477   3.443 -0.3012 -0.0649 -0.7225
 3614TIP3    H132257  -0.000   3.493   3.514 -1.3656 -0.8520 -1.4580
 3614TIP3    H232258   0.097   3.390   3.460  0.2646  0.1942 -0.5593
 3615TIP3   OH232259   3.911   5.515   2.502  0.2551  0.1664 -0.3638
 3615TIP3    H132260   3.837   5.535   2.560  0.8994  0.2058  0.4465
 3615TIP3    H232261   3.907   5.583   2.434  0.4776  1.1139  0.5524
 3616TIP3   OH232262   2.725   1.670   0.775 -0.7915 -0.1052  0.0940
 3616TIP3    H132263   2.776   1.595   0.804  0.7824  0.8116 -0.2460
 3616TIP3    H232264   2.759   1.744   0.826  1.0770  1.2615 -2.9617
 3617TIP3   OH232265   5.209   4.796   2.440  0.4391  0.2003  0.2254
 3617TIP3    H132266   5.197   4.878   2.393  1.9647  0.9212  1.0549
 3617TIP3    H232267   5.297   4.802   2.477 -0.3015 -0.7897  2.2731
 3618TIP3   OH232268   0.970   0.620  14.734  0.3107  0.1484 -0.1040
 3618TIP3    H132269   0.921   0.588  14.657  1.2403 -1.1355 -0.1744
 3618TIP3    H232270   1.061   0.625  14.704  0.6065  0.0849  0.7864
 3619TIP3   OH232271   5.032   1.031   1.902  0.2100 -0.1256  0.5992
 3619TIP3    H132272   5.072   1.049   1.817  1.1818 -0.3557  1.0088
 3619TIP3    H232273   4.939   1.053   1.889  0.3470 -0.1570 -0.5160
 3620TIP3   OH232274   2.342   5.331   4.635  0.0158  0.0905 -0.3935
 3620TIP3    H132275   2.414   5.269   4.627  0.5180  0.3507  1.7831
 3620TIP3    H232276   2.292   5.320   4.554  0.2327 -2.9583 -0.1710
 3621TIP3   OH232277   4.635   1.726   0.161 -0.0035 -0.0537  0.5717
 3621TIP3    H132278   4.695   1.684   0.099  0.0858 -0.4517  0.9280
 3621TIP3    H232279   4.652   1.683   0.244 -2.7392 -2.1606  0.1217
 3622TIP3   OH232280   6.043   1.621  14.883 -0.4838  0.3344 -0.2743
 3622TIP3    H132281   6.112   1.563  14.852 -0.4066  0.2124  0.1328
 3622TIP3    H232282   5.986   1.632  14.807  0.4676  1.1660 -0.8879
 3623TIP3   OH232283   0.903   4.864  12.659  0.3042  0.2601  0.1209
 3623TIP3    H132284   0.851   4.787  12.635 -0.9670  1.7542 -2.1405
 3623TIP3    H232285   0.883   4.878  12.752 -1.6358 -0.4941 -0.1531
 3624TIP3   OH232286   5.043   6.620  15.841 -0.0257  0.1812 -0.6608
 3624TIP3    H132287   5.109   6.689  15.844 -0.7951  0.9902 -1.7244
 3624TIP3    H232288   4.992   6.639  15.762 -0.5116 -1.3671 -0.7441
 3625TIP3   OH232289   1.247   0.791   4.989 -0.3248 -0.5749  0.4915
 3625TIP3    H132290   1.291   0.867   4.950 -2.5306  0.2326 -0.4704
 3625TIP3    H232291   1.166   0.825   5.025 -1.0261 -2.3604  0.6675
 3626TIP3   OH232292   2.618   2.011   5.442 -0.2469 -0.4507 -0.1373
 3626TIP3    H132293   2.616   2.106   5.429 -2.4903 -0.3551  0.7716
 3626TIP3    H232294   2.561   1.976   5.374 -0.6070 -1.0333  0.4614
 3627TIP3   OH232295   3.108   1.460  11.840 -0.2797 -0.9589  0.4477
 3627TIP3    H132296   3.067   1.479  11.755 -0.7743  1.0405  1.1117
 3627TIP3    H232297   3.060   1.384  11.874  1.1683 -2.9999 -1.8913
 3628TIP3   OH232298   2.367   4.961  13.185 -0.1623  0.2223 -0.0447
 3628TIP3    H132299   2.297   5.011  13.145  1.4856  1.2992 -1.6591
 3628TIP3    H232300   2.359   4.873  13.148 -1.0871  0.1357  0.3446
 3629TIP3   OH232301   2.954   5.141   0.975  0.2919 -0.6778  0.1220
 3629TIP3    H132302   2.961   5.076   0.904 -1.2830 -0.4135 -0.2902
 3629TIP3    H232303   2.879   5.195   0.951  1.1346  0.8496  0.8495
 3630TIP3   OH232304   1.610   2.307   5.152  0.7122  0.6813 -0.2178
 3630TIP3    H132305   1.682   2.256   5.114  0.6168 -0.4344  1.0510
 3630TIP3    H232306   1.534   2.249   5.146  0.0843  1.5574 -0.8307
 3631TIP3   OH232307   0.532   2.694   3.778  0.6233  0.0999 -0.6018
 3631TIP3    H132308   0.460   2.631   3.788  1.7305 -0.9719  0.7294
 3631TIP3    H232309   0.566   2.706   3.866  2.6408 -0.0640 -1.3390
 3632TIP3   OH232310   0.122   0.827   2.403 -0.0190 -0.2065  0.6735
 3632TIP3    H132311   0.031   0.809   2.426 -0.3942  1.6646  0.6984
 3632TIP3    H232312   0.162   0.857   2.484 -0.0114  1.3317  0.1115
 3633TIP3   OH232313   1.920   2.183  10.534 -0.3455 -0.3394 -0.7909
 3633TIP3    H132314   1.955   2.113  10.589 -4.0044 -0.7191  1.1879
 3633TIP3    H232315   1.955   2.263  10.573  0.4461 -0.8324 -0.4719
 3634TIP3   OH232316   3.401   5.845  12.961 -0.5636 -0.5655 -0.0966
 3634TIP3    H132317   3.438   5.806  12.882 -1.5869 -2.1749  0.1971
 3634TIP3    H232318   3.343   5.915  12.928  2.2771  1.6859 -0.5753
 3635TIP3   OH232319   4.988   3.454   1.203  0.1355  0.1211  0.4263
 3635TIP3    H132320   4.944   3.428   1.284 -0.7424  2.1203  0.6109
 3635TIP3    H232321   4.959   3.390   1.138 -1.4166  0.1879  1.0370
 3636TIP3   OH232322   2.294   4.188   3.295 -0.1494  0.0577  0.3936
 3636TIP3    H132323   2.290   4.223   3.206 -0.7434  1.8897  1.1170
 3636TIP3    H232324   2.387   4.169   3.309  0.0290  0.3228 -0.4005
 3637TIP3   OH232325   5.870   3.673  14.128  0.0736  0.3432  0.3100
 3637TIP3    H132326   5.876   3.768  14.118  0.2672  0.5054  1.7802
 3637TIP3    H232327   5.784   3.658  14.168 -1.6886 -0.4545 -3.5592
 3638TIP3   OH232328   5.571   3.031   1.379 -0.1207  0.0822 -0.7859
 3638TIP3    H132329   5.624   3.047   1.457 -1.1153  1.6637 -0.4018
 3638TIP3    H232330   5.565   3.117   1.336 -0.2498 -0.6030 -2.1645
 3639TIP3   OH232331   0.491   3.383  11.885  0.3086  0.0513 -0.0553
 3639TIP3    H132332   0.539   3.433  11.819  1.3421 -0.4241  0.3280
 3639TIP3    H232333   0.532   3.297  11.886 -2.0116 -1.1097 -1.2983
 3640TIP3   OH232334   0.722   2.366   5.779 -0.0499 -0.7101  0.2119
 3640TIP3    H132335   0.630   2.375   5.803  0.2345  0.9054  0.7401
 3640TIP3    H232336   0.723   2.374   5.684 -0.4665 -0.9696  0.1825
 3641TIP3   OH232337   5.087   3.484   2.224  0.9290  0.3744 -0.6120
 3641TIP3    H132338   5.059   3.541   2.296  0.9715  0.2108 -0.4648
 3641TIP3    H232339   5.030   3.407   2.232  0.9709  0.3329 -0.7205
 3642TIP3   OH232340   2.180   3.161  15.976  0.1567 -0.1412 -0.0218
 3642TIP3    H132341   2.115   3.131  16.039  0.4668  1.1216  0.9262
 3642TIP3    H232342   2.132   3.168  15.894 -0.8522  0.5481  0.6104
 3643TIP3   OH232343   3.537   3.668   5.592 -0.4111 -0.3112 -0.4477
 3643TIP3    H132344   3.559   3.590   5.542 -2.1700 -0.4325 -1.0487
 3643TIP3    H232345   3.548   3.642   5.684  1.7453 -0.4083 -0.6938
 3644TIP3   OH232346   3.268   6.329  12.496 -0.0244  0.1540  0.0304
 3644TIP3    H132347   3.334   6.272  12.534  0.3763  1.4350  1.2910
 3644TIP3    H232348   3.223   6.368  12.571 -3.3212 -1.8713 -0.7561
 3645TIP3   OH232349   5.572   6.739  10.400 -0.1375  0.3048  0.3820
 3645TIP3    H132350   5.652   6.703  10.362 -0.6223 -0.5403  0.1672
 3645TIP3    H232351   5.503   6.678  10.375 -1.1766  1.9957 -1.0325
 3646TIP3   OH232352   0.905   5.342  16.138  1.0686  0.1537 -0.5656
 3646TIP3    H132353   0.951   5.281  16.196  0.7062  0.1802 -0.2471
 3646TIP3    H232354   0.953   5.424  16.147  2.1690 -0.3346 -1.7609
 3647TIP3   OH232355   1.198   0.229   2.409  0.8747 -0.1793  0.2277
 3647TIP3    H132356   1.208   0.322   2.429 -1.6323  0.2433 -0.3242
 3647TIP3    H232357   1.142   0.196   2.480  1.9228 -1.3174  0.5334
 3648TIP3   OH232358   3.951   1.225  14.579  0.3284  0.0177 -0.3707
 3648TIP3    H132359   4.022   1.161  14.569  0.4867 -0.0102  0.7896
 3648TIP3    H232360   3.879   1.175  14.617 -0.6065 -0.1287 -2.2937
 3649TIP3   OH232361   2.059   5.487   2.282 -0.4585 -0.8735 -0.4113
 3649TIP3    H132362   1.998   5.416   2.299 -1.4534 -0.0028 -0.2670
 3649TIP3    H232363   2.006   5.555   2.240  0.6666 -0.5688 -1.3571
 3650TIP3   OH232364   3.819   4.566  15.426  0.7601  0.1833 -0.6300
 3650TIP3    H132365   3.751   4.579  15.359  1.0252 -0.6328 -1.0618
 3650TIP3    H232366   3.843   4.655  15.452 -0.9315  0.4852 -0.0014
 3651TIP3   OH232367   3.540   5.952  15.178  0.1380  0.8311 -0.0937
 3651TIP3    H132368   3.567   6.038  15.148  1.0358  0.8968  0.8836
 3651TIP3    H232369   3.622   5.905  15.195 -0.3347 -0.3542 -0.9909
 3652TIP3   OH232370   0.926   3.528   1.473 -0.0183 -0.1591  0.1981
 3652TIP3    H132371   0.857   3.497   1.415  0.1147  1.3795 -0.8324
 3652TIP3    H232372   0.969   3.598   1.423  1.2895 -0.0673  1.4281
 3653TIP3   OH232373   1.763   3.096  14.437 -0.1242  0.8197 -0.3140
 3653TIP3    H132374   1.748   3.075  14.344  0.3335  0.1217 -0.2335
 3653TIP3    H232375   1.677   3.120  14.470 -0.7538 -1.3034 -0.3266
 3654TIP3   OH232376   1.982   5.604  15.814 -0.0900  0.1497 -0.2847
 3654TIP3    H132377   1.968   5.691  15.851 -2.2591 -0.4008  0.3201
 3654TIP3    H232378   2.022   5.554  15.885 -0.1376  0.2936 -0.1551
 3655TIP3   OH232379   0.206   0.034   5.211  0.2168 -0.3306 -0.2999
 3655TIP3    H132380   0.220  -0.047   5.162 -0.7920 -0.2024 -0.8147
 3655TIP3    H232381   0.172   0.006   5.295 -1.6244 -0.3927 -1.0350
 3656TIP3   OH232382   1.351   5.952   5.046  0.2972 -0.1531 -0.1839
 3656TIP3    H132383   1.261   5.920   5.059 -0.0472  1.5234  1.7085
 3656TIP3    H232384   1.343   6.016   4.975 -0.5548  2.1710  1.9464
 3657TIP3   OH232385   4.805   0.474   2.921 -0.2247  0.0886 -0.0294
 3657TIP3    H132386   4.880   0.523   2.886 -0.5559  1.1055  0.6926
 3657TIP3    H232387   4.736   0.539   2.931 -0.9603 -0.7003  0.0734
 3658TIP3   OH232388   1.987   2.607   1.566 -0.3754 -0.1794 -0.5455
 3658TIP3    H132389   1.965   2.526   1.520 -2.5480  0.7673 -1.2139
 3658TIP3    H232390   2.080   2.621   1.545 -0.6904 -1.0315 -2.6857
 3659TIP3   OH232391   2.252   0.896   0.664 -0.0988  0.3963 -0.1724
 3659TIP3    H132392   2.297   0.965   0.713 -0.2780 -0.3869  1.1357
 3659TIP3    H232393   2.210   0.843   0.732  0.3432 -1.2115 -1.1345
 3660TIP3   OH232394   5.355   2.591   1.986 -0.0157  0.5204 -0.4766
 3660TIP3    H132395   5.414   2.607   2.060 -0.0059  0.4583 -0.4717
 3660TIP3    H232396   5.373   2.501   1.959 -1.4232 -0.1344  0.7170
 3661TIP3   OH232397   2.432   0.688  15.697 -0.2935  0.9539  0.2050
 3661TIP3    H132398   2.350   0.655  15.734 -0.4117 -0.3429 -1.1591
 3661TIP3    H232399   2.406   0.768  15.650 -0.7329  0.7027  0.0126
 3662TIP3   OH232400   2.543   0.868  14.099  0.0719 -0.6305 -0.0565
 3662TIP3    H132401   2.547   0.776  14.126  1.1369 -0.8884 -1.0581
 3662TIP3    H232402   2.590   0.915  14.169 -1.0862 -0.7526  0.8146
 3663TIP3   OH232403   3.752   4.335   4.081  0.2778  0.5620  0.1754
 3663TIP3    H132404   3.752   4.250   4.037  1.1937  0.7417 -0.1823
 3663TIP3    H232405   3.815   4.387   4.032  1.0901  0.8612  1.5067
 3664TIP3   OH232406   4.393   5.406  12.033  0.2683 -0.0064  0.0336
 3664TIP3    H132407   4.374   5.432  11.943  3.2159  1.6430 -0.1766
 3664TIP3    H232408   4.482   5.371  12.030  1.0732  1.6562  2.5754
 3665TIP3   OH232409   2.709   0.220   6.074  0.2170  0.4502 -0.1681
 3665TIP3    H132410   2.660   0.302   6.079 -0.3286  0.1616 -0.7034
 3665TIP3    H232411   2.642   0.153   6.064  0.5654 -0.2173  1.7038
 3666TIP3   OH232412   6.214   4.982  15.210  0.0501  1.0359  0.2094
 3666TIP3    H132413   6.288   5.041  15.199  0.5690  0.4800  0.6566
 3666TIP3    H232414   6.235   4.931  15.289 -0.0928 -0.1575 -0.5044
 3667TIP3   OH232415   2.364   0.946   3.663  0.5467  0.1823 -0.1409
 3667TIP3    H132416   2.285   1.000   3.671  0.9288  0.5763  1.0114
 3667TIP3    H232417   2.370   0.899   3.746  1.9555  0.7498  0.0992
 3668TIP3   OH232418   1.129   2.481   2.220  0.1718  0.2308 -0.0812
 3668TIP3    H132419   1.199   2.456   2.160  0.6938  0.2207  0.5311
 3668TIP3    H232420   1.063   2.413   2.208 -0.6023  1.2640 -2.0642
 3669TIP3   OH232421   1.555   3.960  15.896 -0.0546  0.3926  0.4166
 3669TIP3    H132422   1.597   4.046  15.891 -1.2361  0.9266 -0.5397
 3669TIP3    H232423   1.475   3.975  15.946 -0.8955  0.1147 -0.8295
 3670TIP3   OH232424   3.994   2.402  13.341  0.2537  0.2079  0.1000
 3670TIP3    H132425   4.008   2.441  13.428  0.7521 -0.2496  0.2325
 3670TIP3    H232426   3.900   2.391  13.335 -0.2109  3.9423 -1.0370
 3671TIP3   OH232427   6.598   0.877  11.065 -0.3355  0.0161  0.3677
 3671TIP3    H132428   6.597   0.922  10.980  1.2519  0.3374  0.5031
 3671TIP3    H232429   6.530   0.921  11.116 -1.5034 -0.3685 -0.8212
 3672TIP3   OH232430   4.780   0.513  15.879  0.0176  0.8155 -0.0657
 3672TIP3    H132431   4.690   0.518  15.910 -0.3917  0.5102 -1.2074
 3672TIP3    H232432   4.814   0.602  15.892 -0.3782  0.8765  0.5707
 3673TIP3   OH232433   3.610   6.598   0.448  0.6624 -0.3303  0.3876
 3673TIP3    H132434   3.547   6.605   0.376  1.3642  0.2728 -0.1827
 3673TIP3    H232435   3.690   6.639   0.414  0.8339  0.4576  1.7009
 3674TIP3   OH232436   1.405   4.340   4.649 -0.4972 -0.1377 -0.0824
 3674TIP3    H132437   1.476   4.319   4.588  0.1330 -0.0163  0.6046
 3674TIP3    H232438   1.414   4.435   4.663 -1.1108 -0.0308 -0.3830
 3675TIP3   OH232439   3.077   3.313  11.997 -0.1668 -0.1635 -0.2835
 3675TIP3    H132440   3.006   3.311  11.933 -3.0349 -0.3835  2.8266
 3675TIP3    H232441   3.122   3.229  11.985 -1.9132 -1.0695 -0.6601
 3676TIP3   OH232442   4.081   1.758  15.941  0.1729 -0.5276  0.3592
 3676TIP3    H132443   4.151   1.694  15.934  1.7648  1.2695 -0.6595
 3676TIP3    H232444   4.104   1.811  16.017 -0.8338 -0.8172  0.8680
 3677TIP3   OH232445   1.852   5.284   5.790  0.3475  0.3558  0.1219
 3677TIP3    H132446   1.892   5.315   5.708 -0.6563  1.1137 -0.1013
 3677TIP3    H232447   1.781   5.226   5.761  0.0692  0.5308  0.4451
 3678TIP3   OH232448   3.155   1.868  15.695  0.0942  0.1433  0.6001
 3678TIP3    H132449   3.218   1.807  15.656 -1.4978 -1.1165 -0.0814
 3678TIP3    H232450   3.209   1.927  15.748  1.8672 -0.7282 -0.1629
 3679TIP3   OH232451   2.520   5.022  15.033  0.2985  0.5171 -0.2505
 3679TIP3    H132452   2.605   4.987  15.006 -0.2506  0.3205 -1.7923
 3679TIP3    H232453   2.539   5.110  15.064  1.0713  0.4723 -0.5924
 3680TIP3   OH232454   4.390   3.167  11.910  0.2896 -0.3559 -0.6365
 3680TIP3    H132455   4.446   3.130  11.842  0.3548  0.3340 -0.9518
 3680TIP3    H232456   4.326   3.097  11.928  1.1374 -1.0821 -0.3884
 3681TIP3   OH232457   5.821   6.370   3.634  0.1692  0.0681  0.0139
 3681TIP3    H132458   5.886   6.357   3.566  0.3727  0.5373  0.1167
 3681TIP3    H232459   5.812   6.465   3.641 -1.7152 -0.0102 -1.1257
 3682TIP3   OH232460   3.644   3.216  14.711 -0.5362  0.1176 -0.0499
 3682TIP3    H132461   3.704   3.273  14.758  0.0861 -0.1372 -0.5223
 3682TIP3    H232462   3.677   3.128  14.727  0.2779  0.0912 -1.7603
 3683TIP3   OH232463   2.393   1.042  16.006 -0.1885  0.5211  0.2909
 3683TIP3    H132464   2.331   1.063  16.076  0.4965  2.4509  0.3534
 3683TIP3    H232465   2.442   0.967  16.039  0.5094  1.7606  2.1587
 3684TIP3   OH232466   2.331   4.000  10.684 -0.2892  0.1506  0.2918
 3684TIP3    H132467   2.314   4.066  10.751  0.8395 -0.1230  0.8590
 3684TIP3    H232468   2.404   4.035  10.633 -1.3767  0.5220 -1.0346
 3685TIP3   OH232469   4.083   5.836  15.343 -0.7328 -0.2687  0.8138
 3685TIP3    H132470   4.013   5.771  15.337 -2.1670  1.1782  1.4286
 3685TIP3    H232471   4.124   5.820  15.428 -2.3382  0.8535  1.8120
 3686TIP3   OH232472   4.428   3.989  16.738 -0.1345  0.6538  0.0081
 3686TIP3    H132473   4.499   3.971  16.676 -0.2263  2.4544 -0.6582
 3686TIP3    H232474   4.472   4.031  16.812 -0.6537  3.4734 -1.1823
 3687TIP3   OH232475   3.354   1.313  15.303 -0.4339 -0.5362  0.5980
 3687TIP3    H132476   3.353   1.267  15.387  0.7428 -0.5332  0.6190
 3687TIP3    H232477   3.277   1.369  15.305  0.9507  1.3699  2.7425
 3688TIP3   OH232478   2.135   0.364  14.545 -0.3706 -0.3833  0.3518
 3688TIP3    H132479   2.208   0.410  14.587  0.5654 -1.4174 -0.1261
 3688TIP3    H232480   2.115   0.291  14.603  2.0996 -2.8785 -1.7826
 3689TIP3   OH232481   4.198   3.472  16.922  0.0249  0.1834 -0.3153
 3689TIP3    H132482   4.222   3.550  16.872  1.1282  0.7415  1.0468
 3689TIP3    H232483   4.184   3.505  17.011 -1.7962 -0.8018 -0.2118
 3690TIP3   OH232484   3.378   4.406   0.020 -0.4819 -0.9425  0.0408
 3690TIP3    H132485   3.357   4.397   0.113  0.9549 -1.1874  0.3584
 3690TIP3    H232486   3.393   4.500   0.008  2.0995 -1.2047  0.7214
 3691TIP3   OH232487   1.170   4.537  13.679 -0.5342 -0.1234  0.2972
 3691TIP3    H132488   1.131   4.465  13.629 -0.8228  0.8214 -0.8385
 3691TIP3    H232489   1.137   4.524  13.768 -0.7723 -1.2623  0.0542
 3692TIP3   OH232490   1.491   2.033  16.136  0.0999  0.1886 -0.3341
 3692TIP3    H132491   1.506   2.101  16.202  1.1175 -0.4318  0.0904
 3692TIP3    H232492   1.544   1.959  16.166 -0.7969 -0.7029 -0.9299
 3693TIP3   OH232493   6.041   1.050  14.906 -0.3691 -0.3217 -0.3448
 3693TIP3    H132494   6.011   0.961  14.884 -0.0495 -0.4634 -0.2118
 3693TIP3    H232495   5.961   1.098  14.924 -0.5979 -0.3562 -1.2550
 3694TIP3   OH232496   0.512   6.273   1.605 -0.6702  0.2182  0.4048
 3694TIP3    H132497   0.575   6.200   1.603 -0.8369  0.0833 -1.6300
 3694TIP3    H232498   0.563   6.349   1.578 -0.9561  0.4700  0.5764
 3695TIP3   OH232499   2.011   0.811   2.982  0.1909 -0.3537 -0.0718
 3695TIP3    H132500   1.991   0.717   2.989  1.3750 -0.5630  0.5238
 3695TIP3    H232501   2.061   0.831   3.062  1.0282  0.5095 -0.8049
 3696TIP3   OH232502   5.166   0.721   0.156  0.2406  0.0059  0.3381
 3696TIP3    H132503   5.205   0.696   0.239  1.9996 -0.7070 -0.6864
 3696TIP3    H232504   5.074   0.697   0.164  0.6706 -1.2512  1.6006
 3697TIP3   OH232505   0.709   1.287  13.587  0.0674 -0.5318  0.3070
 3697TIP3    H132506   0.763   1.336  13.649 -0.3922  1.5111 -0.8620
 3697TIP3    H232507   0.625   1.276  13.631  0.0159  0.1762  0.3946
 3698TIP3   OH232508   0.390   2.664   0.002 -0.0282  0.1599 -0.5856
 3698TIP3    H132509   0.486   2.667   0.006 -0.0433  0.6922 -0.6634
 3698TIP3    H232510   0.372   2.584  -0.048  0.3373 -0.7060  0.6269
 3699TIP3   OH232511   6.092   0.581  15.490 -0.0972  0.0964  0.0064
 3699TIP3    H132512   6.121   0.657  15.439  1.8498 -0.0354  0.8830
 3699TIP3    H232513   6.081   0.615  15.579  0.6820 -0.6107  0.3793
 3700TIP3   OH232514   2.078   3.831   2.181 -0.5919  0.4419 -0.4336
 3700TIP3    H132515   2.131   3.842   2.102  1.1469  0.8198  0.7485
 3700TIP3    H232516   2.120   3.760   2.229 -0.7961  1.1209  0.7997
 3701TIP3   OH232517   2.821   0.793   5.520  0.2134 -0.0867  0.3849
 3701TIP3    H132518   2.914   0.811   5.507  0.1096 -1.5840 -2.9701
 3701TIP3    H232519   2.792   0.860   5.583  3.5192  0.3777  1.5102
 3702TIP3   OH232520   1.462   3.210   3.645 -0.0681  0.2166 -0.1884
 3702TIP3    H132521   1.405   3.173   3.714  0.8626  2.0289  1.5958
 3702TIP3    H232522   1.404   3.217   3.569 -0.9886 -2.3354  0.1969
 3703TIP3   OH232523   5.533   6.602  11.773  0.4746  0.0545  0.0429
 3703TIP3    H132524   5.479   6.619  11.695 -0.5229  1.0571  0.9251
 3703TIP3    H232525   5.581   6.684  11.786 -1.0289  0.6963  1.7593
 3704TIP3   OH232526   1.041   2.693  12.854  0.1560 -0.2064 -0.4076
 3704TIP3    H132527   1.087   2.618  12.817  2.0062  0.5218  0.3231
 3704TIP3    H232528   1.008   2.662  12.938  1.7241  0.0287  0.3194
 3705TIP3   OH232529   3.497   2.574   4.953 -0.5832  0.3655 -0.2406
 3705TIP3    H132530   3.541   2.612   4.877 -0.6446 -0.5865 -0.7514
 3705TIP3    H232531   3.545   2.493   4.970  0.5481  1.4266  1.8080
 3706TIP3   OH232532   4.847   2.885   0.789  0.4907 -0.1678  0.5098
 3706TIP3    H132533   4.839   2.964   0.736 -0.7471  1.4571  3.0220
 3706TIP3    H232534   4.909   2.830   0.741  0.2068  1.6716 -2.0459
 3707TIP3   OH232535   3.994   4.446  13.809  0.1191 -0.2423 -0.4826
 3707TIP3    H132536   3.953   4.516  13.859 -0.5183 -0.9357 -0.0031
 3707TIP3    H232537   4.077   4.429  13.854 -0.9540 -1.6240  1.0679
 3708TIP3   OH232538   1.742   1.526  13.488  0.0712  0.7435  0.2492
 3708TIP3    H132539   1.734   1.516  13.393 -1.4054 -1.9031  0.6011
 3708TIP3    H232540   1.654   1.549  13.517 -0.1945 -1.3612  1.2458
 3709TIP3   OH232541   4.661   1.964  13.657 -0.0746  0.1557 -0.6310
 3709TIP3    H132542   4.685   1.987  13.746 -1.0113  0.3134 -0.4120
 3709TIP3    H232543   4.686   1.872  13.648 -1.0976 -0.2180  0.2048
 3710TIP3   OH232544   3.845   2.601  10.860  0.0672  0.1826  0.0226
 3710TIP3    H132545   3.900   2.598  10.938  0.7835  0.9239 -0.4499
 3710TIP3    H232546   3.777   2.665  10.881  0.1828  0.2848  0.0847
 3711TIP3   OH232547   3.111   2.807   2.823  0.2090  0.6246  0.9726
 3711TIP3    H132548   3.195   2.814   2.869  0.3234  0.1528  0.8397
 3711TIP3    H232549   3.127   2.742   2.755 -0.4793 -0.0098  1.4126
 3712TIP3   OH232550   6.537   5.974   5.671 -0.0651  0.1692 -0.8086
 3712TIP3    H132551   6.586   5.900   5.635  0.0952 -0.7628  1.2558
 3712TIP3    H232552   6.446   5.956   5.646 -0.0224 -0.7054 -0.3565
 3713TIP3   OH232553   4.975   6.597  12.797  0.1676  0.2437  0.4814
 3713TIP3    H132554   4.948   6.524  12.742 -0.1935  1.5127 -1.0631
 3713TIP3    H232555   5.070   6.604  12.782 -0.1241  1.3177 -0.8780
 3714TIP3   OH232556   0.047   1.665   1.250  0.2159 -0.3575 -0.3018
 3714TIP3    H132557   0.077   1.756   1.246 -0.0912 -0.3272 -2.4227
 3714TIP3    H232558   0.010   1.656   1.338  0.4822  1.4989  0.0198
 3715TIP3   OH232559   3.964   1.428  15.225  0.0686  0.0896 -0.4757
 3715TIP3    H132560   3.881   1.382  15.213 -0.2963  1.0143 -1.6625
 3715TIP3    H232561   3.939   1.519  15.239  0.8395  0.1634  0.4938
 3716TIP3   OH232562   3.452   4.604   1.369  0.4920  0.4424 -0.1265
 3716TIP3    H132563   3.433   4.533   1.307  0.5888  1.5822 -1.4705
 3716TIP3    H232564   3.519   4.657   1.325 -0.6607  2.2154  0.2112
 3717TIP3   OH232565   2.270   4.309  13.493  0.3229  0.8380  0.1380
 3717TIP3    H132566   2.315   4.261  13.423 -0.1519  0.8592 -0.1873
 3717TIP3    H232567   2.295   4.264  13.573 -1.4685 -1.0504 -0.3128
 3718TIP3   OH232568   6.070   1.697  11.209  0.3971 -0.1519  0.4365
 3718TIP3    H132569   6.043   1.713  11.118  0.1765 -0.0987  0.5116
 3718TIP3    H232570   6.004   1.741  11.262  1.8511  1.8922  0.6087
 3719TIP3   OH232571   1.582   5.756  16.494 -0.0540  0.2229 -0.1216
 3719TIP3    H132572   1.612   5.807  16.570  0.2272 -0.8893  0.5230
 3719TIP3    H232573   1.518   5.813  16.451 -1.1168  0.3937  1.6286
 3720TIP3   OH232574   1.134   0.359  13.027  0.3676 -0.3248 -0.1096
 3720TIP3    H132575   1.072   0.286  13.027 -0.0523  0.0268  0.5623
 3720TIP3    H232576   1.184   0.348  12.947 -0.1654 -0.9559 -0.3592
 3721TIP3   OH232577   4.338   5.473  11.783  0.3737 -0.1528 -0.0478
 3721TIP3    H132578   4.327   5.451  11.690  0.9487 -0.2251 -0.1047
 3721TIP3    H232579   4.261   5.525  11.805 -0.3620 -1.1439 -0.2543
 3722TIP3   OH232580   0.366   4.621  15.939 -0.4863 -0.3073  0.5588
 3722TIP3    H132581   0.420   4.654  16.011  0.0263  2.8758 -1.1780
 3722TIP3    H232582   0.277   4.649  15.960 -0.2515  1.1295 -0.2609
 3723TIP3   OH232583   3.599   4.941   5.679  0.7102 -0.0411 -0.0521
 3723TIP3    H132584   3.605   4.953   5.585  1.7043 -0.3092 -0.0360
 3723TIP3    H232585   3.552   4.858   5.691  0.7778 -0.1165 -0.3169
 3724TIP3   OH232586   2.148   6.313   1.013  0.0036  0.3357  0.5188
 3724TIP3    H132587   2.059   6.278   1.013 -0.2345  0.8995 -1.2435
 3724TIP3    H232588   2.183   6.291   0.927  0.8311  1.9473  0.4255
 3725TIP3   OH232589   0.003   1.554   0.428  0.2994 -0.1648 -0.0345
 3725TIP3    H132590   0.081   1.499   0.421 -0.0213 -0.5750 -0.4613
 3725TIP3    H232591  -0.047   1.534   0.349 -0.2501  0.0745  0.2521
 3726TIP3   OH232592   4.538   3.560   1.202 -0.1244  0.4278 -0.7514
 3726TIP3    H132593   4.447   3.587   1.187 -0.2548 -0.4962 -1.6109
 3726TIP3    H232594   4.579   3.638   1.239 -0.4286  1.9625 -3.5032
 3727TIP3   OH232595   4.976   4.586   3.552 -0.1694  0.4529 -0.2113
 3727TIP3    H132596   4.940   4.564   3.466  1.8964 -1.6753 -0.5553
 3727TIP3    H232597   5.053   4.640   3.532 -0.4143  1.0304  0.3785
 3728TIP3   OH232598   1.860   0.554   6.442  0.3164 -0.0363 -0.3312
 3728TIP3    H132599   1.841   0.645   6.419  1.2830 -0.4922 -3.2102
 3728TIP3    H232600   1.797   0.503   6.390 -0.9248 -1.0144  2.0485
 3729TIP3   OH232601   1.924   1.744   3.879 -0.1338 -0.3923 -0.6873
 3729TIP3    H132602   1.985   1.809   3.846  0.3501 -0.0484  0.8327
 3729TIP3    H232603   1.969   1.660   3.867  1.0318 -0.0692  1.2169
 3730TIP3   OH232604   3.540   1.283  16.563 -0.0495 -0.3211  0.4179
 3730TIP3    H132605   3.472   1.219  16.584 -0.5887 -0.3677 -1.4094
 3730TIP3    H232606   3.516   1.361  16.614  0.7265 -1.5981  2.7995
 3731TIP3   OH232607   4.391   5.240   3.586 -0.5260 -0.4212 -0.3662
 3731TIP3    H132608   4.469   5.192   3.560 -0.4556 -0.1872 -0.5883
 3731TIP3    H232609   4.423   5.315   3.636 -0.4188  1.2700 -2.8897
 3732TIP3   OH232610   4.592   3.437   5.390 -0.3084 -0.3205 -0.1707
 3732TIP3    H132611   4.510   3.438   5.341 -0.9915 -1.0060  0.9272
 3732TIP3    H232612   4.616   3.529   5.400  0.5527 -0.2041 -2.9277
 3733TIP3   OH232613   5.911   4.785   0.054 -0.0182 -0.3831  0.4986
 3733TIP3    H132614   5.855   4.812  -0.020  1.4548  0.2059 -0.4199
 3733TIP3    H232615   5.941   4.698   0.030  0.6440 -0.0985  0.2955
 3734TIP3   OH232616   5.026   5.192  11.847 -0.5983 -0.1571 -0.4432
 3734TIP3    H132617   4.986   5.202  11.933  0.9331  0.8918  0.1648
 3734TIP3    H232618   5.088   5.264  11.840 -0.4928 -0.3872 -2.3194
 3735TIP3   OH232619   6.501   1.905   1.550  0.2376 -0.0714 -0.0039
 3735TIP3    H132620   6.589   1.869   1.564  0.6677  0.6991 -0.6931
 3735TIP3    H232621   6.493   1.910   1.455 -1.3829 -2.1361 -0.0171
 3736TIP3   OH232622   6.730   5.563  11.311 -0.5319  0.3688  0.1260
 3736TIP3    H132623   6.688   5.505  11.375  0.5583 -0.5345  0.0515
 3736TIP3    H232624   6.766   5.634  11.364  0.2592 -0.3098  0.5233
 3737TIP3   OH232625   5.660   0.591  12.837 -0.5098 -0.3263  0.5362
 3737TIP3    H132626   5.614   0.508  12.835 -0.8395 -0.2080  2.1445
 3737TIP3    H232627   5.697   0.601  12.750 -2.5768 -0.9538 -0.4266
 3738TIP3   OH232628   0.019   5.073   4.978 -0.5169 -0.4920 -0.1156
 3738TIP3    H132629   0.001   5.020   4.900  0.1305 -1.0925  0.1392
 3738TIP3    H232630   0.114   5.085   4.978 -0.3865 -1.3489  1.1164
 3739TIP3   OH232631   5.547   5.913  12.204 -0.1369 -0.4377  0.0025
 3739TIP3    H132632   5.526   6.006  12.210  2.4518  0.1203  1.2009
 3739TIP3    H232633   5.507   5.885  12.122  0.4472  2.1393 -1.2386
 3740TIP3   OH232634   3.049   1.639   1.317  0.4429  0.0106 -0.1890
 3740TIP3    H132635   3.082   1.589   1.392  0.7867  0.2195 -0.1984
 3740TIP3    H232636   2.993   1.578   1.270  1.4304 -0.5894 -0.6072
 3741TIP3   OH232637   4.920   1.717  16.946 -0.0909 -0.5011 -0.3533
 3741TIP3    H132638   4.893   1.763  16.867  3.3198  3.6868  0.7241
 3741TIP3    H232639   4.985   1.653  16.916 -1.6064 -1.6241 -1.3156
 3742TIP3   OH232640   5.052   3.185  13.802  0.4126  0.5329 -0.4566
 3742TIP3    H132641   5.130   3.149  13.844  0.9642  3.0488  0.7715
 3742TIP3    H232642   4.990   3.200  13.874 -0.1207  1.1931 -1.0448
 3743TIP3   OH232643   6.545   2.704  10.580  0.1201 -0.0388 -0.0933
 3743TIP3    H132644   6.572   2.794  10.596  1.0018 -0.5894  1.7515
 3743TIP3    H232645   6.625   2.652  10.595  0.2102 -0.9469 -3.4245
 3744TIP3   OH232646   6.165   5.292   3.594 -0.0738 -0.1214  0.6139
 3744TIP3    H132647   6.248   5.298   3.642 -0.8104 -0.9228  2.0176
 3744TIP3    H232648   6.171   5.209   3.547  0.2599  0.2246  0.0317
 3745TIP3   OH232649   4.131   1.105  17.090  0.7680  0.3385  0.0599
 3745TIP3    H132650   4.151   1.172  17.156  1.6447 -0.6414  0.8103
 3745TIP3    H232651   4.035   1.107  17.083  0.7859  1.7385 -0.0200
 3746TIP3   OH232652   1.997   0.507  16.616 -0.3914  0.2999 -0.0787
 3746TIP3    H132653   2.020   0.474  16.703  1.1987  1.1133 -0.1729
 3746TIP3    H232654   2.029   0.598  16.615  1.2959 -0.2730 -2.1468
 3747TIP3   OH232655   6.132   2.391  15.372 -0.1295  0.2950  0.3854
 3747TIP3    H132656   6.221   2.404  15.339 -0.5450  0.3309 -0.7711
 3747TIP3    H232657   6.122   2.296  15.380 -0.1208  0.2677  0.0979
 3748TIP3   OH232658   4.859   4.918  17.084 -0.2884 -0.5371 -0.9030
 3748TIP3    H132659   4.852   4.834  17.130  1.8167  0.1862  0.8660
 3748TIP3    H232660   4.922   4.901  17.014 -0.7331 -0.7175 -1.2616
 3749TIP3   OH232661   3.845   4.207   5.029  0.4812 -0.6767 -0.4100
 3749TIP3    H132662   3.843   4.294   5.069  1.4090 -0.1045 -1.5720
 3749TIP3    H232663   3.812   4.221   4.940  1.8553 -1.2796 -1.0183
 3750TIP3   OH232664   4.559   5.852   1.847 -1.0042  0.7418 -0.0103
 3750TIP3    H132665   4.533   5.795   1.919  2.6966 -1.7966 -0.5349
 3750TIP3    H232666   4.565   5.794   1.771  1.1063  2.1033 -0.9464
 3751TIP3   OH232667   3.944   5.852  11.945  0.4096 -0.2489  0.0998
 3751TIP3    H132668   3.942   5.945  11.969  0.5518 -0.0531 -0.6419
 3751TIP3    H232669   4.035   5.826  11.955  0.6722  0.1022 -1.2042
 3752TIP3   OH232670   5.351   2.915  14.188 -0.3173  0.2630 -0.6813
 3752TIP3    H132671   5.404   2.984  14.229 -1.2076  0.2753  0.4503
 3752TIP3    H232672   5.298   2.962  14.123  1.3085  0.1995 -2.1096
 3753TIP3   OH232673   0.532   1.157  14.263 -0.6339 -0.1015 -0.3979
 3753TIP3    H132674   0.558   1.068  14.288 -0.6024  0.4886  1.7733
 3753TIP3    H232675   0.613   1.199  14.235 -0.4415 -0.3957 -0.2880
 3754TIP3   OH232676   5.564   3.157   5.480  0.0395 -0.0002  0.4160
 3754TIP3    H132677   5.639   3.109   5.514  0.0696 -0.0497  0.2802
 3754TIP3    H232678   5.587   3.249   5.492  0.2252 -0.0122  0.1509
 3755TIP3   OH232679   6.517   5.561  14.279 -0.5984  0.0858 -0.3151
 3755TIP3    H132680   6.522   5.635  14.218 -0.1885  1.8882  1.8487
 3755TIP3    H232681   6.436   5.576  14.328  0.8494  0.5897  1.9745
 3756TIP3   OH232682   5.614   5.025  15.848 -0.7066 -0.2975 -0.3075
 3756TIP3    H132683   5.627   4.952  15.788 -1.6419 -1.0684  0.4121
 3756TIP3    H232684   5.676   5.010  15.919  0.8086  0.9297 -1.3628
 3757TIP3   OH232685   3.822   6.365   3.102 -0.0028 -0.0402 -0.5515
 3757TIP3    H132686   3.893   6.387   3.042 -1.3321  1.2054 -1.7078
 3757TIP3    H232687   3.762   6.313   3.049 -0.1566 -0.7518  0.3088
 3758TIP3   OH232688   6.589   1.370   2.923  0.1724  0.7229  0.0890
 3758TIP3    H132689   6.682   1.391   2.934  0.3864 -0.9231  1.6132
 3758TIP3    H232690   6.572   1.386   2.830  1.5414  2.6953  0.1580
 3759TIP3   OH232691   4.322   0.743  11.094 -0.7466  0.1358 -0.2902
 3759TIP3    H132692   4.392   0.713  11.036 -0.5682  1.4789 -0.7731
 3759TIP3    H232693   4.347   0.832  11.118 -1.9665  0.3935  0.0517
 3760TIP3   OH232694   4.967   0.471   1.702 -0.1738 -0.2481 -0.3621
 3760TIP3    H132695   4.968   0.557   1.744 -0.2561 -0.9959  1.2142
 3760TIP3    H232696   5.023   0.417   1.757  1.9237 -0.6002 -2.7212
 3761TIP3   OH232697   3.049   0.421  14.363 -0.1593  0.1561  0.4678
 3761TIP3    H132698   3.121   0.480  14.341  0.0986 -0.8722 -1.5433
 3761TIP3    H232699   3.047   0.421  14.459  1.4345  1.4899  0.5253
 3762TIP3   OH232700   4.073   5.359  17.029  0.1974 -0.2383  0.0868
 3762TIP3    H132701   4.071   5.270  17.063  0.5194 -0.6837 -1.0290
 3762TIP3    H232702   4.119   5.410  17.095 -1.1143 -0.6288  1.3313
 3763TIP3   OH232703   2.956   2.802  14.962  0.5003 -0.0558  0.3150
 3763TIP3    H132704   2.906   2.824  14.884  0.8211 -0.0042  0.1206
 3763TIP3    H232705   2.927   2.865  15.028  0.1810 -0.1417  0.2569
 3764TIP3   OH232706   6.061   0.031   2.494  0.4230  0.0340  0.1262
 3764TIP3    H132707   6.053   0.114   2.447  2.0695  0.1912  0.0946
 3764TIP3    H232708   6.021  -0.034   2.436  2.6293  0.1821 -1.6358
 3765TIP3   OH232709   6.452   5.617   0.066 -0.0759  0.0863 -0.3332
 3765TIP3    H132710   6.382   5.681   0.054 -0.7295 -0.6607 -0.5679
 3765TIP3    H232711   6.423   5.541   0.016  1.6293  0.3098 -1.7134
 3766TIP3   OH232712   4.643   1.749   2.163  0.9470  0.2508  0.1555
 3766TIP3    H132713   4.566   1.785   2.118 -0.1945 -1.9538  0.2798
 3766TIP3    H232714   4.685   1.693   2.099  0.4127 -1.3730  1.2042
 3767TIP3   OH232715   2.784   0.973   1.787  0.4009  0.3144  0.0877
 3767TIP3    H132716   2.792   0.957   1.881  0.0577 -2.2868 -0.2917
 3767TIP3    H232717   2.715   1.039   1.779 -1.4303 -1.3570  1.5486
 3768TIP3   OH232718   3.303   0.759   6.234 -0.2720 -0.3626 -0.3468
 3768TIP3    H132719   3.223   0.706   6.230  0.0008 -0.7249 -1.0863
 3768TIP3    H232720   3.374   0.696   6.243 -0.1870  0.0399  2.1237
 3769TIP3   OH232721   3.707   2.622  16.323  0.2402 -0.2277  0.1710
 3769TIP3    H132722   3.745   2.553  16.378  2.9512  2.4407  1.8286
 3769TIP3    H232723   3.772   2.635  16.253  0.9798  2.2701  1.2769
 3770TIP3   OH232724   0.747   1.743   6.526 -0.3576  0.0647 -0.2609
 3770TIP3    H132725   0.689   1.786   6.464 -2.0260 -0.1896  1.0643
 3770TIP3    H232726   0.708   1.656   6.539  1.3429 -0.7855 -0.7182
 3771TIP3   OH232727   6.738   5.787   0.329  0.1426  0.1940 -0.3211
 3771TIP3    H132728   6.792   5.786   0.250  1.0717  0.4681  0.2935
 3771TIP3    H232729   6.662   5.732   0.308  1.6003 -1.7976 -0.5660
 3772TIP3   OH232730   3.370   2.967   5.212  0.1908  0.3247  0.2748
 3772TIP3    H132731   3.288   3.003   5.247  0.5549  0.5215  0.9269
 3772TIP3    H232732   3.434   3.037   5.224  0.9926 -0.6548  1.8982
 3773TIP3   OH232733   3.190   3.168   4.321 -0.2638 -0.1489 -0.6008
 3773TIP3    H132734   3.266   3.203   4.367 -0.7079 -0.0700  0.0740
 3773TIP3    H232735   3.200   3.199   4.231  0.6879 -0.4306 -0.5956
 3774TIP3   OH232736   3.589   1.156  15.187 -0.1334  0.3977  0.5429
 3774TIP3    H132737   3.516   1.197  15.233  0.6272  0.9395  1.2740
 3774TIP3    H232738   3.591   1.066  15.220  0.4949  0.8197  1.6696
 3775TIP3   OH232739   0.581   4.560  15.745  0.0287 -0.4064 -0.2994
 3775TIP3    H132740   0.662   4.578  15.793 -0.6719 -1.2066  1.2344
 3775TIP3    H232741   0.512   4.597  15.801 -0.7117 -0.2581 -1.2958
 3776TIP3   OH232742   1.344   1.529   5.467  0.0664  0.1555  0.0455
 3776TIP3    H132743   1.402   1.539   5.543 -1.1117  1.5132  0.7885
 3776TIP3    H232744   1.360   1.440   5.436  0.4974 -0.4459  1.9454
 3777TIP3   OH232745   3.250   5.855  15.208  0.2824 -0.2298 -0.2873
 3777TIP3    H132746   3.341   5.886  15.206  0.5137 -0.9644 -1.2935
 3777TIP3    H232747   3.199   5.930  15.177  0.6383 -0.1035 -0.5797
 3778TIP3   OH232748   2.884   3.522  15.897 -0.1630 -0.4407 -0.0707
 3778TIP3    H132749   2.806   3.483  15.858  0.6666 -1.9421 -0.2743
 3778TIP3    H232750   2.955   3.463  15.872  1.1213  1.1746 -0.3141
 3779TIP3   OH232751   3.661   4.582   6.057 -0.3092  0.1030  0.1111
 3779TIP3    H132752   3.747   4.546   6.079  1.0866  1.7147 -2.4243
 3779TIP3    H232753   3.632   4.626   6.137  1.8602  0.6932  0.6169
 3780TIP3   OH232754   2.068   6.691   5.872 -0.2505 -0.1151  0.2880
 3780TIP3    H132755   2.092   6.607   5.832 -0.9485 -1.8034  3.2885
 3780TIP3    H232756   2.125   6.699   5.948  0.7765  2.8673 -0.7271
 3781TIP3   OH232757   5.504   4.218   3.819 -0.3436 -0.0710  0.0745
 3781TIP3    H132758   5.505   4.282   3.748  1.0300  0.1365  0.2633
 3781TIP3    H232759   5.438   4.154   3.793 -0.1299  0.2173 -1.1834
 3782TIP3   OH232760   4.722   6.151   2.501 -0.0451  0.4368  0.3505
 3782TIP3    H132761   4.694   6.223   2.445  0.1521  1.1820  1.1956
 3782TIP3    H232762   4.815   6.166   2.516  0.2735 -0.6553 -0.4194
 3783TIP3   OH232763   1.818   5.306  12.438 -0.5257  0.1496  0.1244
 3783TIP3    H132764   1.797   5.246  12.367 -1.3159 -0.6853  1.0289
 3783TIP3    H232765   1.826   5.392  12.397 -0.1918 -0.4511 -1.0666
 3784TIP3   OH232766   4.645   3.999  11.440 -0.4610  0.0608  0.0642
 3784TIP3    H132767   4.724   3.978  11.489 -1.2193 -1.8090  0.5549
 3784TIP3    H232768   4.585   3.927  11.461 -2.2886  1.4634 -0.2792
 3785TIP3   OH232769   0.291   6.045   0.182 -0.5301  0.2204  0.1370
 3785TIP3    H132770   0.197   6.065   0.191 -0.5468 -0.8340  2.8227
 3785TIP3    H232771   0.331   6.088   0.257  1.0958  0.2259 -0.7169
 3786TIP3   OH232772   3.562   5.629  10.806 -0.6194 -0.4745  0.2985
 3786TIP3    H132773   3.597   5.574  10.735  0.0971  0.5860 -0.1777
 3786TIP3    H232774   3.613   5.603  10.883 -0.0824 -0.2829  0.0125
 3787TIP3   OH232775   4.078   6.620   3.365 -0.4883  0.5672 -0.0053
 3787TIP3    H132776   3.991   6.582   3.372 -0.4048  0.6278  1.3917
 3787TIP3    H232777   4.123   6.566   3.301 -1.7578  0.9288 -1.2402
 3788TIP3   OH232778   2.793   5.169  14.150  0.6162  0.7044 -0.7167
 3788TIP3    H132779   2.779   5.146  14.058  0.1947  0.9119 -0.7065
 3788TIP3    H232780   2.727   5.118  14.198  1.1925  0.1815 -0.4779
 3789TIP3   OH232781   6.196   0.620  12.466 -0.0177 -0.0141  0.6690
 3789TIP3    H132782   6.205   0.534  12.424 -0.5043  0.6492 -0.8200
 3789TIP3    H232783   6.119   0.658  12.425  1.1477  1.8095  0.1261
 3790TIP3   OH232784   0.827   5.521   4.264  0.4753  0.2450 -0.1757
 3790TIP3    H132785   0.841   5.564   4.348 -0.4427 -0.4361  0.3259
 3790TIP3    H232786   0.773   5.445   4.284  0.1934  0.1143 -1.3940
 3791TIP3   OH232787   6.162   0.796   0.039 -0.4283 -0.5704  0.0483
 3791TIP3    H132788   6.177   0.766  -0.050 -0.9528 -2.1999  0.4926
 3791TIP3    H232789   6.079   0.844   0.035  0.4696  0.9722 -0.6839
 3792TIP3   OH232790   5.981   5.031   3.736 -0.3523 -0.5082 -0.0659
 3792TIP3    H132791   5.991   5.110   3.789 -0.6867  0.0864 -0.8831
 3792TIP3    H232792   5.934   5.060   3.658 -1.2383 -1.6744  0.0095
 3793TIP3   OH232793   2.554   0.993   0.449  0.1815 -0.2785  0.1760
 3793TIP3    H132794   2.477   0.952   0.409 -1.0619 -0.9983  3.2035
 3793TIP3    H232795   2.605   0.920   0.483  1.8950  0.2493 -1.2042
 3794TIP3   OH232796   3.545   1.308  11.176 -0.0882 -0.4100 -0.2570
 3794TIP3    H132797   3.573   1.308  11.085 -0.3159 -1.3737 -0.3364
 3794TIP3    H232798   3.528   1.215  11.196  1.1547 -0.3775  1.1211
 3795TIP3   OH232799   5.667   1.270   1.084  0.1560  0.1680  0.5059
 3795TIP3    H132800   5.600   1.208   1.056 -0.0856  0.3926  0.5831
 3795TIP3    H232801   5.733   1.217   1.127  0.3856 -0.1518 -0.2227
 3796TIP3   OH232802   6.239   6.599  15.870 -0.0016  0.5429  0.6891
 3796TIP3    H132803   6.148   6.625  15.855  0.5005  1.1554 -1.5073
 3796TIP3    H232804   6.290   6.669  15.830  1.4581  0.4250  2.3042
 3797TIP3   OH232805   0.190   5.866  16.530 -0.2391 -0.2247  0.2799
 3797TIP3    H132806   0.273   5.910  16.513  0.2577 -0.8685  1.0184
 3797TIP3    H232807   0.147   5.861  16.445 -0.9452  2.9657  0.3513
 3798TIP3   OH232808   0.539   1.087  16.156 -0.0919  0.6246  0.2724
 3798TIP3    H132809   0.633   1.103  16.161 -0.0036  0.8828 -1.9930
 3798TIP3    H232810   0.520   1.034  16.233  2.0408 -0.0275  0.3681
 3799TIP3   OH232811   1.238   5.014   0.934 -0.4699  0.0172 -0.3165
 3799TIP3    H132812   1.298   5.068   0.984 -0.6736  0.7183 -0.8216
 3799TIP3    H232813   1.229   4.934   0.986 -0.2527  0.5074  0.4903
 3800TIP3   OH232814   0.699   2.400   3.556  0.1294  0.0957  0.6328
 3800TIP3    H132815   0.746   2.458   3.497  1.0909 -0.5331  0.7636
 3800TIP3    H232816   0.613   2.441   3.568 -0.5601 -0.4174 -2.2242
 3801TIP3   OH232817   5.348   2.702  12.323 -0.1760  0.0523 -0.5926
 3801TIP3    H132818   5.420   2.709  12.261 -0.6261  1.4162 -0.9587
 3801TIP3    H232819   5.384   2.737  12.405 -0.3048  0.3809 -0.6766
 3802TIP3   OH232820   6.431   5.339   2.662 -0.5346  0.0990  0.3396
 3802TIP3    H132821   6.381   5.299   2.733 -1.0846  0.6841  0.2884
 3802TIP3    H232822   6.439   5.431   2.686 -1.1175  0.3999 -0.5574
 3803TIP3   OH232823   3.712   5.849   2.200 -0.1789 -0.0059  0.1167
 3803TIP3    H132824   3.674   5.937   2.201 -0.6227 -0.1921 -0.0742
 3803TIP3    H232825   3.763   5.846   2.118  0.0812  0.1750  0.2722
 3804TIP3   OH232826   6.425   4.979  11.431 -0.0299 -0.3057  0.4204
 3804TIP3    H132827   6.400   4.945  11.345  0.3917  0.9507 -0.2030
 3804TIP3    H232828   6.519   4.963  11.437 -0.1350 -0.7826  0.8311
 3805TIP3   OH232829   5.131   4.319  12.658 -0.2127  0.4617 -0.2549
 3805TIP3    H132830   5.078   4.259  12.605 -0.6411 -0.1606  0.8723
 3805TIP3    H232831   5.211   4.270  12.676  0.2725  0.9720 -0.9849
 3806TIP3   OH232832   3.222   5.205   5.316 -0.1403  0.1244  0.2541
 3806TIP3    H132833   3.282   5.133   5.334  1.3276  0.7645 -1.9378
 3806TIP3    H232834   3.149   5.165   5.269  1.1330  0.1796 -1.8271
 3807TIP3   OH232835   6.596   0.146   3.029 -0.2947 -0.7130 -0.3107
 3807TIP3    H132836   6.638   0.232   3.021  1.5783 -1.6125 -0.4136
 3807TIP3    H232837   6.619   0.100   2.948  0.0953 -1.8776  0.4371
 3808TIP3   OH232838   0.157   4.280   1.075  0.0186  0.4977  0.1108
 3808TIP3    H132839   0.236   4.231   1.051  0.8951  1.8507  0.2012
 3808TIP3    H232840   0.109   4.292   0.993 -0.5630 -1.1243  0.1966
 3809TIP3   OH232841   2.575   0.128  16.562 -0.0515  0.1939 -0.3831
 3809TIP3    H132842   2.651   0.082  16.527  0.2743  0.9191 -0.6486
 3809TIP3    H232843   2.503   0.065  16.554  0.1473  0.1180 -1.7833
 3810TIP3   OH232844   5.547   5.562   5.501  0.9827  0.5825 -0.1716
 3810TIP3    H132845   5.514   5.616   5.429 -0.7326 -0.8281 -0.4730
 3810TIP3    H232846   5.516   5.606   5.580 -0.3220  0.1129 -0.4134
 3811TIP3   OH232847   4.622   0.684  13.861  0.0490 -0.3308  0.0345
 3811TIP3    H132848   4.578   0.757  13.817 -1.0193 -1.9345 -1.6243
 3811TIP3    H232849   4.710   0.717  13.879 -1.3148  2.3668  1.9926
 3812TIP3   OH232850   6.078   0.257   5.823 -0.4291  0.1422 -0.6674
 3812TIP3    H132851   6.100   0.171   5.858 -0.1398  0.9119  1.0794
 3812TIP3    H232852   6.119   0.319   5.883 -1.9960  1.5185 -0.9830
 3813TIP3   OH232853   0.936   6.139   5.901  0.8548  0.3006  0.6568
 3813TIP3    H132854   0.954   6.097   5.985  0.6123  0.7502  0.9355
 3813TIP3    H232855   0.968   6.077   5.836  1.7339  0.2860  1.0989
 3814TIP3   OH232856   0.684   1.212  12.843 -0.0048 -0.2667 -0.6122
 3814TIP3    H132857   0.740   1.195  12.767 -0.8577  0.5341 -1.4307
 3814TIP3    H232858   0.724   1.286  12.887  1.5924 -1.9487  0.8384
 3815TIP3   OH232859   3.214   0.384   3.264 -0.5540  0.2024  0.7708
 3815TIP3    H132860   3.214   0.478   3.249 -0.2795  0.4592  2.3028
 3815TIP3    H232861   3.133   0.353   3.224 -1.1781  1.2481  1.2168
 3816TIP3   OH232862   5.486   5.364   0.440  0.5595  0.1453 -0.5769
 3816TIP3    H132863   5.566   5.403   0.475  1.0001  0.0895 -1.5111
 3816TIP3    H232864   5.515   5.312   0.365 -0.2883 -0.2678 -0.6272
 3817TIP3   OH232865   5.832   5.496  15.214  0.5645  0.1883 -0.6594
 3817TIP3    H132866   5.897   5.488  15.145 -0.2378 -0.5573 -1.3410
 3817TIP3    H232867   5.837   5.413  15.262  0.9577  0.6109  0.0435
 3818TIP3   OH232868   2.932   5.867  12.691 -0.0686  0.3309  0.3055
 3818TIP3    H132869   2.953   5.830  12.605  1.3241  0.2308  0.6739
 3818TIP3    H232870   2.887   5.796  12.738 -0.2067  0.1556 -0.0917
 3819TIP3   OH232871   2.213   0.545  14.145  0.2256 -0.2044 -0.1137
 3819TIP3    H132872   2.128   0.587  14.156  0.7211  0.5648  0.7898
 3819TIP3    H232873   2.196   0.452  14.163 -0.7307 -0.3200 -1.4693
 3820TIP3   OH232874   6.540   6.587   2.420 -0.0423 -0.1437  0.1554
 3820TIP3    H132875   6.611   6.651   2.427 -1.3330  1.4556 -0.8982
 3820TIP3    H232876   6.491   6.614   2.343 -0.1679 -2.9074 -0.8011
 3821TIP3   OH232877   5.761   5.215   4.149  0.5747 -0.7506 -0.5051
 3821TIP3    H132878   5.845   5.184   4.182 -0.4164 -3.4052 -0.3193
 3821TIP3    H232879   5.697   5.154   4.187 -1.3256  0.6149 -1.4403
 3822TIP3   OH232880   1.152   2.542  15.523 -0.1822  0.3301  0.1340
 3822TIP3    H132881   1.105   2.625  15.510  1.0066  0.9771 -0.0738
 3822TIP3    H232882   1.244   2.566  15.525  0.2255 -1.0896 -0.6800
 3823TIP3   OH232883   3.584   4.830  16.535  0.0141  0.6499 -0.0047
 3823TIP3    H132884   3.637   4.753  16.555 -2.3415 -0.6854  1.1986
 3823TIP3    H232885   3.494   4.803  16.552 -1.0274  3.0882 -1.3954
 3824TIP3   OH232886   6.349   6.318  11.481  0.0553  0.5295 -0.5980
 3824TIP3    H132887   6.298   6.286  11.407  1.7046 -2.3576 -0.5494
 3824TIP3    H232888   6.419   6.370  11.441  0.7117 -0.6927 -1.0595
 3825TIP3   OH232889   5.080   0.140  12.928  0.3044 -0.6958 -0.0538
 3825TIP3    H132890   5.008   0.082  12.953 -0.5667 -0.0960 -1.1460
 3825TIP3    H232891   5.042   0.200  12.864  0.9638  1.6537  1.6662
 3826TIP3   OH232892   5.587   0.493   4.549 -0.8052  0.1858  0.0967
 3826TIP3    H132893   5.632   0.513   4.467  0.4511  1.1542  1.0042
 3826TIP3    H232894   5.650   0.516   4.617 -1.7464 -0.8312  1.3315
 3827TIP3   OH232895   6.313   3.350   5.818  0.1259  0.2503  0.4423
 3827TIP3    H132896   6.302   3.401   5.738  1.4535 -0.7421 -0.3863
 3827TIP3    H232897   6.230   3.361   5.865  0.6545  3.8538  0.7098
 3828TIP3   OH232898   2.474   2.153  11.488  0.1350  1.2345  0.4789
 3828TIP3    H132899   2.484   2.065  11.453  0.6544  0.6083  2.1363
 3828TIP3    H232900   2.536   2.157  11.561  0.8649  3.3298 -0.2348
 3829TIP3   OH232901   2.751   2.266   5.209 -0.0115  0.3741  0.3915
 3829TIP3    H132902   2.801   2.347   5.200 -2.1351  1.3986 -3.3271
 3829TIP3    H232903   2.674   2.291   5.260  0.3140  0.2211  0.9576
 3830TIP3   OH232904   2.274   3.895   0.558 -0.1597  0.2216 -0.3936
 3830TIP3    H132905   2.193   3.943   0.543 -0.7090 -1.0106 -1.4715
 3830TIP3    H232906   2.279   3.832   0.486  0.3691 -1.5480  1.1236
 3831TIP3   OH232907   0.273   2.649  14.869 -0.1766 -0.3540  0.6446
 3831TIP3    H132908   0.343   2.690  14.819  0.5735 -0.4996  1.5496
 3831TIP3    H232909   0.303   2.654  14.960 -0.9232 -1.2223  0.9499
 3832TIP3   OH232910   5.752   0.575  10.142  0.4521  0.1547 -0.6845
 3832TIP3    H132911   5.792   0.618  10.067 -1.3766 -0.0662 -1.8159
 3832TIP3    H232912   5.752   0.642  10.211 -0.4021  1.2851 -1.7601
 3833TIP3   OH232913   3.503   5.365  14.465 -0.3596  0.0052 -0.7219
 3833TIP3    H132914   3.418   5.406  14.484  0.3962  0.2877  2.2185
 3833TIP3    H232915   3.537   5.416  14.391 -2.6921 -0.0659 -1.9060
 3834TIP3   OH232916   2.702   5.926  13.894 -0.1825  0.3809  0.2645
 3834TIP3    H132917   2.732   5.935  13.803  1.5595  0.1469  0.8077
 3834TIP3    H232918   2.607   5.940  13.889 -0.0518  0.7542 -1.5352
 3835TIP3   OH232919   5.241   1.011   0.109  0.4326  0.4639 -0.0457
 3835TIP3    H132920   5.183   0.947   0.151 -0.9184  1.2534 -0.6915
 3835TIP3    H232921   5.329   0.984   0.135 -0.1820 -1.1350  0.4050
 3836TIP3   OH232922   5.990   4.463   4.301  0.0108  0.1354 -0.3468
 3836TIP3    H132923   5.994   4.552   4.337 -0.4343 -0.0480  0.1596
 3836TIP3    H232924   6.062   4.417   4.344 -1.3749 -0.4661  1.3759
 3837TIP3   OH232925   3.364   2.016   4.915  0.8884 -0.2638 -0.3198
 3837TIP3    H132926   3.317   2.029   4.997 -1.8756 -1.8133 -1.5789
 3837TIP3    H232927   3.436   2.079   4.918 -0.8420  1.7074  2.0225
 3838TIP3   OH232928   4.670   4.940   0.720 -0.3433 -0.3360 -0.5956
 3838TIP3    H132929   4.589   4.889   0.724  0.2754 -1.3447 -0.7313
 3838TIP3    H232930   4.708   4.930   0.808 -0.8546  0.9625 -0.2136
 3839TIP3   OH232931   4.280   4.522   2.039  0.1030  0.5482  0.4082
 3839TIP3    H132932   4.319   4.439   2.068 -0.3631 -0.0262 -0.5760
 3839TIP3    H232933   4.326   4.589   2.089  1.6921 -0.1737 -0.0546
 3840TIP3   OH232934   4.147   0.174   3.837 -0.1232 -0.2337 -0.2933
 3840TIP3    H132935   4.209   0.242   3.812  0.1690 -0.0405  0.9035
 3840TIP3    H232936   4.150   0.173   3.933  0.1109 -2.1464 -0.2981
 3841TIP3   OH232937   6.396   4.143   2.913  0.1364 -0.5876 -0.9210
 3841TIP3    H132938   6.460   4.183   2.855  0.8137  0.0898  0.2599
 3841TIP3    H232939   6.447   4.083   2.967 -0.3902 -0.7963 -0.6496
 3842TIP3   OH232940   2.730   0.038  13.208 -0.1570  0.6560 -0.3235
 3842TIP3    H132941   2.646   0.042  13.253  0.5069 -0.4139  1.0481
 3842TIP3    H232942   2.757   0.129  13.197 -0.5007  0.9434  1.1508
 3843TIP3   OH232943   4.571   3.613   4.036  0.4916 -0.1673 -0.6631
 3843TIP3    H132944   4.592   3.618   3.942 -0.5840 -1.8635 -1.0161
 3843TIP3    H232945   4.479   3.588   4.039  0.2918  0.7124  0.8647
 3844TIP3   OH232946   3.203   5.136   4.298  0.0578 -0.3437 -0.5905
 3844TIP3    H132947   3.159   5.190   4.232 -0.8466  0.4043  0.5977
 3844TIP3    H232948   3.222   5.054   4.253  1.9870  1.1476 -2.6182
 3845TIP3   OH232949   4.498   5.599  13.316  0.5292  0.2528  0.1484
 3845TIP3    H132950   4.555   5.617  13.391 -1.5802  1.5535  1.4850
 3845TIP3    H232951   4.410   5.602  13.352 -0.4878  0.3701 -2.2946
 3846TIP3   OH232952   3.819   3.764  11.565 -0.4247 -0.5329 -0.3997
 3846TIP3    H132953   3.821   3.715  11.483 -2.5901 -1.7846  0.2545
 3846TIP3    H232954   3.910   3.787  11.582  0.0042 -0.0422 -3.2666
 3847TIP3   OH232955   2.657   1.370   2.652 -0.3086 -0.3933 -0.0667
 3847TIP3    H132956   2.619   1.312   2.587 -2.0083  0.7692 -0.1357
 3847TIP3    H232957   2.589   1.383   2.717  0.6852  0.0405  0.9128
 3848TIP3   OH232958   3.113   1.748  14.146 -0.4133 -0.5291 -0.3579
 3848TIP3    H132959   3.027   1.787  14.133  0.7770  2.6971  0.9179
 3848TIP3    H232960   3.101   1.684  14.216 -1.3154  1.6786  1.5464
 3849TIP3   OH232961   0.679   6.097  15.641 -0.9790 -0.0043 -0.0929
 3849TIP3    H132962   0.617   6.161  15.677 -1.1197  0.1380 -0.5863
 3849TIP3    H232963   0.680   6.114  15.547 -2.4683 -1.9665 -0.5111
 3850TIP3   OH232964   1.596   2.429  12.491 -0.0548  0.1769 -0.1221
 3850TIP3    H132965   1.524   2.366  12.493  0.5535 -0.5867 -1.5327
 3850TIP3    H232966   1.575   2.488  12.419 -0.7681  1.7839  1.3799
 3851TIP3   OH232967   2.110   2.651  11.579  0.0604  0.1530 -0.2315
 3851TIP3    H132968   2.177   2.640  11.646  0.6683 -1.5679 -1.0883
 3851TIP3    H232969   2.154   2.697  11.508  0.6574 -1.9472 -1.2416
 3852TIP3   OH232970   5.551   1.705  15.947 -0.4706 -0.0543 -0.1069
 3852TIP3    H132971   5.630   1.734  15.901  0.2172 -2.0670 -0.2855
 3852TIP3    H232972   5.489   1.776  15.936  0.1493  0.1164 -2.9939
 3853TIP3   OH232973   5.342   4.058  11.709 -0.5300 -0.7309  0.4754
 3853TIP3    H132974   5.349   4.150  11.684  1.4110 -1.2040 -0.7862
 3853TIP3    H232975   5.256   4.031  11.677 -0.9183  0.5000  0.4397
 3854TIP3   OH232976   1.835   4.573   1.311 -0.4504 -0.3511  0.2434
 3854TIP3    H132977   1.898   4.644   1.298 -0.1582 -0.4114  1.2793
 3854TIP3    H232978   1.818   4.539   1.223  1.9146 -1.1560  0.0653
 3855TIP3   OH232979   3.881   5.612   0.058 -0.0353 -0.6698 -0.0311
 3855TIP3    H132980   3.914   5.522   0.052 -1.7058 -1.2588 -0.5575
 3855TIP3    H232981   3.944   5.657   0.115 -0.1546 -2.6074  1.6686
 3856TIP3   OH232982   6.349   3.484  12.387  0.6534 -0.1726 -0.9347
 3856TIP3    H132983   6.292   3.408  12.374  2.1363 -1.3713 -0.5075
 3856TIP3    H232984   6.408   3.458  12.457  0.9371  1.5269 -0.5215
 3857TIP3   OH232985   4.883   3.981   2.722  0.1920  0.4667 -0.3776
 3857TIP3    H132986   4.961   3.927   2.708 -0.9109 -1.8292  2.0021
 3857TIP3    H232987   4.897   4.021   2.808 -0.7887  0.8798 -0.4094
 3858TIP3   OH232988   2.741   6.365  15.565  0.2630 -0.5394 -0.6296
 3858TIP3    H132989   2.672   6.375  15.629 -1.5807  1.9038 -2.9029
 3858TIP3    H232990   2.793   6.445  15.571  0.2812 -0.4353 -1.9030
 3859TIP3   OH232991   0.061   0.781   4.232  0.0076  0.2358  0.4988
 3859TIP3    H132992  -0.006   0.827   4.282  2.0086  0.7701  2.7861
 3859TIP3    H232993   0.067   0.695   4.274  0.2628 -0.0521 -0.1323
 3860TIP3   OH232994   2.314   5.295   0.501  0.1434 -0.5005  0.3121
 3860TIP3    H132995   2.251   5.364   0.477 -0.4769 -0.3217  2.3332
 3860TIP3    H232996   2.399   5.339   0.501  0.1395 -0.4629 -1.3087
 3861TIP3   OH232997   3.102   3.011   5.270  0.8419  0.6740 -0.7834
 3861TIP3    H132998   3.023   3.064   5.260  0.9213  1.6252  2.8546
 3861TIP3    H232999   3.127   3.023   5.362  2.0939 -4.0071 -0.4097
 3862TIP3   OH233000   6.428   4.280  13.167  0.1615 -0.0381 -0.2990
 3862TIP3    H133001   6.371   4.210  13.199 -0.1577  0.0359 -0.7044
 3862TIP3    H233002   6.516   4.252  13.193 -0.1284  0.2378  1.0458
 3863TIP3   OH233003   3.226   1.730   3.243 -0.1481 -0.2071 -0.3719
 3863TIP3    H133004   3.318   1.732   3.268 -0.2090  0.8240 -0.2210
 3863TIP3    H233005   3.179   1.749   3.324 -0.4656  0.0074 -0.6078
 3864TIP3   OH233006   2.263   3.503  11.307  0.2242 -0.0724 -0.7425
 3864TIP3    H133007   2.256   3.408  11.297 -1.6283 -0.0306  0.0171
 3864TIP3    H233008   2.202   3.538  11.243 -0.0153  0.5783 -0.1560
 3865TIP3   OH233009   6.067   1.114   2.036 -0.5674  0.2156 -0.3214
 3865TIP3    H133010   6.060   1.202   1.998 -0.7763  0.8441  1.1395
 3865TIP3    H233011   6.078   1.056   1.960  1.4675  1.6947 -1.1945
 3866TIP3   OH233012   3.430   1.820  13.189 -0.6736  0.1031  0.0246
 3866TIP3    H133013   3.338   1.807  13.166 -0.5310  1.4475 -1.3416
 3866TIP3    H233014   3.428   1.855  13.278 -1.3808 -1.6216  0.7119
 3867TIP3   OH233015   4.047   2.600   3.244  0.4588  0.1636  0.1950
 3867TIP3    H133016   4.142   2.607   3.246  0.3672  1.8816 -0.1549
 3867TIP3    H233017   4.017   2.647   3.322 -0.1450  1.3957 -0.7361
 3868TIP3   OH233018   0.486   5.559   1.394 -0.3407 -0.0803 -1.1448
 3868TIP3    H133019   0.497   5.636   1.451 -1.6896 -0.9149  0.2795
 3868TIP3    H233020   0.571   5.515   1.398 -0.3478 -0.0099  0.0551
 3869TIP3   OH233021   4.455   5.253   2.966  0.0620 -0.5621  0.3292
 3869TIP3    H133022   4.440   5.159   2.959  0.6994 -0.7249  1.0317
 3869TIP3    H233023   4.543   5.266   2.930 -0.4256 -0.0850 -0.7204
 3870TIP3   OH233024   4.788   4.222   5.347  0.3191 -0.4240  0.0532
 3870TIP3    H133025   4.711   4.167   5.358  0.8422 -1.0014  0.8907
 3870TIP3    H233026   4.830   4.188   5.267 -0.3167 -0.0662 -0.4372
 3871TIP3   OH233027   4.512   0.380   3.150 -0.5225  0.2903  0.3491
 3871TIP3    H133028   4.481   0.336   3.071 -3.4095 -0.1373  1.6784
 3871TIP3    H233029   4.592   0.332   3.174  0.3847  0.4103 -2.2527
 3872TIP3   OH233030   1.057   0.944   5.090  0.3038  0.3850 -0.2579
 3872TIP3    H133031   0.991   1.000   5.049 -0.1555 -0.3769 -0.5789
 3872TIP3    H233032   1.066   0.978   5.179  0.0540  0.9882 -0.4622
 3873TIP3   OH233033   4.185   0.900   4.106 -0.2928  0.0136 -0.8991
 3873TIP3    H133034   4.149   0.906   4.194  0.2633 -0.2506 -0.6548
 3873TIP3    H233035   4.263   0.845   4.115 -0.3210 -0.1435 -1.5797
 3874TIP3   OH233036   3.183   6.069  14.953 -0.0908  0.5862 -0.0176
 3874TIP3    H133037   3.138   6.102  15.031 -0.5423 -0.7102  0.2938
 3874TIP3    H233038   3.271   6.104  14.959 -0.1649  0.6051  1.0229
 3875TIP3   OH233039   1.696   0.928  12.414 -0.2571  0.0035  0.5394
 3875TIP3    H133040   1.731   0.998  12.358  0.9262  0.3665  1.7048
 3875TIP3    H233041   1.763   0.859  12.408  0.2097  0.3198  2.0389
 3876TIP3   OH233042   5.697   6.345  16.099  0.0056 -0.1945 -0.6531
 3876TIP3    H133043   5.643   6.395  16.160 -0.1186 -0.2174 -0.7394
 3876TIP3    H233044   5.770   6.312  16.151  1.0602  1.5890 -0.9672
 3877TIP3   OH233045   6.169   5.256   1.548 -0.1242 -0.7189  0.8286
 3877TIP3    H133046   6.158   5.347   1.578 -2.2362 -1.5356  2.6417
 3877TIP3    H233047   6.106   5.247   1.477  1.4596 -0.2261 -0.6748
 3878TIP3   OH233048   0.852   4.958  12.924 -0.3519 -0.1663  0.0459
 3878TIP3    H133049   0.906   4.958  13.004 -0.0422  0.1091 -0.1600
 3878TIP3    H233050   0.853   5.050  12.896 -0.2981 -0.3017 -0.3848
 3879TIP3   OH233051   1.290   5.192   4.017  0.1114 -0.0907 -0.4067
 3879TIP3    H133052   1.215   5.158   4.065 -0.7778 -0.2164 -1.8511
 3879TIP3    H233053   1.281   5.155   3.929  1.7202  0.1046 -0.6676
 3880TIP3   OH233054   0.740   6.250   5.054 -0.0628 -0.2338 -0.2903
 3880TIP3    H133055   0.700   6.205   4.980  2.2779 -0.9944 -1.1276
 3880TIP3    H233056   0.769   6.179   5.112 -0.3222  0.3211  0.5357
 3881TIP3   OH233057   4.596   6.510   1.242 -0.3468  0.0447  0.6514
 3881TIP3    H133058   4.689   6.501   1.263 -0.0072  1.1853 -0.2978
 3881TIP3    H233059   4.594   6.512   1.146 -1.4309 -0.7705  0.6568
 3882TIP3   OH233060   4.004   1.934  12.512  0.6554 -0.6541  0.0238
 3882TIP3    H133061   3.931   1.891  12.557  0.5684 -1.2638 -0.6822
 3882TIP3    H233062   4.050   1.982  12.580  0.0692 -0.9382  0.6217
 3883TIP3   OH233063   1.720   2.224  11.724  0.3859 -0.1517 -0.0379
 3883TIP3    H133064   1.766   2.140  11.725 -1.1625 -1.0341  0.6259
 3883TIP3    H233065   1.689   2.234  11.634  0.7738 -0.1916 -0.1738
 3884TIP3   OH233066   4.640   1.635   4.075  0.0666  0.1690  0.1448
 3884TIP3    H133067   4.550   1.619   4.102 -0.0728 -0.0316 -0.4159
 3884TIP3    H233068   4.690   1.560   4.109 -0.2080 -0.3786 -0.6396
 3885TIP3   OH233069   2.874   5.552   1.415  0.1525 -0.6552 -1.1062
 3885TIP3    H133070   2.908   5.521   1.331 -1.2256 -0.5831 -1.6935
 3885TIP3    H233071   2.941   5.613   1.447  1.3997 -1.8320 -1.4230
 3886TIP3   OH233072   0.151   4.804   0.127 -0.4977 -0.1611  0.8777
 3886TIP3    H133073   0.153   4.786   0.221 -0.1006  0.6944  1.0373
 3886TIP3    H233074   0.243   4.809   0.102 -0.5994 -1.9427  0.1373
 3887TIP3   OH233075   5.590   3.033   0.232 -0.2075 -0.2463 -0.1964
 3887TIP3    H133076   5.648   2.958   0.216  0.1660 -0.1324  0.5748
 3887TIP3    H233077   5.513   2.996   0.274 -0.3123 -0.2872 -0.4269
 3888TIP3   OH233078   0.394   2.964  13.946 -0.4897  0.5415  0.2317
 3888TIP3    H133079   0.395   2.931  13.856  0.6003 -0.0248  0.4414
 3888TIP3    H233080   0.351   3.050  13.940 -3.3753 -0.8561 -0.3323
 3889TIP3   OH233081   5.088   4.204  12.003  0.2973 -0.8710  0.7039
 3889TIP3    H133082   5.180   4.221  11.984 -0.1683 -0.2340 -1.0280
 3889TIP3    H233083   5.085   4.110  12.025  1.0299 -1.4015 -1.3616
 3890TIP3   OH233084   1.340   3.611   2.148  0.5773 -0.3722  0.2612
 3890TIP3    H133085   1.401   3.662   2.202  0.7253  1.1503 -1.3186
 3890TIP3    H233086   1.268   3.672   2.131 -0.0318 -1.2449 -0.2685
 3891TIP3   OH233087   4.642   6.620   4.093 -0.0612 -0.3509 -0.1273
 3891TIP3    H133088   4.690   6.652   4.170 -0.4444 -0.6808  0.2528
 3891TIP3    H233089   4.703   6.560   4.050 -0.5687 -1.7468  1.0552
 3892TIP3   OH233090   1.955   0.023  13.460  0.4161  0.5485 -0.3890
 3892TIP3    H133091   1.975  -0.070  13.473  0.8637  0.8865  1.4320
 3892TIP3    H233092   1.867   0.023  13.422  0.0458 -0.6109  0.4235
 3893TIP3   OH233093   1.152   3.049   6.269  0.2015 -0.2107  0.3988
 3893TIP3    H133094   1.086   3.046   6.199 -1.3014 -0.3576  1.7918
 3893TIP3    H233095   1.223   2.994   6.236  0.3073  1.1437 -1.7757
 3894TIP3   OH233096   1.249   3.146   3.473  0.1856 -0.4206  0.0562
 3894TIP3    H133097   1.180   3.096   3.429  1.0854 -2.3350  0.7435
 3894TIP3    H233098   1.316   3.081   3.494  0.7965  0.8508  2.2074
 3895TIP3   OH233099   2.808   5.041   0.464 -0.2379 -0.2626  0.7476
 3895TIP3    H133100   2.815   5.080   0.377 -0.1340  0.7411  1.2020
 3895TIP3    H233101   2.714   5.027   0.477 -0.2967  0.0994  0.7016
 3896TIP3   OH233102   1.860   4.073   4.671  0.1149  0.1205 -0.3900
 3896TIP3    H133103   1.821   3.987   4.686 -1.6854  0.8069 -1.0974
 3896TIP3    H233104   1.912   4.062   4.592 -1.9713  0.2638 -1.8140
 3897TIP3   OH233105   0.652   1.995   0.066 -0.4170 -0.0528  0.0296
 3897TIP3    H133106   0.601   1.924   0.027  1.8197 -1.3092 -0.7329
 3897TIP3    H233107   0.611   2.012   0.150 -2.4401 -0.5884 -0.8303
 3898TIP3   OH233108   1.836   0.994   4.196 -0.7409  0.3856 -0.5309
 3898TIP3    H133109   1.752   0.964   4.231 -1.2171  0.7759 -1.3127
 3898TIP3    H233110   1.847   0.944   4.115 -0.0149  0.0363 -0.2212
 3899TIP3   OH233111   1.842   6.781   1.863  0.8375 -0.2045  0.6492
 3899TIP3    H133112   1.830   6.734   1.946  2.1253  0.5067  1.2552
 3899TIP3    H233113   1.842   6.874   1.888  1.7567 -0.0040 -0.0617
 3900TIP3   OH233114   3.943   0.957  13.370 -0.4231 -0.8326  0.2717
 3900TIP3    H133115   3.998   0.925  13.298 -0.1810 -0.8468  0.4621
 3900TIP3    H233116   3.994   0.939  13.449 -1.4314 -2.3952  0.5923
 3901TIP3   OH233117   0.178   6.005  14.033 -0.2448 -0.2148 -0.2530
 3901TIP3    H133118   0.230   5.987  14.111  0.9099 -1.0772 -1.1938
 3901TIP3    H233119   0.159   5.918  13.997 -1.4439  0.1458 -0.4888
 3902TIP3   OH233120   4.571   3.086  10.290 -0.3179 -0.0412 -0.1329
 3902TIP3    H133121   4.666   3.096  10.300 -0.0068 -1.1558 -1.9249
 3902TIP3    H233122   4.558   2.992  10.279 -1.3783  0.3340 -2.2841
 3903TIP3   OH233123   0.936   5.770  11.920  0.2768 -0.5183  0.1335
 3903TIP3    H133124   0.964   5.722  11.997  1.4097 -1.2124 -0.6835
 3903TIP3    H233125   0.911   5.857  11.953 -0.4648 -1.2137  1.4240
 3904TIP3   OH233126   0.748   6.688  15.777  0.4817  0.2864  0.2896
 3904TIP3    H133127   0.760   6.736  15.695 -1.0831 -2.3052 -1.5243
 3904TIP3    H233128   0.655   6.699  15.798  0.3828 -0.9191  0.5034
 3905TIP3   OH233129   4.005   2.151  11.580  0.4867  0.7075  0.5601
 3905TIP3    H133130   4.088   2.118  11.545  0.5012  3.4912 -2.1980
 3905TIP3    H233131   3.940   2.089  11.548  1.0252  0.8398 -0.8484
 3906TIP3   OH233132   4.718   5.882   0.913  0.4301  0.1911  0.1415
 3906TIP3    H133133   4.798   5.918   0.875  0.5216  0.6655  0.7844
 3906TIP3    H233134   4.747   5.836   0.991  0.5223 -2.6629 -1.5184
 3907TIP3   OH233135   0.339   6.274   5.966  0.1390  0.2434 -0.1597
 3907TIP3    H133136   0.331   6.180   5.949 -3.7621  0.1941  1.5265
 3907TIP3    H233137   0.411   6.281   6.029 -2.5180 -2.1987  3.3805
 3908TIP3   OH233138   6.426   1.214   5.466  0.0693 -0.6442 -0.1153
 3908TIP3    H133139   6.453   1.231   5.376 -1.0560  0.8614 -0.1810
 3908TIP3    H233140   6.332   1.230   5.468 -0.1313 -1.8098  1.0723
 3909TIP3   OH233141   4.789   5.836   3.464 -0.0866 -0.0346 -0.1816
 3909TIP3    H133142   4.715   5.821   3.522  0.7396 -2.0345  0.3686
 3909TIP3    H233143   4.851   5.887   3.517  0.8010 -2.1197  0.8464
 3910TIP3   OH233144   6.367   5.582   2.199  0.0100  0.4536  0.0932
 3910TIP3    H133145   6.289   5.588   2.144  0.0137 -0.5443 -0.0229
 3910TIP3    H233146   6.343   5.630   2.279 -0.2080  1.3800 -0.5229
 3911TIP3   OH233147   5.344   3.309   1.488 -0.3657  0.6380 -0.2042
 3911TIP3    H133148   5.371   3.264   1.569 -1.4146 -1.1252 -0.8191
 3911TIP3    H233149   5.417   3.296   1.428  0.4176  1.9540  0.4227
 3912TIP3   OH233150   4.274   1.986  15.590 -0.2191  0.1818  0.6288
 3912TIP3    H133151   4.258   2.080  15.597  0.6416  0.3845 -0.0892
 3912TIP3    H233152   4.188   1.946  15.602 -1.0216  1.1817 -1.4943
 3913TIP3   OH233153   2.762   5.409   4.092 -0.0278 -0.1509 -0.8757
 3913TIP3    H133154   2.672   5.438   4.080 -0.9697 -2.7632 -0.5396
 3913TIP3    H233155   2.760   5.316   4.069  2.4567 -0.3738 -0.3192
 3914TIP3   OH233156   1.387   0.400   4.566 -0.1504 -0.0255  0.7082
 3914TIP3    H133157   1.404   0.325   4.624  2.6336 -0.0391 -0.0524
 3914TIP3    H233158   1.379   0.474   4.626  2.4806 -0.0706  1.1762
 3915TIP3   OH233159   4.409   1.735   3.440  0.0279 -0.0937  0.2186
 3915TIP3    H133160   4.426   1.773   3.354  0.2784  1.2204  0.8415
 3915TIP3    H233161   4.495   1.714   3.475 -0.0365 -0.0309  0.4164
 3916TIP3   OH233162   2.608   4.034  10.838 -0.1912  0.1842 -0.3860
 3916TIP3    H133163   2.602   4.130  10.839 -1.5337  0.0979 -0.0461
 3916TIP3    H233164   2.551   4.005  10.909  0.8180 -0.8442  0.0157
 3917TIP3   OH233165   2.896   3.556   0.527 -0.5342 -0.5042 -0.2397
 3917TIP3    H133166   2.932   3.584   0.610  0.1819  0.2507 -0.7998
 3917TIP3    H233167   2.920   3.463   0.520  1.1786 -0.0564 -0.5352
 3918TIP3   OH233168   6.503   0.656   4.249 -0.0300 -0.3804  0.2531
 3918TIP3    H133169   6.518   0.567   4.215  0.3476 -0.3811  0.4264
 3918TIP3    H233170   6.528   0.651   4.341 -1.1582 -0.4023  0.5643
 3919TIP3   OH233171   1.153   3.023  11.430  0.2501 -0.5762  0.0576
 3919TIP3    H133172   1.232   2.983  11.466 -0.2350  0.3732  2.2244
 3919TIP3    H233173   1.082   2.991  11.485 -0.2465  2.5728  1.3811
 3920TIP3   OH233174   5.277   3.527   2.809 -0.3239  0.1110 -0.1857
 3920TIP3    H133175   5.293   3.611   2.851 -1.3558  0.5366 -0.6237
 3920TIP3    H233176   5.198   3.493   2.850  0.6752 -1.1482  0.7300
 3921TIP3   OH233177   4.661   3.796   0.307 -0.0238 -0.5712  0.7848
 3921TIP3    H133178   4.589   3.823   0.249  0.1905 -1.5064  0.0688
 3921TIP3    H233179   4.736   3.849   0.278  0.0885 -1.0549  0.1958
 3922TIP3   OH233180   1.691   6.149  17.040  0.1711 -0.1037 -0.2809
 3922TIP3    H133181   1.742   6.219  17.000  1.4910 -0.1614  1.2295
 3922TIP3    H233182   1.746   6.071  17.032  0.9145  0.0860  2.4756
 3923TIP3   OH233183   0.167   2.654   2.757  0.0266  0.0564  0.1977
 3923TIP3    H133184   0.237   2.686   2.699  0.4110  0.5230  0.9027
 3923TIP3    H233185   0.206   2.578   2.801  0.1589  0.4037  0.6986
 3924TIP3   OH233186   3.165   6.259  12.249  0.8616 -0.2833  0.2698
 3924TIP3    H133187   3.228   6.227  12.314 -0.9081 -0.2635  2.0505
 3924TIP3    H233188   3.089   6.200  12.259 -0.5596  1.4991  0.2673
 3925TIP3   OH233189   5.284   1.895  15.773  0.0832  0.2697 -0.5486
 3925TIP3    H133190   5.300   1.871  15.864  0.4669  0.6026 -0.5262
 3925TIP3    H233191   5.371   1.914  15.737  0.1340 -1.7046 -1.5142
 3926TIP3   OH233192   2.607   3.016  14.901  0.7882 -0.3088 -0.0726
 3926TIP3    H133193   2.537   2.952  14.918 -1.4940  2.2362  0.4610
 3926TIP3    H233194   2.635   3.044  14.988  0.3279  0.8932 -0.2982
 3927TIP3   OH233195   0.159   1.486   1.665 -0.6455  0.5361 -0.2638
 3927TIP3    H133196   0.209   1.489   1.747  0.3842 -0.7456 -0.8174
 3927TIP3    H233197   0.163   1.576   1.631 -0.7324  0.9766  0.8863
 3928TIP3   OH233198   5.456   1.844   2.852  0.7838  0.2602  0.0590
 3928TIP3    H133199   5.545   1.823   2.880  0.7296  0.6508  0.5328
 3928TIP3    H233200   5.412   1.760   2.847  0.8057  0.1826  1.1245
 3929TIP3   OH233201   0.810   1.733   3.235 -0.5123  0.1356 -0.0330
 3929TIP3    H133202   0.786   1.813   3.189 -0.3146  0.9952  1.3150
 3929TIP3    H233203   0.906   1.736   3.239 -0.4969 -0.2387 -0.1112
 3930TIP3   OH233204   3.816   5.255  16.293  0.4059  0.3127 -0.1899
 3930TIP3    H133205   3.821   5.165  16.325 -2.7852 -0.6091 -2.0019
 3930TIP3    H233206   3.830   5.247  16.198 -0.8299  1.5683 -0.4907
 3931TIP3   OH233207   1.599   6.083  12.529 -0.0236  0.0234 -0.2410
 3931TIP3    H133208   1.627   6.021  12.462  0.4396 -0.2952  0.2387
 3931TIP3    H233209   1.530   6.134  12.488 -0.1977 -0.6144 -0.7382
 3932TIP3   OH233210   5.437   4.421   2.991 -0.0688  0.2929 -0.1954
 3932TIP3    H133211   5.499   4.433   3.063 -0.7876 -0.7969  0.6169
 3932TIP3    H233212   5.379   4.497   2.997  0.3787  0.6347 -0.1476
 3933TIP3   OH233213   4.799   3.247   6.467 -0.5403  0.3955  0.6622
 3933TIP3    H133214   4.876   3.270   6.519 -1.6072  1.4862  1.7704
 3933TIP3    H233215   4.818   3.158   6.435  1.4783  0.9056  0.3264
 3934TIP3   OH233216   1.283   3.009  12.745  0.3074 -0.1706  0.1791
 3934TIP3    H133217   1.289   3.083  12.685  0.4612  0.9771  1.5752
 3934TIP3    H233218   1.363   2.959  12.728  0.7590  0.5919 -0.0067
 3935TIP3   OH233219   5.179   3.701  13.151 -0.2918  0.4087  0.0632
 3935TIP3    H133220   5.151   3.644  13.223  0.9505  0.1168  0.3154
 3935TIP3    H233221   5.163   3.790  13.183 -0.1342  0.2678  0.5256
 3936TIP3   OH233222   3.578   0.503  10.550 -0.1866 -0.3058  0.0643
 3936TIP3    H133223   3.553   0.573  10.611 -1.1765  0.7013 -1.4715
 3936TIP3    H233224   3.502   0.445  10.548  0.2486 -0.9050  0.5677
 3937TIP3   OH233225   5.609   6.541   5.212  1.1709  0.4179 -0.5877
 3937TIP3    H133226   5.626   6.630   5.243  0.3671  0.8447 -1.3473
 3937TIP3    H233227   5.536   6.551   5.150  1.9255 -0.5807 -1.6527
 3938TIP3   OH233228   6.517   3.041   3.721 -0.3008 -0.1972 -0.4767
 3938TIP3    H133229   6.484   3.130   3.738 -2.5548 -1.0516 -0.1303
 3938TIP3    H233230   6.586   3.052   3.656 -1.8955  1.6276 -1.9167
 3939TIP3   OH233231   3.218   6.453  16.878 -0.2097 -0.0633  0.4619
 3939TIP3    H133232   3.141   6.400  16.858  0.2275 -0.7017  0.4554
 3939TIP3    H233233   3.262   6.406  16.949 -0.2209  0.6847  0.9657
 3940TIP3   OH233234   1.653   6.407  10.696 -0.3450 -0.2602 -0.0867
 3940TIP3    H133235   1.573   6.367  10.729  0.3724 -0.9915  0.8001
 3940TIP3    H233236   1.645   6.499  10.720 -1.6497 -0.0116 -1.4416
 3941TIP3   OH233237   3.847   3.540  12.064 -0.7443 -0.4316 -0.1434
 3941TIP3    H133238   3.810   3.622  12.030  1.2361  0.5110 -0.0644
 3941TIP3    H233239   3.847   3.482  11.988 -0.3351  0.2752 -0.6933
 3942TIP3   OH233240   0.563   0.396  11.094  0.3648 -0.5655  0.1650
 3942TIP3    H133241   0.616   0.427  11.167  1.6764  1.0906 -1.4484
 3942TIP3    H233242   0.625   0.385  11.022 -1.0624 -1.1412 -0.9923
 3943TIP3   OH233243   5.647   1.499   0.152  0.4139 -0.0888  0.0694
 3943TIP3    H133244   5.739   1.519   0.134  0.0415  0.4355 -1.3227
 3943TIP3    H233245   5.631   1.536   0.239  1.3034  0.5328 -0.0250
 3944TIP3   OH233246   4.162   1.054  14.532  0.2951 -0.1900  0.0617
 3944TIP3    H133247   4.252   1.042  14.560 -0.3111 -0.7878  1.8427
 3944TIP3    H233248   4.121   0.968  14.543  0.1303 -0.5641 -3.1647
 3945TIP3   OH233249   0.505   3.921  16.598 -0.0408 -0.7747  0.2618
 3945TIP3    H133250   0.597   3.917  16.573 -0.5443  0.8940 -1.9657
 3945TIP3    H233251   0.495   4.005  16.642 -0.7505 -0.4462 -0.5263
 3946TIP3   OH233252   4.453   2.899   1.833 -0.8440  0.0625  0.6664
 3946TIP3    H133253   4.503   2.979   1.814  1.3739 -1.3784  0.3177
 3946TIP3    H233254   4.413   2.875   1.750  4.0818 -2.9453 -1.0815
 3947TIP3   OH233255   0.120   3.668   1.946 -0.2920 -0.0399  0.0833
 3947TIP3    H133256   0.103   3.616   2.025 -1.3229  0.1639  0.0044
 3947TIP3    H233257   0.036   3.708   1.925  0.3811  1.3102 -0.1169
 3948TIP3   OH233258   0.361   2.229   1.219 -0.3269 -0.1711 -0.3847
 3948TIP3    H133259   0.433   2.226   1.156 -0.4992 -1.5297 -0.5404
 3948TIP3    H233260   0.374   2.310   1.267 -0.4231  1.1067 -2.4455
 3949TIP3   OH233261   1.694   6.377  12.470  0.3201 -0.0245 -0.1550
 3949TIP3    H133262   1.609   6.334  12.481  0.0684  0.3229 -0.7787
 3949TIP3    H233263   1.701   6.393  12.377 -0.0721  2.3054  0.1962
 3950TIP3   OH233264   6.521   2.662  11.321 -0.6362 -0.8396 -0.4454
 3950TIP3    H133265   6.430   2.661  11.291 -0.5507  1.1594 -0.7844
 3950TIP3    H233266   6.565   2.722  11.261  0.5667 -0.5488  0.7233
 3951TIP3   OH233267   3.710   5.550   2.690 -0.3593  0.7930  0.7088
 3951TIP3    H133268   3.617   5.527   2.693 -0.2661  0.5230  1.4531
 3951TIP3    H233269   3.719   5.619   2.756 -0.2987  1.7677 -0.3029
 3952TIP3   OH233270   0.363   3.061   6.517  0.0037 -0.0099 -0.5537
 3952TIP3    H133271   0.383   3.049   6.610 -2.1965 -0.7304 -0.1621
 3952TIP3    H233272   0.437   3.020   6.472  0.8435 -0.1108  0.8606
 3953TIP3   OH233273   2.128   4.819  17.147  0.4782  0.1633 -0.1422
 3953TIP3    H133274   2.130   4.894  17.206 -1.5026  1.8655 -2.2107
 3953TIP3    H233275   2.147   4.855  17.061  1.4805 -2.0298 -0.8732
 3954TIP3   OH233276   4.321   4.927   0.532  0.4564  0.1187  0.4604
 3954TIP3    H133277   4.401   4.895   0.489 -0.6101 -1.5993 -0.3366
 3954TIP3    H233278   4.271   4.967   0.461  1.1377  2.2808  1.1915
 3955TIP3   OH233279   5.485   6.516   1.780  0.4020  0.1053 -0.6007
 3955TIP3    H133280   5.471   6.454   1.708  0.6526 -0.3509 -0.2612
 3955TIP3    H233281   5.578   6.507   1.802 -0.1537 -1.4319  1.2835
 3956TIP3   OH233282   0.828   4.731  14.234 -0.3296 -0.2901  0.1843
 3956TIP3    H133283   0.895   4.792  14.264  0.9753 -0.7871 -1.6492
 3956TIP3    H233284   0.869   4.644  14.242 -0.4930 -0.5450 -1.5509
 3957TIP3   OH233285   4.419   1.349   0.722 -0.4382  0.3500 -0.4884
 3957TIP3    H133286   4.499   1.299   0.740 -0.0416  0.0818 -2.9054
 3957TIP3    H233287   4.376   1.356   0.808  1.6669 -0.3525  0.6698
 3958TIP3   OH233288   2.607   2.804   3.396  0.4612 -0.4376  0.3859
 3958TIP3    H133289   2.523   2.761   3.380 -0.3512  1.4270 -0.4880
 3958TIP3    H233290   2.658   2.788   3.316 -0.2326  1.0907 -0.3811
 3959TIP3   OH233291   5.304   2.595  16.942  0.3303 -0.0528  0.4086
 3959TIP3    H133292   5.260   2.581  17.026 -1.5517 -0.8438 -0.6765
 3959TIP3    H233293   5.265   2.531  16.883  2.8644 -0.6751 -0.6607
 3960TIP3   OH233294   3.640   4.147   4.499  0.1048  0.3825 -0.2059
 3960TIP3    H133295   3.684   4.232   4.502 -0.4936  0.7057 -0.5190
 3960TIP3    H233296   3.688   4.098   4.432  2.3843 -0.6197  2.1024
 3961TIP3   OH233297   2.222   2.379   1.654  0.8277 -0.5647 -0.1836
 3961TIP3    H133298   2.288   2.406   1.718  2.1148 -0.9125 -1.3514
 3961TIP3    H233299   2.222   2.449   1.589  0.6012 -0.9529 -0.5985
 3962TIP3   OH233300   6.590   6.711  16.117 -0.2000  0.0376 -0.4694
 3962TIP3    H133301   6.620   6.795  16.153 -0.0111 -0.0413 -0.4402
 3962TIP3    H233302   6.573   6.657  16.193  1.4293 -0.5558 -0.5012
 3963TIP3   OH233303   1.084   0.750   1.143 -0.3001  0.3211 -0.1973
 3963TIP3    H133304   1.033   0.830   1.128 -1.3918 -0.4511 -0.6884
 3963TIP3    H233305   1.155   0.755   1.079  0.4962  1.6106  0.7764
 3964TIP3   OH233306   3.990   6.775   3.691  0.4675 -0.6158 -1.1705
 3964TIP3    H133307   4.068   6.813   3.731  0.6613 -0.2557 -1.8899
 3964TIP3    H233308   3.998   6.681   3.707  0.1022 -0.3982  0.4032
 3965TIP3   OH233309   5.027   2.366   3.456 -0.5194 -0.2360 -0.0450
 3965TIP3    H133310   5.054   2.370   3.548 -1.2454 -2.2145  0.2922
 3965TIP3    H233311   5.085   2.301   3.417  0.0078  0.8451 -1.0814
 3966TIP3   OH233312   3.341   2.844   1.435  0.2284  0.4453  0.3646
 3966TIP3    H133313   3.399   2.768   1.431 -0.1883  0.1776 -0.8219
 3966TIP3    H233314   3.253   2.807   1.447  0.0021  0.7362 -0.4012
 3967TIP3   OH233315   2.228   4.723   4.210 -0.5671  0.3335 -1.0764
 3967TIP3    H133316   2.236   4.656   4.278  0.9146  0.4814 -1.0889
 3967TIP3    H233317   2.135   4.747   4.211 -0.6878 -0.1068  0.4742
 3968TIP3   OH233318   0.979   1.369  11.543  0.0969  0.3186  0.2538
 3968TIP3    H133319   1.014   1.338  11.459  1.0465  1.3551  0.2646
 3968TIP3    H233320   0.952   1.289  11.588 -1.1799 -0.1998 -1.3621
 3969TIP3   OH233321   5.086   5.560  11.543  0.0879  0.0224  1.2019
 3969TIP3    H133322   5.036   5.637  11.569 -1.6729  0.4892 -3.0918
 3969TIP3    H233323   5.158   5.595  11.490  0.2820 -1.1478  0.6576
 3970TIP3   OH233324   3.486   6.313   1.955 -0.5893  0.3687 -0.3819
 3970TIP3    H133325   3.393   6.338   1.946 -1.2943 -1.6702  1.0041
 3970TIP3    H233326   3.502   6.253   1.883 -0.0590  1.4476 -1.1821
 3971TIP3   OH233327   1.863   1.168  14.735 -0.2760  0.0161  0.0707
 3971TIP3    H133328   1.951   1.186  14.704 -0.1038 -1.6298 -0.4706
 3971TIP3    H233329   1.806   1.197  14.664 -0.0997  0.0376 -0.0643
 3972TIP3   OH233330   1.195   2.712   2.774  0.1635 -0.3020  0.7586
 3972TIP3    H133331   1.182   2.806   2.767 -0.0219 -0.3592  0.3117
 3972TIP3    H233332   1.217   2.684   2.685 -1.2135 -0.8976  0.5861
 3973TIP3   OH233333   5.254   1.258  12.789  0.3307  0.1630  0.2177
 3973TIP3    H133334   5.291   1.267  12.701 -0.4452 -1.6599 -0.3049
 3973TIP3    H233335   5.254   1.347  12.824 -2.3109  1.4757 -2.8367
 3974TIP3   OH233336   2.621   5.836  17.159 -0.0371  0.2414  0.0507
 3974TIP3    H133337   2.708   5.860  17.126 -0.1929  1.1347  0.2561
 3974TIP3    H233338   2.562   5.898  17.116 -0.6338 -0.6688 -0.4613
 3975TIP3   OH233339   3.441   0.003  14.775  0.7640 -0.0095 -0.0176
 3975TIP3    H133340   3.369  -0.016  14.715  1.4472  0.3749 -0.9739
 3975TIP3    H233341   3.465  -0.082  14.812  0.1792 -0.2120 -0.0946
 3976TIP3   OH233342   0.866   0.310  14.634  0.5512 -1.1178  0.2340
 3976TIP3    H133343   0.859   0.257  14.714  2.4436 -2.1202 -0.2223
 3976TIP3    H233344   0.955   0.292  14.602  0.8031  1.4202 -0.5886
 3977TIP3   OH233345   6.741   2.752   4.089  0.4323  0.2857  0.2518
 3977TIP3    H133346   6.779   2.831   4.052  1.0612  0.6614  1.6410
 3977TIP3    H233347   6.803   2.724   4.156 -0.9276 -0.0149  1.4356
 3978TIP3   OH233348   2.363   3.374   1.179  0.1402 -0.0947  0.3879
 3978TIP3    H133349   2.354   3.310   1.108  2.2965  1.8857 -1.7762
 3978TIP3    H233350   2.298   3.441   1.159  0.4237  0.2328  0.5679
 3979TIP3   OH233351   2.360   2.539  16.324 -0.0664 -0.4716  0.5829
 3979TIP3    H133352   2.312   2.557  16.405 -1.0940  1.1751 -0.3687
 3979TIP3    H233353   2.298   2.490  16.270  0.2539 -0.6552  0.3834
 3980TIP3   OH233354   1.867   6.019  13.379 -0.1543 -0.3138  0.1289
 3980TIP3    H133355   1.875   5.932  13.338 -0.8281 -0.9329  1.2774
 3980TIP3    H233356   1.900   6.006  13.468 -0.6188  0.5238  0.4265
 3981TIP3   OH233357   1.705   6.379  15.279 -0.0092  0.4286  0.1520
 3981TIP3    H133358   1.799   6.392  15.270  0.3827 -0.4734  2.6531
 3981TIP3    H233359   1.695   6.289  15.309 -1.6810  0.5470  0.0424
 3982TIP3   OH233360   4.417   0.186  14.093 -0.2871 -0.1170  0.3500
 3982TIP3    H133361   4.423   0.097  14.129  0.0747 -0.4052 -0.3933
 3982TIP3    H233362   4.411   0.243  14.169  0.7121 -0.6924  0.8690
 3983TIP3   OH233363   6.056   0.433  16.930 -0.2023  0.3999  0.2612
 3983TIP3    H133364   6.018   0.346  16.920 -0.9037  0.5298  1.6638
 3983TIP3    H233365   6.003   0.489  16.873 -2.9580  0.7981  3.0766
 3984TIP3   OH233366   1.636   1.176   1.339 -0.3623 -0.5071  0.1325
 3984TIP3    H133367   1.612   1.083   1.336 -1.8116 -0.3638  4.1107
 3984TIP3    H233368   1.727   1.176   1.369 -0.8143 -0.6673  1.5725
 3985TIP3   OH233369   1.207   4.063  16.622 -0.0580  0.7833 -0.3090
 3985TIP3    H133370   1.155   4.122  16.567 -1.7197  0.7059  1.0985
 3985TIP3    H233371   1.194   4.097  16.711  1.3994  0.0591  0.1901
 3986TIP3   OH233372   3.820   2.195  17.020  0.3111 -0.3345 -0.2021
 3986TIP3    H133373   3.910   2.193  17.053  0.8665 -1.9238 -1.7510
 3986TIP3    H233374   3.824   2.150  16.936 -1.2900  2.6147 -1.9197
 3987TIP3   OH233375   0.028   2.670   0.978 -0.7381 -0.0045 -0.1646
 3987TIP3    H133376  -0.045   2.616   1.008 -1.3616  0.9756  0.1171
 3987TIP3    H233377   0.067   2.705   1.058  0.7485 -1.3912 -0.2478
 3988TIP3   OH233378   1.174   1.005   0.787  0.0986 -0.1291  0.0252
 3988TIP3    H133379   1.229   1.077   0.757  0.5631 -0.4790  0.0313
 3988TIP3    H233380   1.113   0.990   0.715 -0.2929  0.5713  0.2123
 3989TIP3   OH233381   1.879   4.023   1.857 -0.4165 -0.8499  0.0374
 3989TIP3    H133382   1.943   3.955   1.877  2.0584  1.7968  1.6952
 3989TIP3    H233383   1.892   4.088   1.926 -2.6549  1.2952 -1.4807
 3990TIP3   OH233384   5.350   3.103   4.265 -0.1751  0.1868 -0.0448
 3990TIP3    H133385   5.270   3.129   4.220 -0.6125 -1.2340 -0.1235
 3990TIP3    H233386   5.410   3.076   4.195  0.5775  1.7275 -0.0250
 3991TIP3   OH233387   6.078   4.599  15.828 -0.2907  0.0353  0.1087
 3991TIP3    H133388   5.999   4.566  15.785 -0.8654  0.5883  0.7297
 3991TIP3    H233389   6.048   4.673  15.881  0.3564 -0.7489  1.6068
 3992TIP3   OH233390   2.353   0.884   2.383 -0.2484  0.7971 -0.2911
 3992TIP3    H133391   2.393   0.933   2.311 -0.5427 -1.0074 -1.7108
 3992TIP3    H233392   2.263   0.918   2.388 -0.4347  0.4663 -1.2284
 3993TIP3   OH233393   4.396   1.291  16.840 -0.2059 -0.2252 -0.2372
 3993TIP3    H133394   4.330   1.345  16.796  1.0339  1.4895 -0.0470
 3993TIP3    H233395   4.472   1.295  16.782  1.0649  1.1341  1.5095
 3994TIP3   OH233396   6.604   3.634   3.316 -0.5054 -1.0025 -0.1425
 3994TIP3    H133397   6.608   3.628   3.412 -0.1691 -2.0007 -0.2152
 3994TIP3    H233398   6.659   3.710   3.295 -0.7255 -0.6685  0.4603
 3995TIP3   OH233399   4.883   6.081  12.216  0.4610  0.0570 -0.3304
 3995TIP3    H133400   4.863   6.152  12.155  1.2864  0.1983 -0.4341
 3995TIP3    H233401   4.961   6.111  12.263 -0.1099 -0.0864  0.7395
 3996TIP3   OH233402   5.279   2.291   4.225 -0.3088  0.3164 -0.0281
 3996TIP3    H133403   5.297   2.325   4.138  0.1437  2.5283  0.9114
 3996TIP3    H233404   5.353   2.319   4.279  0.0345 -2.0742  0.8272
 3997TIP3   OH233405   3.573   1.023   3.967  0.3028  0.2033  0.3046
 3997TIP3    H133406   3.488   0.988   3.940 -0.1117  1.0191  0.5284
 3997TIP3    H233407   3.609   0.956   4.026  1.0796 -1.4387 -1.9817
 3998TIP3   OH233408   6.391   0.177   0.380 -0.4745 -0.4083  0.1569
 3998TIP3    H133409   6.475   0.207   0.417 -1.9352  2.5802  1.2735
 3998TIP3    H233410   6.390   0.212   0.291  0.0250 -1.6123 -0.3322
 3999TIP3   OH233411   3.162   5.068   1.394  0.1692 -0.1173  0.1506
 3999TIP3    H133412   3.201   5.143   1.349  2.3103 -0.3997  1.4555
 3999TIP3    H233413   3.100   5.032   1.331  1.4722  0.8159 -1.7255
 4000TIP3   OH233414   3.255   6.640  10.868 -0.4571  0.3716  0.2514
 4000TIP3    H133415   3.312   6.574  10.828  0.2857  0.7039  0.7392
 4000TIP3    H233416   3.289   6.724  10.835 -0.7816  0.5613  0.3967
 4001TIP3   OH233417   2.004   3.643   5.655  0.3232 -0.2941  0.9429
 4001TIP3    H133418   2.003   3.573   5.590 -1.4333 -0.2427  0.8850
 4001TIP3    H233419   2.046   3.716   5.611 -0.6849 -0.3245 -0.0940
 4002TIP3   OH233420   4.586   1.444  12.197 -0.0597 -0.0201  0.0887
 4002TIP3    H133421   4.559   1.534  12.213 -1.3899 -0.6377  1.4427
 4002TIP3    H233422   4.526   1.413  12.129 -0.6475 -0.3774  0.7669
 4003TIP3   OH233423   1.572   1.288   1.813 -0.1396 -0.3387  0.2074
 4003TIP3    H133424   1.563   1.219   1.747 -0.3442 -0.1479  0.0363
 4003TIP3    H233425   1.501   1.349   1.794  0.2812  0.1275  0.1173
 4004TIP3   OH233426   3.489   4.684  16.272 -0.0204  0.2554 -0.1313
 4004TIP3    H133427   3.535   4.629  16.336  0.5171 -0.0511 -0.7789
 4004TIP3    H233428   3.422   4.729  16.323 -0.0766 -0.5503  0.5176
 4005TIP3   OH233429   3.530   0.617   6.243 -0.2338 -0.2538  0.0891
 4005TIP3    H133430   3.583   0.587   6.316  0.4249 -1.9867 -1.0819
 4005TIP3    H233431   3.574   0.697   6.213  0.3521 -0.3668  0.6323
 4006TIP3   OH233432   1.503   6.625   0.750 -0.4175 -1.1201 -0.1242
 4006TIP3    H133433   1.506   6.694   0.685 -1.1310  0.4335  1.4562
 4006TIP3    H233434   1.561   6.557   0.716  1.6164  0.9479 -0.9018
 4007TIP3   OH233435   1.479   5.218   0.682  0.1704 -0.0516 -0.1689
 4007TIP3    H133436   1.476   5.291   0.744 -0.8692  0.3230 -0.6339
 4007TIP3    H233437   1.565   5.225   0.641  1.0879 -0.6557  1.6347
 4008TIP3   OH233438   3.262   3.707  13.038  0.0865  0.0677 -0.4548
 4008TIP3    H133439   3.174   3.709  13.076 -0.0175  1.1572 -0.7410
 4008TIP3    H233440   3.283   3.799  13.022  1.0898 -0.2249 -0.8207
 4009TIP3   OH233441   3.967   2.590   2.057 -0.2984  0.2628  0.5215
 4009TIP3    H133442   4.007   2.669   2.020 -1.1473 -0.0783 -1.1421
 4009TIP3    H233443   3.874   2.611   2.064 -0.6564 -0.8737 -0.6995
 4010TIP3   OH233444   3.110   5.154   5.634  0.2460 -0.6779  0.4819
 4010TIP3    H133445   3.104   5.092   5.707  0.6345  1.4235  2.3921
 4010TIP3    H233446   3.203   5.152   5.609  0.1987 -1.0873  0.3354
 4011TIP3   OH233447   5.109   3.433   0.031  0.1149 -0.1561 -0.3385
 4011TIP3    H133448   5.059   3.515   0.030 -0.2574 -0.3631  1.0767
 4011TIP3    H233449   5.165   3.439   0.108 -0.7007 -1.6978  0.3987
 4012TIP3   OH233450   1.337   3.584  15.358 -0.3502 -0.4639  0.4507
 4012TIP3    H133451   1.371   3.650  15.418  1.2188 -1.3628  0.5624
 4012TIP3    H233452   1.374   3.501  15.389 -1.0898 -1.2005 -0.5865
 4013TIP3   OH233453   0.779   2.289  15.166 -0.4054 -0.5090  0.1281
 4013TIP3    H133454   0.830   2.340  15.103 -0.7195 -0.4563 -0.0884
 4013TIP3    H233455   0.700   2.265  15.118 -1.6595  1.3602  1.1588
 4014TIP3   OH233456   4.884   5.136  10.507 -0.6607  0.0676  0.2497
 4014TIP3    H133457   4.811   5.113  10.449  0.7949  1.2042 -2.1205
 4014TIP3    H233458   4.945   5.062  10.498  0.1946  0.8772 -0.8073
 4015TIP3   OH233459   6.392   3.408  14.224  0.3823  1.3859 -0.3646
 4015TIP3    H133460   6.307   3.452  14.235 -0.6151 -0.5411 -0.2263
 4015TIP3    H233461   6.405   3.405  14.129 -0.5149  0.1789 -0.4541
 4016TIP3   OH233462   1.243   6.000   1.416 -0.3737 -0.2613 -0.3203
 4016TIP3    H133463   1.245   5.993   1.512 -0.1624  1.4905 -0.1793
 4016TIP3    H233464   1.333   5.979   1.389 -0.4579 -0.8535 -0.1499
 4017TIP3   OH233465   2.276   1.987   5.647  0.3816  0.3303 -0.5804
 4017TIP3    H133466   2.250   2.043   5.575 -2.3121 -0.2408 -0.1050
 4017TIP3    H233467   2.245   2.032   5.726 -0.5970 -1.1281 -0.1060
 4018TIP3   OH233468   5.298   4.958  10.971 -0.3203  0.1510  0.4047
 4018TIP3    H133469   5.354   5.023  11.014 -0.5256  1.8723 -1.8443
 4018TIP3    H233470   5.250   5.007  10.904 -0.6462 -2.2671 -1.2348
 4019TIP3   OH233471   2.512   1.660   0.594  0.3694 -0.1776 -0.1402
 4019TIP3    H133472   2.432   1.647   0.645  0.8188  0.2399  0.6826
 4019TIP3    H233473   2.580   1.672   0.660  0.8071  1.2416 -0.8341
 4020TIP3   OH233474   4.200   1.821  17.100 -0.2877 -0.0897 -0.5839
 4020TIP3    H133475   4.245   1.822  17.184  2.0309  1.2377 -1.7997
 4020TIP3    H233476   4.115   1.861  17.118 -0.1612 -0.6489  1.3029
 4021TIP3   OH233477   6.375   6.439  11.728  0.0600 -0.5763 -0.5916
 4021TIP3    H133478   6.456   6.446  11.779  0.9484  0.2757 -2.0845
 4021TIP3    H233479   6.400   6.393  11.648 -0.7191  0.5051 -1.4806
 4022TIP3   OH233480   4.716   2.704   3.441  0.0399  0.1586 -0.0169
 4022TIP3    H133481   4.678   2.623   3.407  0.4379 -0.7171  1.5847
 4022TIP3    H233482   4.664   2.724   3.519  0.8044  0.7087  0.3580
 4023TIP3   OH233483   4.930   5.407   5.607 -0.5113 -0.1525  0.4361
 4023TIP3    H133484   4.883   5.482   5.643  2.2874  1.1035  1.6452
 4023TIP3    H233485   4.877   5.331   5.632 -2.1868  1.2347  1.2085
 4024TIP3   OH233486   4.880   3.850  12.825 -0.0019  0.2479 -0.9272
 4024TIP3    H133487   4.923   3.936  12.826  0.0907  0.2092 -1.6214
 4024TIP3    H233488   4.912   3.808  12.745 -0.3481 -0.2831 -0.7879
 4025TIP3   OH233489   3.435   0.240  14.667 -0.1403  0.6423 -0.1864
 4025TIP3    H133490   3.402   0.211  14.582 -1.4577  1.7425 -0.0534
 4025TIP3    H233491   3.423   0.164  14.724 -2.0773  0.8742 -0.2462
 4026TIP3   OH233492   4.750   1.242   4.009 -0.0461 -0.0525 -0.0886
 4026TIP3    H133493   4.767   1.155   4.045 -1.1906 -0.7358 -1.1328
 4026TIP3    H233494   4.820   1.255   3.944  0.5237  0.1018  0.5517
 4027TIP3   OH233495   1.686   4.047  14.896 -0.6901 -0.5101 -0.2471
 4027TIP3    H133496   1.623   4.115  14.870 -1.2059 -1.1970 -0.8148
 4027TIP3    H233497   1.632   3.973  14.923 -0.1168 -1.1520 -0.8490
 4028TIP3   OH233498   6.645   2.293   4.920 -0.2761  0.4215  0.3391
 4028TIP3    H133499   6.578   2.353   4.886 -2.3295 -2.0986 -0.2982
 4028TIP3    H233500   6.609   2.262   5.003  0.1777 -0.8125  0.0822
 4029TIP3   OH233501   5.047   3.640  12.916 -0.4634  0.3416 -0.2666
 4029TIP3    H133502   5.081   3.681  12.996  1.5713 -0.8766 -0.4822
 4029TIP3    H233503   4.974   3.696  12.890 -0.3638  1.4585  1.7551
 4030TIP3   OH233504   0.514   0.458   0.537  0.3594 -0.0459  0.4207
 4030TIP3    H133505   0.501   0.502   0.621 -0.3715 -0.7948  0.7103
 4030TIP3    H233506   0.484   0.368   0.552  0.0816 -0.1470 -0.6719
 4031TIP3   OH233507   2.458   4.990   6.380  0.0807 -0.0042  0.0584
 4031TIP3    H133508   2.480   4.955   6.293  0.0172 -2.8716  1.1400
 4031TIP3    H233509   2.535   4.971   6.434 -1.4012 -1.8276  1.5868
 4032TIP3   OH233510   0.567   5.856  15.664 -0.4992 -0.0161  0.3651
 4032TIP3    H133511   0.481   5.898  15.658 -0.0101  1.0298  0.5486
 4032TIP3    H233512   0.630   5.928  15.652  0.3508 -0.7152  0.5602
 4033TIP3   OH233513   4.702   6.341  15.971 -0.1976 -0.3493  0.5497
 4033TIP3    H133514   4.742   6.416  16.015 -1.2431  0.2722  0.4704
 4033TIP3    H233515   4.752   6.265  16.002  0.1959  0.2693  1.4493
 4034TIP3   OH233516   6.046   5.090  14.328  0.4133  0.4490 -0.0531
 4034TIP3    H133517   6.137   5.119  14.339  0.2695  0.7990  0.2214
 4034TIP3    H233518   5.995   5.170  14.331  0.2042  0.3869 -1.5194
 4035TIP3   OH233519   2.286   5.914  14.479 -0.2553 -0.3390  0.3610
 4035TIP3    H133520   2.211   5.906  14.421 -0.6786 -0.5404  0.9263
 4035TIP3    H233521   2.362   5.915  14.421 -0.7753  1.2739 -0.2900
 4036TIP3   OH233522   0.434   1.446  13.404  0.5262  0.4609  0.1902
 4036TIP3    H133523   0.359   1.488  13.363 -0.8964 -0.4721  1.7631
 4036TIP3    H233524   0.417   1.352  13.397  0.8690  0.2649  1.7714
 4037TIP3   OH233525   3.283   2.331   4.161  0.2650 -0.6601  0.4713
 4037TIP3    H133526   3.353   2.334   4.226 -0.2223 -1.8751  1.0606
 4037TIP3    H233527   3.203   2.323   4.212 -0.2035 -0.6099 -0.2502
 4038TIP3   OH233528   3.572   2.773  14.596 -0.0065  0.0732 -0.3395
 4038TIP3    H133529   3.490   2.823  14.601 -0.0355  0.1325 -1.2592
 4038TIP3    H233530   3.630   2.817  14.658 -0.6123  0.1472  0.1816
 4039TIP3   OH233531   6.626   3.173   2.496  0.3621  0.2930 -0.1581
 4039TIP3    H133532   6.556   3.119   2.460  0.1539  0.8326 -0.5764
 4039TIP3    H233533   6.668   3.212   2.420  0.2986  0.9798  0.1535
 4040TIP3   OH233534   1.103   5.365   0.947  0.4615 -0.1794 -0.1151
 4040TIP3    H133535   1.167   5.427   0.910 -0.0052 -0.1579 -0.9026
 4040TIP3    H233536   1.061   5.327   0.870 -1.1308  0.4810  0.4245
 4041TIP3   OH233537   1.455   3.384   3.212 -0.6771  0.4818 -0.5423
 4041TIP3    H133538   1.504   3.463   3.191 -0.9261  0.8658  0.3052
 4041TIP3    H233539   1.508   3.312   3.177  0.7273  0.8551  0.7855
 4042TIP3   OH233540   5.980   3.210   2.732 -0.1256  0.2887  0.2448
 4042TIP3    H133541   5.886   3.221   2.723 -0.0991  0.4534  0.1613
 4042TIP3    H233542   6.018   3.281   2.680  0.0340  1.0219  1.3558
 4043TIP3   OH233543   6.697   5.246   2.689 -0.0620  0.3522  0.1908
 4043TIP3    H133544   6.709   5.199   2.607  1.7150 -0.3066  0.8091
 4043TIP3    H233545   6.612   5.289   2.680  0.3986  0.8184 -2.2408
 4044TIP3   OH233546   2.488   3.051   3.842  0.9235 -0.9262  0.0857
 4044TIP3    H133547   2.497   3.139   3.807  1.6877 -0.1963  2.0844
 4044TIP3    H233548   2.472   2.996   3.765 -0.4113  1.0553 -1.0775
 4045TIP3   OH233549   6.704   6.389  12.824  0.9000 -0.4022 -0.2243
 4045TIP3    H133550   6.632   6.435  12.867  0.2679 -0.6681 -0.9974
 4045TIP3    H233551   6.727   6.320  12.886  1.6662  0.7551  0.8137
 4046TIP3   OH233552   5.988   5.255  15.755  0.0976  0.4302  0.3302
 4046TIP3    H133553   6.046   5.204  15.697  0.8621  0.0271  1.4352
 4046TIP3    H233554   5.944   5.316  15.696  2.2874  1.3350 -0.4452
 4047TIP3   OH233555   2.051   4.346   0.440 -0.7019 -0.4773 -0.0020
 4047TIP3    H133556   2.055   4.327   0.534  1.6224  0.7448  0.1841
 4047TIP3    H233557   2.130   4.305   0.404 -0.0545  1.4773 -0.9192
 4048TIP3   OH233558   5.383   1.335   1.863 -0.3658  0.0432 -0.1946
 4048TIP3    H133559   5.339   1.322   1.947 -0.7424 -1.1852 -0.5789
 4048TIP3    H233560   5.472   1.303   1.877 -0.6585 -0.9005 -0.4978
 4049TIP3   OH233561   4.319   4.303   2.827 -0.1595  0.6794  0.3105
 4049TIP3    H133562   4.399   4.354   2.815 -0.6488  0.9083 -2.1677
 4049TIP3    H233563   4.350   4.213   2.837  0.4555  0.8710  0.1977
 4050TIP3   OH233564   6.401   2.139   2.798 -0.0749 -0.4441  0.2602
 4050TIP3    H133565   6.353   2.081   2.857  0.2545  1.0415  2.0480
 4050TIP3    H233566   6.347   2.218   2.793  1.4060  0.6430  1.0857
 4051TIP3   OH233567   2.387   4.924   4.951  0.1450  0.1817 -0.1540
 4051TIP3    H133568   2.406   4.935   5.044  0.6382  1.1633 -0.3627
 4051TIP3    H233569   2.460   4.967   4.906 -0.8356  1.0004 -0.9885
 4052TIP3   OH233570   4.489   3.522  13.435  0.6401  0.4478  0.4548
 4052TIP3    H133571   4.526   3.440  13.467  0.5602  0.2916  0.1503
 4052TIP3    H233572   4.440   3.557  13.509  1.8016  0.9030  1.0174
 4053TIP3   OH233573   0.615   2.919  16.776 -0.1881  0.2434 -0.0544
 4053TIP3    H133574   0.616   2.830  16.741 -0.3958 -0.2697  1.2106
 4053TIP3    H233575   0.532   2.956  16.747  0.1544  0.2210 -1.0697
 4054TIP3   OH233576   4.102   4.103  12.396 -0.3994 -0.1791 -0.3810
 4054TIP3    H133577   4.171   4.096  12.330 -1.7932 -1.4701 -1.7478
 4054TIP3    H233578   4.139   4.161  12.463  1.8744 -0.5880 -1.2254
 4055TIP3   OH233579   0.407   4.943  14.976 -0.0474  0.3078  0.2325
 4055TIP3    H133580   0.384   4.948  15.069 -1.6102 -0.0787 -0.1233
 4055TIP3    H233581   0.502   4.956  14.974 -0.0129  0.3824  1.8736
 4056TIP3   OH233582   4.237   1.184   4.046 -0.7732  0.1498  0.0675
 4056TIP3    H133583   4.213   1.093   4.063 -0.7957  0.3702  1.2437
 4056TIP3    H233584   4.329   1.190   4.071 -1.1332  0.7760  1.2803
 4057TIP3   OH233585   3.754   3.870  12.842 -0.8844  0.8376 -0.0715
 4057TIP3    H133586   3.675   3.922  12.831 -1.5190 -0.3149 -1.1479
 4057TIP3    H233587   3.779   3.882  12.933 -3.7207 -0.7879  0.9772
 4058TIP3   OH233588   2.625   4.323   4.446 -0.6839  0.4089  0.0139
 4058TIP3    H133589   2.690   4.254   4.434  0.3621  1.6704 -1.7329
 4058TIP3    H233590   2.560   4.284   4.505  1.1122 -1.2142  0.9947
 4059TIP3   OH233591   2.663   3.282   5.413  0.6313 -0.4622 -0.2284
 4059TIP3    H133592   2.746   3.317   5.446  0.9434 -0.4328 -1.0300
 4059TIP3    H233593   2.644   3.208   5.470  1.8747 -1.2515 -0.8225
 4060TIP3   OH233594   4.319   6.758  11.194  0.2596 -0.4396 -0.4932
 4060TIP3    H133595   4.237   6.806  11.191  0.4367  0.0067  1.2143
 4060TIP3    H233596   4.332   6.738  11.287  1.8714 -0.8587 -0.7845
 4061TIP3   OH233597   2.870   6.464  13.940  0.1288 -0.8188  0.8365
 4061TIP3    H133598   2.839   6.541  13.987 -0.2449  0.0697 -0.8417
 4061TIP3    H233599   2.963   6.482  13.923 -0.5452  0.4150 -1.7531
 4062TIP3   OH233600   1.425   3.099   0.222  0.3684 -0.3249 -0.1545
 4062TIP3    H133601   1.379   3.090   0.306  1.7941 -0.7860  0.5840
 4062TIP3    H233602   1.354   3.108   0.158 -0.7549 -0.5298  1.0174
 4063TIP3   OH233603   6.419   5.374  15.669  0.1514  0.1234 -0.4829
 4063TIP3    H133604   6.412   5.289  15.713 -0.2047  1.0283  1.2492
 4063TIP3    H233605   6.363   5.365  15.591  0.9299 -1.5578 -0.8796
 4064TIP3   OH233606   1.883   1.917  13.492  0.5779 -0.0428 -0.0024
 4064TIP3    H133607   1.811   1.980  13.496 -1.2293 -2.0350  0.1712
 4064TIP3    H233608   1.949   1.958  13.437 -0.5238  2.0014  0.1700
 4065TIP3   OH233609   0.867   1.987  15.454 -0.1902  0.1029 -0.1519
 4065TIP3    H133610   0.829   1.951  15.535 -1.8423  0.7141 -0.6392
 4065TIP3    H233611   0.817   1.946  15.384  1.0804 -0.2330 -0.8703
 4066TIP3   OH233612   1.872   1.467  13.860 -0.1849  0.0318 -0.0844
 4066TIP3    H133613   1.920   1.452  13.942  0.9908  0.0122 -0.7574
 4066TIP3    H233614   1.824   1.385  13.846  1.1559 -0.7184 -0.4168
 4067TIP3   OH233615   4.598   3.140  17.180 -0.4683 -0.0727  0.3244
 4067TIP3    H133616   4.616   3.050  17.206 -0.5376 -0.5105 -1.1276
 4067TIP3    H233617   4.543   3.133  17.103  0.5321  1.1959 -0.5353
 4068TIP3   OH233618   3.318   2.592   5.168  0.6419  0.1991 -0.0542
 4068TIP3    H133619   3.380   2.593   5.095  0.6115 -1.3507 -0.1212
 4068TIP3    H233620   3.232   2.582   5.126  0.7571 -2.4099  0.2315
 4069TIP3   OH233621   5.873   2.948  14.597 -0.3963  0.1796  0.0905
 4069TIP3    H133622   5.835   2.878  14.544 -0.4410  1.5828 -1.7991
 4069TIP3    H233623   5.965   2.951  14.571 -0.7836  1.9535 -1.1244
 4070TIP3   OH233624   5.308   4.078   4.466 -0.1015 -0.6064 -0.5600
 4070TIP3    H133625   5.258   4.122   4.534  0.4777  0.7135 -0.9794
 4070TIP3    H233626   5.250   4.008   4.436 -0.5539 -0.9028  0.9347
 4071TIP3   OH233627   1.792   2.376   0.155  0.1272  0.8522 -0.4825
 4071TIP3    H133628   1.854   2.303   0.152 -1.1206 -0.2552  0.2047
 4071TIP3    H233629   1.775   2.397   0.064 -2.0159 -1.9040 -0.7872
 4072TIP3   OH233630   5.082   3.375  15.925 -0.0419  0.2245  0.2353
 4072TIP3    H133631   5.118   3.434  15.859 -1.4192  1.8639  0.8990
 4072TIP3    H233632   5.033   3.309  15.875  0.0089  0.6891 -0.4329
 4073TIP3   OH233633   3.623   2.876   2.089 -0.6695 -0.5576  0.2274
 4073TIP3    H133634   3.708   2.920   2.085 -0.8462 -0.1655  0.6795
 4073TIP3    H233635   3.603   2.872   2.183 -0.8269 -1.2727  0.1662
 4074TIP3   OH233636   0.896   5.280  11.666 -0.7366 -0.5172  0.0210
 4074TIP3    H133637   0.863   5.346  11.727 -2.4734 -1.6272  0.3249
 4074TIP3    H233638   0.923   5.207  11.722 -0.9359 -0.9460 -0.4393
 4075TIP3   OH233639   4.778   5.500   2.120  0.3381 -0.3484 -0.1700
 4075TIP3    H133640   4.829   5.542   2.189 -1.0792 -0.9765  1.2811
 4075TIP3    H233641   4.843   5.477   2.053  1.4011  2.3038 -0.0949
 4076TIP3   OH233642   3.681   2.901   0.148  0.7279  0.1540 -0.0874
 4076TIP3    H133643   3.621   2.855   0.207  2.1753 -0.5879  0.8508
 4076TIP3    H233644   3.748   2.937   0.207  0.8202  1.5930 -1.0405
 4077TIP3   OH233645   5.461   1.954  13.343  0.5752  0.3561  0.2549
 4077TIP3    H133646   5.389   1.908  13.300  0.5454 -0.0672  0.7468
 4077TIP3    H233647   5.446   1.941  13.437  0.3607  1.6918  0.4174
 4078TIP3   OH233648   5.029   0.678   3.569 -0.5990 -0.2356 -0.5496
 4078TIP3    H133649   4.937   0.671   3.544 -0.6323 -2.6539  0.0943
 4078TIP3    H233650   5.073   0.609   3.519  0.3056 -1.2006  1.4929
 4079TIP3   OH233651   5.203   5.543  13.018  0.0766 -0.6506 -0.0929
 4079TIP3    H133652   5.229   5.549  13.110  4.2858 -0.5934 -1.1857
 4079TIP3    H233653   5.161   5.627  12.999  2.2374  0.6975  0.9254
 4080TIP3   OH233654   0.002   4.303  11.520 -0.6137 -0.4210  0.0496
 4080TIP3    H133655  -0.055   4.241  11.565 -0.7336 -0.7726 -0.5871
 4080TIP3    H233656  -0.025   4.389  11.554 -0.4892 -0.7093  0.8779
 4081TIP3   OH233657   1.656   3.250   6.085  0.1163  0.4546  0.8806
 4081TIP3    H133658   1.648   3.155   6.093 -0.5115  0.4037 -0.3258
 4081TIP3    H233659   1.727   3.273   6.144  1.7571 -1.0298 -0.4765
 4082TIP3   OH233660   4.140   3.418   3.670  0.6684  0.0133  0.4148
 4082TIP3    H133661   4.109   3.504   3.697  0.2898 -0.0568  0.2043
 4082TIP3    H233662   4.159   3.428   3.576 -1.7948 -0.8185 -0.1954
 4083TIP3   OH233663   4.570   5.544  14.494 -0.0182 -0.5399 -0.3709
 4083TIP3    H133664   4.601   5.515  14.408 -1.6921  0.6992 -1.4190
 4083TIP3    H233665   4.495   5.487  14.513  0.1919 -0.6441  0.1786
 4084TIP3   OH233666   0.379   3.434  12.955 -0.7205  0.5197  0.0450
 4084TIP3    H133667   0.319   3.369  12.994 -1.1975  1.1720  0.4101
 4084TIP3    H233668   0.465   3.408  12.987 -0.7497 -0.6710 -0.8151
 4085TIP3   OH233669   3.945   5.136   2.098  0.5817  0.0316 -0.4980
 4085TIP3    H133670   3.882   5.064   2.106  0.8290 -0.0735  0.7085
 4085TIP3    H233671   3.911   5.190   2.026 -0.3926 -0.5164 -0.4661
 4086TIP3   OH233672   2.279   1.179  13.076  0.2632 -0.3771  0.2757
 4086TIP3    H133673   2.204   1.143  13.122 -0.5371 -0.1584 -0.8444
 4086TIP3    H233674   2.355   1.144  13.122 -0.5153  0.2529  2.0913
 4087TIP3   OH233675   1.761   3.709   2.083 -0.2377  0.4176 -0.1643
 4087TIP3    H133676   1.737   3.800   2.100  1.6038  0.9563 -0.4131
 4087TIP3    H233677   1.850   3.701   2.116 -0.0872 -1.0682 -0.9083
 4088TIP3   OH233678   1.878   3.682  14.794 -0.3820  0.7953 -0.8064
 4088TIP3    H133679   1.871   3.767  14.750 -2.4536  1.2149  0.2447
 4088TIP3    H233680   1.838   3.620  14.733  0.9164  0.6129 -1.4735
 4089TIP3   OH233681   0.229   4.842   1.457 -0.9061 -0.0370 -0.2705
 4089TIP3    H133682   0.222   4.781   1.530  0.2111 -0.7173 -0.7283
 4089TIP3    H233683   0.143   4.839   1.415 -1.1222 -0.6619  0.2103
 4090TIP3   OH233684   6.658   6.339   3.935 -0.5750  0.4510  0.2659
 4090TIP3    H133685   6.692   6.384   3.858 -1.0346  0.5317  0.1097
 4090TIP3    H233686   6.575   6.301   3.906 -0.2987 -0.3166  0.4515
 4091TIP3   OH233687   6.158   4.878   4.076 -0.0869  0.5215 -0.5321
 4091TIP3    H133688   6.221   4.944   4.049  0.1849 -0.1483 -1.5823
 4091TIP3    H233689   6.201   4.830   4.147  0.5923  0.0714 -1.2441
 4092TIP3   OH233690   5.007   5.587  12.041 -0.4167 -0.0852  0.4363
 4092TIP3    H133691   4.972   5.538  11.966  2.4513 -0.0387 -0.9762
 4092TIP3    H233692   4.987   5.678  12.022 -0.6526 -0.1715  0.2653
 4093TIP3   OH233693   6.415   4.357   5.901 -0.2192  0.3769  0.0220
 4093TIP3    H133694   6.368   4.440   5.901 -0.7241  0.1077  1.4737
 4093TIP3    H233695   6.498   4.376   5.858 -1.5594  0.8970 -2.4024
 4094TIP3   OH233696   4.108   5.707   1.959 -0.1269  0.1943  0.0829
 4094TIP3    H133697   4.177   5.737   1.900 -0.5462  0.3065 -0.3566
 4094TIP3    H233698   4.113   5.611   1.955 -0.0584  0.2021 -0.0185
 4095TIP3   OH233699   5.121   5.764   3.887  0.5719 -0.1176 -0.1430
 4095TIP3    H133700   5.155   5.699   3.948 -1.1667 -0.6056  0.3409
 4095TIP3    H233701   5.084   5.712   3.816 -1.7750  0.2770  0.7540
 4096TIP3   OH233702   6.341   1.094  15.844 -0.0628 -0.7555  0.4619
 4096TIP3    H133703   6.425   1.124  15.876 -0.3293  1.7256 -1.0619
 4096TIP3    H233704   6.359   1.063  15.755 -0.4324 -1.9693  0.7964
 4097TIP3   OH233705   2.156   2.436   0.592  0.1621  0.3902  0.1871
 4097TIP3    H133706   2.098   2.483   0.532 -0.8921 -0.4074  0.5730
 4097TIP3    H233707   2.242   2.475   0.577 -0.6833  2.4381  0.4819
 4098TIP3   OH233708   2.444   6.499  16.184 -0.6780 -0.2025  0.4216
 4098TIP3    H133709   2.408   6.446  16.255  0.6104 -0.0322  1.2212
 4098TIP3    H233710   2.539   6.496  16.197 -0.5011  1.0644 -0.4048
 4099TIP3   OH233711   0.186   1.340  11.648  0.5882 -0.2075  0.0150
 4099TIP3    H133712   0.199   1.324  11.742 -0.3735  2.1590  0.6113
 4099TIP3    H233713   0.269   1.378  11.618  1.8317 -3.3860 -0.7344
 4100TIP3   OH233714   5.460   2.277  11.436  0.0473  0.0424 -0.0426
 4100TIP3    H133715   5.406   2.199  11.426  0.5149 -0.2346 -0.4331
 4100TIP3    H233716   5.445   2.305  11.526  2.1710 -2.2187  1.0842
 4101TIP3   OH233717   4.938   6.639   1.928 -0.2424 -0.1002  0.2401
 4101TIP3    H133718   4.849   6.613   1.954  0.2684 -2.3881 -0.2422
 4101TIP3    H233719   4.924   6.702   1.857 -1.4898  0.2951  0.8099
 4102TIP3   OH233720   4.130   5.444   1.988 -0.1916 -0.0101  0.7312
 4102TIP3    H133721   4.177   5.466   2.068  0.7788  0.1578  0.1178
 4102TIP3    H233722   4.181   5.374   1.948 -1.8058 -1.5701  1.3002
 4103TIP3   OH233723   5.734   6.189   5.594  0.4134 -0.2092 -0.6680
 4103TIP3    H133724   5.779   6.213   5.675 -1.2389 -0.3281  0.2984
 4103TIP3    H233725   5.702   6.273   5.559 -0.8444 -0.4069 -0.0051
 4104TIP3   OH233726   2.529   2.048   2.944 -0.1185  0.2454  0.0230
 4104TIP3    H133727   2.557   2.077   2.858  0.5140 -1.4337 -0.3552
 4104TIP3    H233728   2.471   1.974   2.927  0.5686 -0.5477  1.0666
 4105TIP3   OH233729   4.543   0.580   0.084  0.0722  0.1368  0.6740
 4105TIP3    H133730   4.550   0.484   0.087  0.7747  0.1724  0.2696
 4105TIP3    H233731   4.583   0.604   0.001  0.6100  0.8390  1.1320
 4106TIP3   OH233732   4.601   0.320   6.371  0.6673 -0.0628  0.5564
 4106TIP3    H133733   4.687   0.322   6.413 -0.1114 -2.0274  2.3452
 4106TIP3    H233734   4.547   0.377   6.425  0.2166 -0.8557  0.9528
 4107TIP3   OH233735   1.939   0.010   1.326 -0.8831 -0.0180 -0.1872
 4107TIP3    H133736   1.975  -0.048   1.393  1.2132  0.8483 -0.5221
 4107TIP3    H233737   1.907   0.086   1.374 -1.1524 -0.2550  0.0054
 4108TIP3   OH233738   1.032   2.549  15.781  0.1328 -0.7538  0.0217
 4108TIP3    H133739   1.125   2.552  15.803 -0.1625 -0.8529  1.2919
 4108TIP3    H233740   1.030   2.520  15.689  1.3604 -0.4190 -0.1212
 4109TIP3   OH233741   1.473   6.715   1.015  0.7129 -0.1878 -0.6681
 4109TIP3    H133742   1.490   6.681   0.927 -1.9058  0.2772 -1.4018
 4109TIP3    H233743   1.423   6.795   1.001 -1.7113 -1.2818  1.2743
 4110TIP3   OH233744   5.353   0.631  14.764  0.0727  0.4898  0.2138
 4110TIP3    H133745   5.379   0.655  14.853  0.2056 -0.9930  0.5828
 4110TIP3    H233746   5.258   0.634  14.765  0.0612  0.0873  0.5244
 4111TIP3   OH233747   2.996   2.918   5.031 -0.2261  0.3398 -0.0745
 4111TIP3    H133748   3.065   2.946   4.971 -1.8694 -0.0596 -2.2134
 4111TIP3    H233749   3.040   2.908   5.115  2.1314  0.9536 -1.1899
 4112TIP3   OH233750   3.058   3.095  15.831 -0.5127  0.4820 -0.2697
 4112TIP3    H133751   2.962   3.093  15.830 -0.4989 -0.2015 -0.0660
 4112TIP3    H233752   3.084   3.008  15.860  0.1910  0.3718 -1.2108
 4113TIP3   OH233753   6.671   4.711  13.018 -0.1174 -0.1513  0.4971
 4113TIP3    H133754   6.647   4.619  13.003 -0.0573 -0.2758  1.1635
 4113TIP3    H233755   6.764   4.708  13.038  0.3002  0.2527 -1.3069
 4114TIP3   OH233756   5.895   1.828   0.969 -0.2700 -0.0219 -0.4401
 4114TIP3    H133757   5.851   1.878   0.900 -0.0619  0.1740 -0.4318
 4114TIP3    H233758   5.974   1.793   0.926  0.8526  1.6673  0.2000
 4115TIP3   OH233759   4.053   4.937   6.608 -0.1395  0.0081 -0.1374
 4115TIP3    H133760   3.962   4.919   6.586  0.1503  0.0893 -1.4545
 4115TIP3    H233761   4.070   5.024   6.570  0.3678  0.1784  0.4583
 4116TIP3   OH233762   6.219   1.611   4.158 -0.0890  0.3909 -0.2320
 4116TIP3    H133763   6.233   1.551   4.231  0.4380  1.1596  0.3017
 4116TIP3    H233764   6.251   1.695   4.190 -1.4060  1.0974 -0.7439
 4117TIP3   OH233765   2.788   1.320   4.409  0.0132 -0.2810  0.5185
 4117TIP3    H133766   2.776   1.414   4.427  0.5222 -0.0633 -0.2326
 4117TIP3    H233767   2.703   1.292   4.375 -0.4802 -0.3499  1.7951
 4118TIP3   OH233768   3.841   2.049  16.084 -0.8490  0.0088 -0.1900
 4118TIP3    H133769   3.837   2.040  16.179 -1.1400 -0.9468 -0.2861
 4118TIP3    H233770   3.844   1.959  16.052 -1.0370  0.3237 -1.0960
 4119TIP3   OH233771   2.875   5.678  13.054 -0.3307  0.0579 -0.0054
 4119TIP3    H133772   2.825   5.647  12.979 -0.1907  1.5679 -0.7308
 4119TIP3    H233773   2.937   5.608  13.072  0.4590  0.2132 -2.0723
 4120TIP3   OH233774   0.061   2.451  12.651  0.5330  0.1205  0.5901
 4120TIP3    H133775   0.055   2.543  12.625  0.7480  0.0961  0.4590
 4120TIP3    H233776   0.154   2.436  12.663  0.6116 -0.4671 -0.7489
 4121TIP3   OH233777   5.986   2.444  16.279  0.0986 -0.3742  0.0698
 4121TIP3    H133778   6.055   2.412  16.222 -2.3049 -1.1048 -2.5657
 4121TIP3    H233779   5.935   2.366  16.301 -0.2208  0.2294  1.5218
 4122TIP3   OH233780   5.100   6.397   0.297  0.6166  0.5981  0.2849
 4122TIP3    H133781   5.069   6.359   0.215 -0.2327  3.9338 -1.0111
 4122TIP3    H233782   5.156   6.329   0.335 -1.1558 -2.0708 -1.6800
 4123TIP3   OH233783   1.741   5.365   4.001  0.0303 -0.7209  0.0273
 4123TIP3    H133784   1.652   5.335   3.984  1.0741 -2.6081 -2.5082
 4123TIP3    H233785   1.750   5.445   3.949  0.2416 -1.3506 -0.9351
 4124TIP3   OH233786   0.865   4.470   2.868 -0.3581  0.7679  0.0424
 4124TIP3    H133787   0.788   4.498   2.917 -2.3646 -1.6159 -1.5525
 4124TIP3    H233788   0.898   4.394   2.916  0.2852  1.0994  0.1157
 4125TIP3   OH233789   1.391   3.693  11.232  0.3197  0.2109  0.9572
 4125TIP3    H133790   1.453   3.694  11.160 -0.4847 -2.1066  0.1954
 4125TIP3    H233791   1.332   3.767  11.214 -0.2858 -0.7631 -1.1352
 4126TIP3   OH233792   3.363   1.409   6.352  0.0030 -0.2386 -0.0518
 4126TIP3    H133793   3.402   1.334   6.397  0.8714 -0.9226 -1.9360
 4126TIP3    H233794   3.423   1.482   6.371 -0.2773 -0.2361  0.8809
 4127TIP3   OH233795   3.831   4.098   1.268 -0.8043 -0.1559 -0.0524
 4127TIP3    H133796   3.895   4.124   1.202  0.9889 -1.1997  1.2430
 4127TIP3    H233797   3.774   4.035   1.224  0.5460 -1.0483 -0.5417
 4128TIP3   OH233798   2.754   1.257  14.366 -0.3214 -0.3790  0.7948
 4128TIP3    H133799   2.833   1.262  14.313  0.6330  0.2410  2.2644
 4128TIP3    H233800   2.773   1.192  14.433 -0.6875  0.4787  1.7472
 4129TIP3   OH233801   1.478   4.194  16.523 -0.7669 -0.3051 -0.2148
 4129TIP3    H133802   1.408   4.130  16.507  0.6423 -1.8486 -0.3400
 4129TIP3    H233803   1.446   4.246  16.597 -2.4653 -0.3532 -0.8843
 4130TIP3   OH233804   0.487   6.720   0.436  0.3054 -0.1341 -0.1943
 4130TIP3    H133805   0.479   6.738   0.529 -0.5264 -1.2936 -0.0420
 4130TIP3    H233806   0.512   6.804   0.398  1.6033  0.1260  1.1896
 4131TIP3   OH233807   5.755   6.258   4.026 -0.2370 -0.3096 -0.5437
 4131TIP3    H133808   5.841   6.271   4.066 -1.1426  0.9168  1.0592
 4131TIP3    H233809   5.723   6.346   4.009 -1.1126 -0.7718 -1.2976
 4132TIP3   OH233810   4.498   2.608  16.235 -0.3009  0.0557 -0.2199
 4132TIP3    H133811   4.420   2.555  16.217  1.0395 -1.4183 -1.8463
 4132TIP3    H233812   4.507   2.606  16.330 -1.4531 -0.9240 -0.1236
 4133TIP3   OH233813   2.716   1.213  11.830  0.4510  0.2189  0.5191
 4133TIP3    H133814   2.677   1.160  11.899  0.2846 -1.9409 -1.1578
 4133TIP3    H233815   2.810   1.196  11.838  0.3641 -0.7032 -0.2780
 4134TIP3   OH233816   2.059   2.093  11.737  0.4109  0.4933  0.2459
 4134TIP3    H133817   2.059   1.999  11.757  1.2214  0.4127 -0.0783
 4134TIP3    H233818   2.126   2.130  11.795  0.3213  0.8157  0.1438
 4135TIP3   OH233819   1.172   3.072   4.667  0.4849  0.2311 -0.0611
 4135TIP3    H133820   1.211   3.117   4.742 -1.7265  0.3298  1.0783
 4135TIP3    H233821   1.192   3.127   4.592  0.9110  1.2517  0.7933
 4136TIP3   OH233822   4.377   1.384  14.667 -0.7638  0.0051 -0.6766
 4136TIP3    H133823   4.454   1.395  14.721 -1.0911  0.3119 -0.2671
 4136TIP3    H233824   4.314   1.338  14.723 -0.4281 -1.3839 -1.4307
 4137TIP3   OH233825   4.719   4.835  13.008  0.3906 -0.1514  0.5021
 4137TIP3    H133826   4.703   4.901  12.941 -0.3457  0.8965  1.7022
 4137TIP3    H233827   4.806   4.856  13.042  0.2399  0.0689  0.7465
 4138TIP3   OH233828   4.342   6.460  12.185  0.5473 -0.0535  0.3067
 4138TIP3    H133829   4.347   6.554  12.201 -0.0013 -0.0859  0.6605
 4138TIP3    H233830   4.249   6.439  12.193  0.1354  0.0056 -3.2172
 4139TIP3   OH233831   1.952   0.829  12.448 -0.4122 -0.0211  0.5405
 4139TIP3    H133832   1.993   0.748  12.416 -1.8903 -0.8479  0.6894
 4139TIP3    H233833   2.007   0.856  12.522  0.6869 -0.3169 -0.1533
 4140TIP3   OH233834   2.390   1.809  16.953  0.4935  0.0916 -0.1294
 4140TIP3    H133835   2.322   1.811  16.886 -1.0329  0.9583  1.3712
 4140TIP3    H233836   2.369   1.884  17.010  1.1477 -1.1876  1.8499
 4141TIP3   OH233837   3.412   4.518   3.422 -0.4871 -0.0336 -0.2876
 4141TIP3    H133838   3.426   4.551   3.333 -4.7034  0.9917 -0.7027
 4141TIP3    H233839   3.413   4.597   3.477  0.7999 -0.5205  0.4074
 4142TIP3   OH233840   2.958   3.356   3.507  0.2922  0.0531  0.1543
 4142TIP3    H133841   2.890   3.304   3.464  0.6321 -0.9109  0.7760
 4142TIP3    H233842   2.918   3.383   3.590  0.2003  0.6101 -0.0644
 4143TIP3   OH233843   1.360   1.769  14.185  0.4794  0.3057 -0.0234
 4143TIP3    H133844   1.300   1.748  14.256  1.2237 -0.4024  0.4022
 4143TIP3    H233845   1.403   1.850  14.212 -1.7195  1.9369 -1.2486
 4144TIP3   OH233846   3.920   0.934   2.243  0.3854 -0.7266 -0.3075
 4144TIP3    H133847   3.853   0.866   2.240 -0.4114 -0.1070  2.0407
 4144TIP3    H233848   3.906   0.977   2.328  1.0750  2.1395 -1.5946
 4145TIP3   OH233849   4.062   4.450   3.776 -0.0240 -0.3822 -0.0288
 4145TIP3    H133850   4.047   4.359   3.802 -2.8418 -0.7423 -2.5855
 4145TIP3    H233851   4.140   4.446   3.719  0.0821 -1.1312  0.1648
 4146TIP3   OH233852   1.383   1.077  15.290  0.0229  0.6855  0.3371
 4146TIP3    H133853   1.371   0.988  15.326 -0.2952  0.2860 -0.7399
 4146TIP3    H233854   1.366   1.067  15.197  1.1147  1.6664  0.0253
 4147TIP3   OH233855   3.973   6.765   5.819 -0.1420  0.0595  0.0769
 4147TIP3    H133856   4.026   6.735   5.892 -1.6582 -2.3050  0.2537
 4147TIP3    H233857   4.034   6.767   5.745  0.6428 -0.7964  0.6833
 4148TIP3   OH233858   5.168   3.866  11.965 -0.9512 -0.3924 -0.2044
 4148TIP3    H133859   5.256   3.901  11.975 -1.3572  0.1813  1.4224
 4148TIP3    H233860   5.169   3.825  11.878  1.4622 -1.9956  0.5008
 4149TIP3   OH233861   1.319   1.557   1.178 -0.3587 -0.0261 -0.0887
 4149TIP3    H133862   1.394   1.498   1.180  0.5452  1.0580 -0.8801
 4149TIP3    H233863   1.243   1.501   1.192  0.6413 -1.0733  1.2443
 4150TIP3   OH233864   2.506   5.940  11.994  0.1241 -0.1792  0.8987
 4150TIP3    H133865   2.573   5.873  11.978 -0.4419 -0.4909 -0.2190
 4150TIP3    H233866   2.431   5.892  12.029  0.0279 -0.0045  0.9334
 4151TIP3   OH233867   6.180   1.124  14.029  0.1270 -0.1425  0.0703
 4151TIP3    H133868   6.156   1.167  14.111 -1.3603 -3.0253  1.2154
 4151TIP3    H233869   6.202   1.035  14.055 -0.9905 -1.2729 -2.7356
 4152TIP3   OH233870   2.840   6.772  16.511  0.1090 -0.1495  0.1043
 4152TIP3    H133871   2.851   6.859  16.472  2.8891  0.0185  1.1897
 4152TIP3    H233872   2.880   6.778  16.597 -0.4827 -2.2649  0.5666
 4153TIP3   OH233873   1.862   3.463   0.695  0.6280  0.0077 -0.5273
 4153TIP3    H133874   1.822   3.441   0.779  1.3903  0.4540 -0.0403
 4153TIP3    H233875   1.952   3.433   0.703  0.5488 -0.4872 -1.4112
 4154TIP3   OH233876   2.635   3.144  10.672 -0.1822 -0.7222  0.2923
 4154TIP3    H133877   2.590   3.228  10.679  0.0927 -0.6107  0.7196
 4154TIP3    H233878   2.695   3.155  10.598 -0.1762 -0.5566  0.3212
 4155TIP3   OH233879   6.450   3.179   1.304  1.1620  0.6570  0.0973
 4155TIP3    H133880   6.435   3.267   1.268  1.2700  0.1005 -1.3796
 4155TIP3    H233881   6.374   3.162   1.359  0.2533  0.9721 -1.0396
 4156TIP3   OH233882   0.651   3.587  12.634  0.3939 -0.3700  0.4474
 4156TIP3    H133883   0.742   3.565  12.613 -0.1633 -1.6667 -0.6713
 4156TIP3    H233884   0.630   3.660  12.576 -0.4573 -2.5506 -2.0946
 4157TIP3   OH233885   4.833   1.656  17.199  0.0184 -0.4249 -0.3817
 4157TIP3    H133886   4.837   1.562  17.181  1.9246 -0.5689  0.6165
 4157TIP3    H233887   4.866   1.697  17.119  0.7061 -0.6870 -0.2331
 4158TIP3   OH233888   6.288   1.346   0.496  0.2079 -0.0485 -0.7837
 4158TIP3    H133889   6.240   1.405   0.438 -0.1612  1.2318  0.7976
 4158TIP3    H233890   6.346   1.403   0.547  0.7534 -1.1768 -0.1017
 4159TIP3   OH233891   2.622   2.651   5.879 -0.8051 -0.6732 -0.1142
 4159TIP3    H133892   2.602   2.560   5.902 -0.8657 -0.0835  2.3348
 4159TIP3    H233893   2.674   2.683   5.953 -3.4525  2.2023  0.5889
 4160TIP3   OH233894   0.285   5.233   4.132 -0.1513 -0.3814 -0.1586
 4160TIP3    H133895   0.250   5.261   4.047  0.3013 -1.0337 -0.5618
 4160TIP3    H233896   0.259   5.303   4.192 -1.7651 -0.6446 -0.5324
 4161TIP3   OH233897   5.509   6.360  15.895  0.0757  0.0151 -0.1029
 4161TIP3    H133898   5.580   6.356  15.959 -0.3314 -1.4871  0.2549
 4161TIP3    H233899   5.430   6.369  15.947 -0.2092 -0.6194 -0.4310
 4162TIP3   OH233900   3.010   1.003   0.804 -0.0278 -0.2759  0.1778
 4162TIP3    H133901   2.977   0.915   0.823  0.0653 -0.5822 -1.0131
 4162TIP3    H233902   3.069   0.991   0.730  1.4040  0.5294  1.1646
 4163TIP3   OH233903   5.007   4.166   1.208  0.0690 -0.1559 -0.2851
 4163TIP3    H133904   4.919   4.132   1.190  0.1085 -1.8439  2.3762
 4163TIP3    H233905   5.062   4.087   1.214  1.2677  0.7269  0.5013
 4164TIP3   OH233906   3.027   1.106   1.096  0.3306 -0.1353  0.0787
 4164TIP3    H133907   3.080   1.061   1.030 -0.2938  0.4827 -0.8535
 4164TIP3    H233908   3.083   1.179   1.125  0.5708 -0.3533  0.1656
 4165TIP3   OH233909   3.070   3.935   2.838  0.6157 -0.1641 -0.4387
 4165TIP3    H133910   3.149   3.885   2.818  0.2338 -1.0079  0.1564
 4165TIP3    H233911   3.062   3.930   2.933  0.5846  1.0607 -0.3633
 4166TIP3   OH233912   0.630   2.259   4.388  0.4937 -0.2357  0.5683
 4166TIP3    H133913   0.594   2.172   4.404 -0.4581 -0.1415 -0.9329
 4166TIP3    H233914   0.694   2.246   4.317 -0.4255  0.4362 -0.4043
 4167TIP3   OH233915   2.935   0.483   5.335 -0.3338 -0.6605  0.3533
 4167TIP3    H133916   2.995   0.411   5.352 -0.9127 -0.7924  1.8655
 4167TIP3    H233917   2.886   0.455   5.257 -0.4013 -1.7984  0.7951
 4168TIP3   OH233918   2.707   1.864   4.437 -0.0334 -0.1077 -0.2126
 4168TIP3    H133919   2.612   1.873   4.427 -0.1503 -0.7479  0.2622
 4168TIP3    H233920   2.717   1.820   4.522  0.7216  0.8409  0.2029
 4169TIP3   OH233921   4.360   1.545  12.007 -0.4384  0.2508  0.2007
 4169TIP3    H133922   4.437   1.575  11.960  0.7698 -1.0090  1.3237
 4169TIP3    H233923   4.340   1.615  12.069 -0.8414  1.0346 -0.7951
 4170TIP3   OH233924   5.657   0.445   5.014  0.1728 -0.5829 -0.6695
 4170TIP3    H133925   5.677   0.469   4.923 -2.1729 -0.2614 -1.1371
 4170TIP3    H233926   5.727   0.486   5.065  0.1529  1.3270 -2.1083
 4171TIP3   OH233927   2.562   1.727   4.088 -0.0051  0.2857  0.0588
 4171TIP3    H133928   2.636   1.676   4.122 -0.8726 -1.1617 -0.1863
 4171TIP3    H233929   2.493   1.715   4.153  0.2121  2.2810  0.6868
 4172TIP3   OH233930   5.343   2.959   1.251 -0.9207 -0.3250 -0.0504
 4172TIP3    H133931   5.348   3.002   1.165 -2.0671  0.0683  0.0741
 4172TIP3    H233932   5.427   2.981   1.292 -1.1532  1.1292 -0.3096
 4173TIP3   OH233933   1.350   3.256   1.124 -0.1376 -0.1800 -0.5398
 4173TIP3    H133934   1.426   3.264   1.182  0.3945  1.2997 -1.3924
 4173TIP3    H233935   1.275   3.278   1.179  0.4709  2.3600 -0.6437
 4174TIP3   OH233936   1.764   5.974  13.882 -0.3106 -0.1752 -0.1221
 4174TIP3    H133937   1.668   5.969  13.886 -0.3252  0.8513  1.0502
 4174TIP3    H233938   1.787   5.927  13.802 -1.7286 -1.2722  0.0939
 4175TIP3   OH233939   2.884   3.658   3.246 -0.6435  0.3623 -0.2943
 4175TIP3    H133940   2.975   3.654   3.274 -0.5079  0.1404 -0.7658
 4175TIP3    H233941   2.835   3.617   3.317 -0.2694 -0.5270 -0.5423
 4176TIP3   OH233942   2.968   4.844  12.236  0.2324 -0.3886 -0.4666
 4176TIP3    H133943   2.993   4.837  12.144  0.7428  0.0416 -0.3603
 4176TIP3    H233944   2.937   4.757  12.259  0.4829 -0.6009 -0.9351
 4177TIP3   OH233945   0.364   5.170  14.810  0.3249  0.7922  0.4465
 4177TIP3    H133946   0.407   5.170  14.724 -0.6884 -0.6750 -0.0955
 4177TIP3    H233947   0.376   5.080  14.842 -0.5825  0.9260  1.1666
 4178TIP3   OH233948   2.697   5.224  16.230 -0.2149 -0.6290 -0.3143
 4178TIP3    H133949   2.659   5.233  16.318 -0.5566 -0.9568 -0.4230
 4178TIP3    H233950   2.791   5.237  16.243 -0.5348  1.8796 -0.3048
 4179TIP3   OH233951   3.444   3.705   1.056  0.1831  0.1810 -0.2278
 4179TIP3    H133952   3.453   3.697   0.961  0.6110  1.3323 -0.2939
 4179TIP3    H233953   3.352   3.684   1.074  0.5801 -2.0427 -0.6606
 4180TIP3   OH233954   1.745   2.731   4.506  0.1468 -0.7062 -0.6117
 4180TIP3    H133955   1.661   2.732   4.551  0.7919  0.8700  0.6256
 4180TIP3    H233956   1.806   2.693   4.569  0.7442  0.0046 -0.7535
 4181TIP3   OH233957   1.067   4.893   0.423  0.2204 -0.5734  0.2385
 4181TIP3    H133958   1.084   4.976   0.468 -0.0817 -1.2358  1.6130
 4181TIP3    H233959   0.997   4.853   0.474 -0.6082 -1.0436 -1.2486
 4182TIP3   OH233960   5.679   2.908  13.462 -0.3796  0.5333 -0.4173
 4182TIP3    H133961   5.767   2.943  13.479 -1.5342  3.2191  0.3618
 4182TIP3    H233962   5.671   2.911  13.366  0.1908  0.7336 -0.4652
 4183TIP3   OH233963   2.943   2.810   3.569 -0.1932  0.5191  0.0111
 4183TIP3    H133964   2.967   2.884   3.513  3.6365 -0.3224  0.4223
 4183TIP3    H233965   2.927   2.848   3.655 -0.7656  1.1797 -0.3906
 4184TIP3   OH233966   5.327   2.354  11.640  1.0008 -0.1596  0.7769
 4184TIP3    H133967   5.274   2.274  11.643 -0.4789  0.7760  0.3825
 4184TIP3    H233968   5.271   2.420  11.681  1.5492  1.0272 -0.3821
 4185TIP3   OH233969   4.837   1.559   3.342 -0.0468 -0.7007  0.7356
 4185TIP3    H133970   4.771   1.552   3.411  0.3675  0.7483  1.2936
 4185TIP3    H233971   4.891   1.634   3.368  0.8293 -0.8748 -0.5517
 4186TIP3   OH233972   5.521   4.449   0.689  0.1964  0.1541 -0.6257
 4186TIP3    H133973   5.512   4.415   0.778 -0.9043 -0.7297 -1.0570
 4186TIP3    H233974   5.615   4.454   0.674  0.3968 -2.2728 -0.3505
 4187TIP3   OH233975   3.195   5.090  11.235  0.2061 -0.1651  0.1804
 4187TIP3    H133976   3.218   5.183  11.236  0.2877 -0.1927  1.2717
 4187TIP3    H233977   3.216   5.062  11.146 -0.6299  1.0601 -0.4242
 4188TIP3   OH233978   4.058   3.857   0.259  0.1997 -0.2885  0.4345
 4188TIP3    H133979   4.099   3.942   0.245 -0.2831 -0.1762 -0.2873
 4188TIP3    H233980   3.995   3.871   0.330  0.1652 -0.0635  0.3565
 4189TIP3   OH233981   6.399   6.159  13.852  0.0915 -0.8627 -0.4575
 4189TIP3    H133982   6.360   6.162  13.765 -2.2859 -1.7710  0.5132
 4189TIP3    H233983   6.418   6.251  13.873 -1.6952 -0.3460 -0.9534
 4190TIP3   OH233984   4.796   6.336  14.253 -0.1678  0.0825 -0.2996
 4190TIP3    H133985   4.857   6.274  14.292 -0.4209 -0.6415 -1.0458
 4190TIP3    H233986   4.849   6.386  14.190 -0.1575  0.0328 -0.3298
 4191TIP3   OH233987   0.314   0.202   4.856 -0.4324  0.0411 -0.2019
 4191TIP3    H133988   0.219   0.204   4.865 -0.3819 -0.5245  0.4812
 4191TIP3    H233989   0.337   0.289   4.823 -1.2615 -0.1130 -1.2127
 4192TIP3   OH233990   3.519   3.573  16.005 -0.3794 -0.6339  0.2255
 4192TIP3    H133991   3.490   3.634  16.073 -1.7026 -1.3549  0.3322
 4192TIP3    H233992   3.492   3.615  15.923  3.1231  1.2817 -0.0654
 4193TIP3   OH233993   4.507   0.364  11.832  0.5634  0.0934  0.6313
 4193TIP3    H133994   4.582   0.371  11.772  0.8494  0.3700  1.0178
 4193TIP3    H233995   4.433   0.398  11.781  0.6490 -0.4080  0.1666
 4194TIP3   OH233996   6.332   5.955   3.338  0.3452 -0.1703 -0.3931
 4194TIP3    H133997   6.303   5.865   3.322  1.7683 -0.7549  0.1880
 4194TIP3    H233998   6.304   5.974   3.428 -0.2022  0.0700 -0.6136
 4195TIP3   OH233999   2.676   3.085   3.142  0.1772 -0.1356 -0.1351
 4195TIP3    H134000   2.667   2.989   3.142  2.0305 -0.3133 -0.9679
 4195TIP3    H234001   2.630   3.112   3.221 -0.1943 -1.7345  0.2288
 4196TIP3   OH234002   4.981   2.934  10.820 -0.4444  0.1614  0.1154
 4196TIP3    H134003   5.033   2.854  10.832 -0.4403 -0.1888 -2.1484
 4196TIP3    H234004   4.905   2.906  10.770 -1.1575  1.3359  0.5096
 4197TIP3   OH234005   3.818   3.868   5.757  0.1372  0.0102  0.2258
 4197TIP3    H134006   3.826   3.812   5.835 -1.3895 -1.7488 -0.8350
 4197TIP3    H234007   3.839   3.810   5.684 -0.8581  0.9817 -0.8441
 4198TIP3   OH234008   6.032   2.996  12.072 -0.1969  0.8113 -0.0900
 4198TIP3    H134009   6.120   3.001  12.108 -0.0631 -2.5010  0.2419
 4198TIP3    H234010   5.974   3.000  12.148 -0.0623 -2.3735  0.2492
 4199TIP3   OH234011   4.565   1.834   5.543  0.1069 -0.0637 -0.2280
 4199TIP3    H134012   4.566   1.781   5.463  0.0257  1.1979 -1.0755
 4199TIP3    H234013   4.489   1.802   5.591 -0.1950 -0.4284 -0.9307
 4200TIP3   OH234014   3.822   0.743  11.861  0.2521  0.4761 -0.9772
 4200TIP3    H134015   3.758   0.720  11.929 -1.0117 -0.3634 -2.4377
 4200TIP3    H234016   3.890   0.792  11.909 -0.0131 -1.1042  1.0959
 4201TIP3   OH234017   1.503   2.996  15.883 -0.6130 -0.3217 -0.0149
 4201TIP3    H134018   1.508   3.014  15.789 -1.2238  0.4841  0.1015
 4201TIP3    H234019   1.444   3.063  15.917  0.5869  0.1580  1.1435
 4202TIP3   OH234020   1.729   5.601   1.156 -0.2470  0.3499 -0.4172
 4202TIP3    H134021   1.660   5.666   1.139 -1.4823 -1.1873 -1.4906
 4202TIP3    H234022   1.681   5.521   1.174  1.2330 -0.0176  2.1092
 4203TIP3   OH234023   5.794   3.911  16.247 -0.5686 -0.0236  0.0504
 4203TIP3    H134024   5.747   3.953  16.175 -1.1545 -1.1845 -0.2495
 4203TIP3    H234025   5.834   3.833  16.208  0.6670  0.3447  0.5628
 4204TIP3   OH234026   0.382   4.556  11.746 -0.1626 -0.1856 -0.3020
 4204TIP3    H134027   0.457   4.605  11.710 -0.4327 -1.7203 -3.1358
 4204TIP3    H234028   0.380   4.476  11.694 -1.7924 -1.6732  1.9872
 4205TIP3   OH234029   2.336   6.505   0.705 -0.5407  0.4278 -0.5303
 4205TIP3    H134030   2.307   6.561   0.777  0.6246  1.0990 -0.5677
 4205TIP3    H234031   2.354   6.565   0.633  0.1869 -0.0387 -0.7465
 4206TIP3   OH234032   2.813   4.892   4.649  0.2828  0.3187  0.6920
 4206TIP3    H134033   2.735   4.934   4.685 -1.7857 -0.7391 -2.3123
 4206TIP3    H234034   2.875   4.964   4.634 -1.4256  1.6726 -0.0067
 4207TIP3   OH234035   1.632   6.274  15.752 -0.1091 -0.3383  0.1746
 4207TIP3    H134036   1.616   6.352  15.805 -2.1877 -0.0160 -0.8702
 4207TIP3    H234037   1.704   6.299  15.693 -0.3771  0.5963  0.2336
 4208TIP3   OH234038   0.765   2.925  14.748 -0.5842 -0.2421  0.1743
 4208TIP3    H134039   0.829   2.856  14.729  0.2652  0.6420 -0.2565
 4208TIP3    H234040   0.788   2.955  14.836  1.5681  2.1290 -1.1143
 4209TIP3   OH234041   4.646   6.334   0.455 -0.2039 -0.0199 -1.1000
 4209TIP3    H134042   4.562   6.367   0.488  0.0546  1.0517 -1.4921
 4209TIP3    H234043   4.635   6.332   0.360 -0.5527 -2.0240 -1.0404
 4210TIP3   OH234044   0.225   5.021   5.203  0.6163 -0.2708  0.3127
 4210TIP3    H134045   0.251   4.998   5.113  0.2619  1.5199 -0.2682
 4210TIP3    H234046   0.282   4.968   5.258  1.9756 -0.2057 -0.9783
 4211TIP3   OH234047   1.330   5.649   0.905  0.1597 -0.1443  0.0066
 4211TIP3    H134048   1.246   5.687   0.929  0.0330 -1.0664  1.0664
 4211TIP3    H234049   1.394   5.715   0.930 -0.0457 -0.6588  2.0060
 4212TIP3   OH234050   5.859   3.579  13.399 -0.1455 -0.2394  0.0645
 4212TIP3    H134051   5.910   3.632  13.461  0.5046  0.3133 -0.9416
 4212TIP3    H234052   5.893   3.603  13.313  1.1984 -3.4485 -0.3283
 4213TIP3   OH234053   5.336   3.995  14.273  0.2796  0.2336  0.3934
 4213TIP3    H134054   5.284   4.076  14.274  0.3885  0.3111 -0.0327
 4213TIP3    H234055   5.289   3.937  14.213 -0.3722 -0.4079  1.5024
 4214TIP3   OH234056   2.394   1.477  15.987  0.0818  0.0510  0.0079
 4214TIP3    H134057   2.326   1.481  16.055 -0.0004  0.1394 -0.0809
 4214TIP3    H234058   2.379   1.393  15.944 -0.8854  0.6836 -0.9547
 4215TIP3   OH234059   4.877   1.139  12.455 -0.3536 -0.3465  0.0168
 4215TIP3    H134060   4.864   1.046  12.474  2.7230 -0.5946  1.2244
 4215TIP3    H234061   4.869   1.183  12.540 -1.1479  0.4166 -0.4437
 4216TIP3   OH234062   4.794   5.705  14.889  0.4256 -0.2551  0.0920
 4216TIP3    H134063   4.718   5.763  14.887  1.8318  1.7690  2.3848
 4216TIP3    H234064   4.769   5.630  14.835 -2.4547  1.2448 -0.7447
 4217TIP3   OH234065   0.989   4.504  15.094  0.1731 -0.2215  0.1295
 4217TIP3    H134066   0.912   4.491  15.149  1.8805 -2.0850  2.1702
 4217TIP3    H234067   0.966   4.464  15.011 -1.8550  1.2095 -0.0414
 4218TIP3   OH234068   6.500   2.234  17.231 -0.0607 -0.1188  0.3191
 4218TIP3    H134069   6.461   2.201  17.312 -1.1670 -0.2526 -0.2566
 4218TIP3    H234070   6.497   2.159  17.171  0.1961  0.1526 -0.0355
 4219TIP3   OH234071   4.877   1.518   0.283  0.3716 -0.0718  0.7084
 4219TIP3    H134072   4.913   1.442   0.329 -3.9554 -0.8144  3.2092
 4219TIP3    H234073   4.833   1.481   0.207 -0.6338  0.0276  1.2293
 4220TIP3   OH234074   6.706   3.764  11.630 -0.0748  0.3988 -0.6901
 4220TIP3    H134075   6.653   3.752  11.551 -0.6980 -3.0038  0.1384
 4220TIP3    H234076   6.788   3.719  11.610  0.2762  0.6798  0.1036
 4221TIP3   OH234077   6.350   2.931  11.805  0.0762 -0.6569  0.0127
 4221TIP3    H134078   6.299   2.851  11.820 -0.8495 -0.7415 -3.2572
 4221TIP3    H234079   6.285   3.001  11.807  0.3696 -0.3663 -0.5629
 4222TIP3   OH234080   3.048   5.010  15.752  0.3953 -0.0208 -0.2502
 4222TIP3    H134081   3.131   4.990  15.796  0.2916 -0.0192 -0.0542
 4222TIP3    H234082   3.006   5.075  15.808  1.0158  1.2415 -1.1989
 4223TIP3   OH234083   0.404   0.164   5.844  0.0482  0.9679 -0.0092
 4223TIP3    H134084   0.319   0.209   5.839 -0.4975 -0.0929 -0.3288
 4223TIP3    H234085   0.429   0.148   5.753  0.2477  0.6280  0.1062
 4224TIP3   OH234086   1.660   1.730  13.925 -0.0466 -1.0665 -0.1156
 4224TIP3    H134087   1.672   1.744  13.831  0.4753 -2.9021 -0.3494
 4224TIP3    H234088   1.568   1.748  13.941 -0.7353 -3.2213 -1.4818
 4225TIP3   OH234089   2.615   6.176  11.110  0.0714 -0.6113  0.3050
 4225TIP3    H134090   2.709   6.177  11.125 -0.2873 -0.2356  2.8642
 4225TIP3    H234091   2.593   6.265  11.083  0.1964 -0.1433  1.6901
 4226TIP3   OH234092   0.398   3.008  14.375  0.2459 -1.4921 -0.4059
 4226TIP3    H134093   0.445   2.930  14.345 -0.3790 -1.5529 -1.2413
 4226TIP3    H234094   0.328   3.020  14.311 -0.6476 -1.1802  0.6192
 4227TIP3   OH234095   3.209   3.747   5.814 -0.0768  0.2987  0.0367
 4227TIP3    H134096   3.174   3.712   5.896  0.6662 -0.6331 -0.0393
 4227TIP3    H234097   3.292   3.789   5.840  1.0580 -1.5626 -0.5039
 4228TIP3   OH234098   4.324   2.635   2.205 -0.2438 -0.2898  0.3460
 4228TIP3    H134099   4.373   2.698   2.152  0.3234 -1.1338 -0.1407
 4228TIP3    H234100   4.289   2.687   2.277  0.6929  0.4755  0.2579
 4229TIP3   OH234101   0.522   3.935  10.871  0.1316  0.6086 -0.4470
 4229TIP3    H134102   0.445   3.917  10.925  0.6190  1.5239  0.5666
 4229TIP3    H234103   0.490   3.991  10.801 -0.4499 -0.3674 -0.9793
 4230TIP3   OH234104   4.787   4.245   4.894 -0.2826  0.2456 -0.4265
 4230TIP3    H134105   4.808   4.152   4.888 -1.0339  0.0329  0.1681
 4230TIP3    H234106   4.747   4.267   4.810 -1.5515 -0.3452  0.0114
 4231TIP3   OH234107   5.692   3.745   3.625 -0.4161  0.8141  0.5094
 4231TIP3    H134108   5.750   3.798   3.680 -0.2033 -1.2773  2.4003
 4231TIP3    H234109   5.747   3.720   3.550 -0.2166  2.3755  0.1099
 4232TIP3   OH234110   3.497   4.948  13.052  0.6777  0.1959  0.0161
 4232TIP3    H134111   3.456   4.948  13.138  0.6727 -2.9624  0.0677
 4232TIP3    H234112   3.426   4.973  12.992  0.1826  0.4853  0.7139
 4233TIP3   OH234113   3.244   1.414  12.570 -0.8689  0.3672  0.2409
 4233TIP3    H134114   3.231   1.501  12.606  0.7569  0.9145 -0.4597
 4233TIP3    H234115   3.316   1.424  12.507 -1.4914 -1.2136 -0.7587
 4234TIP3   OH234116   1.943   1.922   3.314  0.1383 -0.0152 -0.0479
 4234TIP3    H134117   1.960   1.928   3.408 -1.8167 -0.8934  0.3714
 4234TIP3    H234118   2.026   1.891   3.276  1.0201  0.6310  1.3363
 4235TIP3   OH234119   6.667   2.720  11.561 -0.0506  0.2809  0.1797
 4235TIP3    H134120   6.641   2.646  11.615  1.8668 -0.6867 -0.1827
 4235TIP3    H234121   6.609   2.717  11.485  0.7527 -1.5341 -0.3730
 4236TIP3   OH234122   0.052   4.199   0.582  0.3507  0.1998 -0.1520
 4236TIP3    H134123   0.017   4.118   0.545 -0.5114 -0.0445  1.1606
 4236TIP3    H234124   0.108   4.235   0.514 -0.9117 -0.4337 -1.5400
 4237TIP3   OH234125   2.910   2.715  15.336 -0.1817  0.5800 -0.3361
 4237TIP3    H134126   2.898   2.761  15.419  0.2200 -0.6629  0.4309
 4237TIP3    H234127   2.895   2.781  15.269  2.2268  2.2856  0.7606
 4238TIP3   OH234128   1.043   2.935   3.479 -0.1671 -0.3837 -0.0003
 4238TIP3    H134129   0.991   3.005   3.519 -1.7682 -0.4409 -1.8744
 4238TIP3    H234130   0.993   2.855   3.495 -0.0198 -0.6261 -0.7231
 4239TIP3   OH234131   2.811   4.347  15.768 -0.2458 -0.2222 -0.2060
 4239TIP3    H134132   2.771   4.387  15.690  0.3777 -1.3668 -1.1183
 4239TIP3    H234133   2.847   4.421  15.817 -0.8133  0.5233 -0.8968
 4240TIP3   OH234134   0.618   1.638   1.996 -0.1903  0.3192 -0.0906
 4240TIP3    H134135   0.579   1.719   2.031  0.7972 -0.2069  2.2970
 4240TIP3    H234136   0.611   1.648   1.901 -1.7770  2.3747  0.1944
 4241TIP3   OH234137   4.097   4.090  12.874  0.5238  0.8801  0.7652
 4241TIP3    H134138   4.068   4.017  12.819 -0.8145  2.2082 -0.3238
 4241TIP3    H234139   4.048   4.079  12.956  0.4120  0.4875  0.6491
 4242TIP3   OH234140   2.004   4.933   6.519 -0.0886  0.2296 -0.2835
 4242TIP3    H134141   2.007   4.841   6.492 -1.1362  0.3116 -0.6826
 4242TIP3    H234142   2.088   4.947   6.563  0.3814 -0.7168 -0.8601
 4243TIP3   OH234143   5.883   4.120   1.852 -0.0058 -0.7283  0.4356
 4243TIP3    H134144   5.835   4.180   1.909 -1.6827 -0.8174 -0.8590
 4243TIP3    H234145   5.819   4.092   1.786  0.9504 -3.3879  0.5868
 4244TIP3   OH234146   1.577   0.115  16.897 -0.0805  0.2513 -0.3592
 4244TIP3    H134147   1.509   0.063  16.939 -0.9939  1.0114 -0.8652
 4244TIP3    H234148   1.622   0.158  16.970 -0.6483  0.3509 -0.0632
 4245TIP3   OH234149   1.687   6.780   1.182  0.0293 -0.2216  0.3978
 4245TIP3    H134150   1.644   6.742   1.258 -0.5292 -0.6902 -0.1434
 4245TIP3    H234151   1.615   6.805   1.123  0.4951 -1.1804 -0.5991
 4246TIP3   OH234152   5.642   0.633   2.353  0.0214 -0.0416  0.0420
 4246TIP3    H134153   5.567   0.630   2.413  0.3776  1.5623  0.5976
 4246TIP3    H234154   5.639   0.721   2.316  1.8978  0.1813  0.4091
 4247TIP3   OH234155   4.221   6.703   5.106 -0.0545 -0.4102 -0.3361
 4247TIP3    H134156   4.286   6.677   5.171  0.1799  3.6500  1.2325
 4247TIP3    H234157   4.155   6.634   5.108  0.7010 -1.1316  3.1400
 4248TIP3   OH234158   2.373   0.330  16.711  0.3814  0.1058  0.2829
 4248TIP3    H134159   2.436   0.396  16.740  0.2389  0.6286 -0.5627
 4248TIP3    H234160   2.395   0.315  16.619  0.4324 -1.0518  0.4780
 4249TIP3   OH234161   1.908   6.632   0.165  0.3896  0.3569  0.1498
 4249TIP3    H134162   1.925   6.588   0.249 -0.6647 -0.2577  0.0415
 4249TIP3    H234163   1.815   6.619   0.149  0.9269 -1.1500 -2.0370
 4250TIP3   OH234164   6.688   3.875   0.583  0.1011  0.0580 -0.2979
 4250TIP3    H134165   6.729   3.917   0.507  0.5350  1.1790  0.5298
 4250TIP3    H234166   6.649   3.795   0.549  1.9749 -0.4479 -1.3359
 4251TIP3   OH234167   5.537   2.381   1.849  0.9879  0.2061  0.3148
 4251TIP3    H134168   5.535   2.287   1.829  0.2213 -0.1252  1.9128
 4251TIP3    H234169   5.570   2.386   1.939 -0.9981  1.3259  1.0204
 4252TIP3   OH234170   0.814   2.531   2.806  0.0167 -0.5877 -0.3157
 4252TIP3    H134171   0.847   2.542   2.717 -0.3808 -1.2272 -0.5406
 4252TIP3    H234172   0.785   2.441   2.811  0.3695 -0.6668  0.5806
 4253TIP3   OH234173   2.211   5.602   1.490 -0.0117 -0.3393 -0.4479
 4253TIP3    H134174   2.129   5.621   1.444  0.6459 -1.8813 -2.3387
 4253TIP3    H234175   2.184   5.566   1.574 -1.2486  0.7276 -0.3728
 4254TIP3   OH234176   4.376   1.990  13.627 -0.0634 -0.0646 -0.3404
 4254TIP3    H134177   4.470   1.987  13.612 -0.3119  0.1079 -2.0931
 4254TIP3    H234178   4.356   2.083  13.637  0.0435 -0.1500  0.6576
 4255TIP3   OH234179   3.147   2.209  13.993 -0.0144 -0.5174 -0.5605
 4255TIP3    H134180   3.055   2.190  14.010  0.0455 -1.0326 -0.8042
 4255TIP3    H234181   3.151   2.304  13.987 -0.2144 -0.3848  1.2382
 4256TIP3   OH234182   1.159   3.892  12.346 -0.9395  0.0933  0.0879
 4256TIP3    H134183   1.093   3.962  12.348  0.0213  1.1161 -1.9156
 4256TIP3    H234184   1.149   3.853  12.259  1.9714  1.1732 -0.7868
 4257TIP3   OH234185   5.698   3.921   4.927  0.2896 -0.8326 -0.3355
 4257TIP3    H134186   5.775   3.979   4.926 -0.1860 -0.1887  0.1131
 4257TIP3    H234187   5.634   3.967   4.982  0.0960 -2.0312  0.4720
 4258TIP3   OH234188   5.892   5.605  13.560 -0.1378  0.7089 -0.1203
 4258TIP3    H134189   5.929   5.688  13.531 -1.2876  1.9516  1.8316
 4258TIP3    H234190   5.933   5.589  13.645 -0.2470 -0.4928 -0.2909
 4259TIP3   OH234191   6.424   3.804   1.423 -0.2374  0.2320  0.5536
 4259TIP3    H134192   6.397   3.896   1.413  0.3578  0.4401  0.8556
 4259TIP3    H234193   6.407   3.765   1.337  0.0762  0.7765  0.2393
 4260TIP3   OH234194   3.412   0.419   3.969  0.3353 -0.3827  0.3439
 4260TIP3    H134195   3.388   0.338   3.922 -1.0241 -0.3256  0.9207
 4260TIP3    H234196   3.466   0.467   3.906 -1.3999 -0.3332 -1.1555
 4261TIP3   OH234197   3.366   5.800   1.238  0.1154 -0.2221 -0.5989
 4261TIP3    H134198   3.360   5.714   1.196 -1.7368 -0.4462  0.0966
 4261TIP3    H234199   3.411   5.783   1.321  0.8087 -0.3057 -0.9804
 4262TIP3   OH234200   4.934   1.918  13.235 -0.4163 -0.0463 -0.7227
 4262TIP3    H134201   4.939   1.868  13.154  2.7626  0.1538 -0.6893
 4262TIP3    H234202   4.978   2.001  13.215 -1.1375  0.7100  0.7150
 4263TIP3   OH234203   6.357   0.557   2.581 -0.2981 -0.5403 -0.0913
 4263TIP3    H134204   6.411   0.588   2.508  1.5514 -1.7749  0.7124
 4263TIP3    H234205   6.278   0.523   2.540 -0.0698  0.4410 -1.3787
 4264TIP3   OH234206   6.045   3.383  14.976  0.2370  0.1383  0.2716
 4264TIP3    H134207   5.958   3.379  15.016 -0.2511 -0.6262 -0.8294
 4264TIP3    H234208   6.098   3.433  15.037 -0.0389 -2.4697  2.7338
 4265TIP3   OH234209   4.127   6.224  15.334  0.2235 -0.0274  0.0957
 4265TIP3    H134210   4.170   6.217  15.248 -0.2837 -0.5457 -0.1163
 4265TIP3    H234211   4.037   6.250  15.315 -0.7632 -3.0986  0.2522
 4266TIP3   OH234212   1.004   1.542  14.112  0.4486  0.7577  0.1646
 4266TIP3    H134213   1.060   1.470  14.140 -0.5080  0.4801  1.4309
 4266TIP3    H234214   0.919   1.522  14.151 -0.2144  1.7918 -0.7338
 4267TIP3   OH234215   1.395   5.803  14.364 -0.0145 -0.7088  0.0341
 4267TIP3    H134216   1.352   5.735  14.416 -0.7366  0.1304  0.5502
 4267TIP3    H234217   1.421   5.758  14.284 -1.0624 -1.4519  0.0904
 4268TIP3   OH234218   5.486   1.020  13.744 -0.7830 -0.0972 -0.1204
 4268TIP3    H134219   5.578   1.046  13.753 -0.1512 -1.3123 -2.4695
 4268TIP3    H234220   5.470   0.962  13.819  0.6689 -0.6434 -0.2142
 4269TIP3   OH234221   3.205   5.539  17.039 -0.1101  0.9964  0.1244
 4269TIP3    H134222   3.195   5.488  17.119 -2.1824  0.2998 -0.5348
 4269TIP3    H234223   3.121   5.529  16.995  0.5857  2.3886 -1.5399
 4270TIP3   OH234224   6.057   6.053  16.214  0.2887  0.1873  0.6747
 4270TIP3    H134225   5.979   6.015  16.173 -0.6428  0.5824  2.0377
 4270TIP3    H234226   6.072   5.999  16.292  1.0880  0.4247  0.6847
 4271TIP3   OH234227   2.989   4.456   2.254 -0.4176 -0.3436 -0.3053
 4271TIP3    H134228   3.053   4.511   2.208 -0.5460 -0.2585 -0.3811
 4271TIP3    H234229   3.024   4.367   2.246  0.5792 -0.1015  1.1092
 4272TIP3   OH234230   4.329   1.568  15.900 -0.9954  0.2953  0.1799
 4272TIP3    H134231   4.332   1.516  15.820 -3.2301 -0.0832  0.2874
 4272TIP3    H234232   4.363   1.510  15.968  0.5244  0.4759 -0.4262
 4273TIP3   OH234233   1.974   2.452  13.906  0.1286  0.4354 -0.6477
 4273TIP3    H134234   1.914   2.458  13.832  0.7164 -0.6155 -1.2204
 4273TIP3    H234235   2.022   2.535  13.905 -2.1411  1.8361  0.5611
 4274TIP3   OH234236   4.883   2.145   0.013 -0.5003  0.2765 -0.4310
 4274TIP3    H134237   4.849   2.228  -0.022  0.0035  0.4451 -0.5268
 4274TIP3    H234238   4.895   2.090  -0.065  1.2417  0.8796 -0.5945
 4275TIP3   OH234239   1.352   1.236  11.006  0.5399 -0.1412  0.0500
 4275TIP3    H134240   1.311   1.150  11.005  1.5921 -0.6577  0.5240
 4275TIP3    H234241   1.335   1.269  11.095 -0.8505  0.6415 -0.4832
 4276TIP3   OH234242   2.761   2.048  13.232 -0.1108 -0.8669  0.1390
 4276TIP3    H134243   2.705   1.987  13.282 -0.3106  0.0542  1.0551
 4276TIP3    H234244   2.836   2.063  13.289  0.0515 -0.4456 -0.1895
 4277TIP3   OH234245   3.658   1.111   0.028 -0.2428 -1.1800 -0.3707
 4277TIP3    H134246   3.644   1.062   0.110 -0.8831  0.0750  0.2831
 4277TIP3    H234247   3.592   1.076  -0.032 -2.3219  0.5049  0.8418
 4278TIP3   OH234248   1.920   1.031  13.536  0.0153  0.1270 -0.2471
 4278TIP3    H134249   1.924   1.121  13.569 -2.1064 -0.3481  1.4582
 4278TIP3    H234250   1.837   1.028  13.488 -0.1969 -1.0690  0.1920
 4279TIP3   OH234251   5.323   2.399   2.423  0.2548 -0.4009 -0.5850
 4279TIP3    H134252   5.236   2.415   2.386  0.9399  0.5273 -1.8339
 4279TIP3    H234253   5.360   2.486   2.436 -0.2311 -0.6608  3.0254
 4280TIP3   OH234254   0.354   5.163  13.504  0.2242  0.3498 -0.1221
 4280TIP3    H134255   0.270   5.204  13.524 -0.4591 -0.9164 -0.3662
 4280TIP3    H234256   0.385   5.128  13.588  1.2606  2.1567  0.2749
 4281TIP3   OH234257   2.605   6.735   0.547  0.1361 -0.4145  0.6303
 4281TIP3    H134258   2.518   6.719   0.510  0.2672 -1.1415  0.6355
 4281TIP3    H234259   2.589   6.789   0.624 -0.2676 -0.1177  0.3413
 4282TIP3   OH234260   0.944   3.553   4.242 -0.3268 -0.1050 -0.5378
 4282TIP3    H134261   0.883   3.492   4.283  2.6524 -0.8980  3.0267
 4282TIP3    H234262   0.891   3.631   4.225 -2.7920 -1.4703  0.5209
 4283TIP3   OH234263   1.765   3.878   4.026  0.1205  0.0332  0.6897
 4283TIP3    H134264   1.681   3.839   4.001  0.0926  1.4338 -1.4852
 4283TIP3    H234265   1.816   3.879   3.945  2.0978 -0.4044  1.9064
 4284TIP3   OH234266   2.080   0.490   2.591 -0.4961 -0.3913 -0.3402
 4284TIP3    H134267   2.018   0.474   2.520 -0.8152  2.5485 -0.7939
 4284TIP3    H234268   2.112   0.579   2.575  0.9910 -0.4557  2.0489
 4285TIP3   OH234269   6.085   0.245   1.106  0.3446  0.3339 -0.2741
 4285TIP3    H134270   6.112   0.314   1.046 -0.2842  2.3561  1.6747
 4285TIP3    H234271   6.057   0.292   1.185  1.8467 -2.2408  1.8812
 4286TIP3   OH234272   1.398   4.510   1.405  0.3012  0.4166 -0.0137
 4286TIP3    H134273   1.438   4.582   1.358 -0.5379 -0.9795 -2.9628
 4286TIP3    H234274   1.468   4.446   1.416  0.1886  0.2009 -0.5269
 4287TIP3   OH234275   2.966   3.893   4.903 -0.3126  0.4860  0.2204
 4287TIP3    H134276   3.026   3.823   4.925 -0.1931  0.9988  1.5688
 4287TIP3    H234277   2.909   3.902   4.979 -0.8319  1.3277 -0.2434
 4288TIP3   OH234278   3.135   1.640  12.392 -0.3210 -0.1922 -0.3867
 4288TIP3    H134279   3.113   1.707  12.456 -0.9145 -1.3856  0.6814
 4288TIP3    H234280   3.225   1.662  12.364  0.4277 -0.3822  1.8048
 4289TIP3   OH234281   4.574   3.834  14.588 -0.2570 -0.9256 -0.7044
 4289TIP3    H134282   4.536   3.764  14.641 -0.7222 -0.4644 -0.4265
 4289TIP3    H234283   4.500   3.893  14.571 -0.0097 -0.8379 -1.4764
 4290TIP3   OH234284   4.457   2.022   0.134  0.7627  0.3058 -0.0114
 4290TIP3    H134285   4.534   2.030   0.077  1.1316  1.8552  0.6790
 4290TIP3    H234286   4.486   1.962   0.204  0.5275 -1.0568 -1.0513
 4291TIP3   OH234287   3.412   5.895  13.631 -0.5266  0.5340 -0.2954
 4291TIP3    H134288   3.317   5.904  13.624 -0.4760  0.6615 -0.8295
 4291TIP3    H234289   3.444   5.916  13.544 -0.1122 -0.9099 -0.5040
 4292TIP3   OH234290   6.318   0.813  11.035  0.1488 -0.1090  0.4446
 4292TIP3    H134291   6.307   0.820  10.940 -0.6884 -2.4452  0.3584
 4292TIP3    H234292   6.361   0.896  11.059  0.0103  0.6970 -1.8912
 4293TIP3   OH234293   4.856   2.241  16.234 -0.0742 -0.1805 -0.5114
 4293TIP3    H134294   4.931   2.182  16.228 -0.1828 -0.4015  0.2446
 4293TIP3    H234295   4.885   2.313  16.290  0.0193  0.4322 -1.3310
 4294TIP3   OH234296   6.498   6.413   0.815  0.1655  0.9431  0.2220
 4294TIP3    H134297   6.410   6.424   0.778  0.4096  0.3975 -0.5391
 4294TIP3    H234298   6.504   6.479   0.883 -1.5433 -0.2494  1.5777
 4295TIP3   OH234299   3.704   0.108  15.758 -0.8402  0.1111  0.0911
 4295TIP3    H134300   3.676   0.137  15.844 -0.1668  0.6607  0.1305
 4295TIP3    H234301   3.781   0.161  15.738 -0.4884 -0.5944 -0.4858
 4296TIP3   OH234302   0.506   4.682  14.253  0.3702  0.3837 -0.1204
 4296TIP3    H134303   0.521   4.588  14.238 -1.1263  0.2579 -0.9579
 4296TIP3    H234304   0.412   4.688  14.270  0.6647  1.5877  1.1761
 4297TIP3   OH234305   2.738   6.701  11.336 -0.1636  0.2965  0.2177
 4297TIP3    H134306   2.818   6.745  11.308  0.5525 -0.0230  1.7145
 4297TIP3    H234307   2.719   6.639  11.265  2.1698 -1.2276  0.8642
 4298TIP3   OH234308   5.632   5.751  10.879  0.4991  0.1385 -0.0398
 4298TIP3    H134309   5.600   5.817  10.818 -0.6638 -0.0743  0.3321
 4298TIP3    H234310   5.686   5.801  10.941  1.9052  0.3131 -1.3668
 4299TIP3   OH234311   1.834   1.017   0.492  0.5976 -0.6586  0.2394
 4299TIP3    H134312   1.807   1.009   0.401  1.0123  1.5811 -0.1105
 4299TIP3    H234313   1.926   1.045   0.487  0.5626 -0.3315  1.3207
 4300TIP3   OH234314   4.746   6.589  12.289  0.1543  0.0588 -0.9999
 4300TIP3    H134315   4.814   6.655  12.279  0.9058 -0.8353 -1.9477
 4300TIP3    H234316   4.672   6.622  12.237  0.2411  0.5299 -0.8208
 4301TIP3   OH234317   5.053   3.777  13.775 -0.5605  0.3740 -0.0257
 4301TIP3    H134318   5.076   3.747  13.863 -0.7324 -0.0465 -0.1244
 4301TIP3    H234319   5.111   3.729  13.717 -0.4018  0.7019 -0.1386
 4302TIP3   OH234320   3.697   3.075   3.810 -0.5694  0.0482 -0.2930
 4302TIP3    H134321   3.745   3.128   3.873 -0.3237  0.2752 -0.6719
 4302TIP3    H234322   3.695   3.127   3.730 -1.1002 -0.1300 -0.4008
 4303TIP3   OH234323   5.153   1.757  14.193 -0.0210 -0.0572  0.2861
 4303TIP3    H134324   5.143   1.851  14.201  0.3772  0.0654 -0.6050
 4303TIP3    H234325   5.064   1.723  14.198 -0.3251  0.5010 -0.9726
 4304TIP3   OH234326   2.839   4.538   4.883 -1.0187  0.5486 -0.1724
 4304TIP3    H134327   2.794   4.554   4.966 -1.3408 -2.2898  0.2389
 4304TIP3    H234328   2.869   4.447   4.889  0.7275  0.9481 -2.3469
 4305TIP3   OH234329   5.636   0.837  16.470  0.7981 -0.0210  0.3443
 4305TIP3    H134330   5.618   0.930  16.461 -0.2084 -0.1401  1.0848
 4305TIP3    H234331   5.732   0.832  16.480  0.6219  1.1566  2.9929
 4306TIP3   OH234332   4.188   2.312  10.680 -0.2330  0.0039  0.1704
 4306TIP3    H134333   4.134   2.277  10.609 -0.4200  0.9841 -0.1687
 4306TIP3    H234334   4.196   2.405  10.661 -0.6463  0.3482  1.6837
 4307TIP3   OH234335   1.793   0.531  13.915  0.2580  0.5992  0.0822
 4307TIP3    H134336   1.838   0.598  13.862  0.2116 -0.2695 -1.0909
 4307TIP3    H234337   1.860   0.500  13.975  0.6604  0.7444 -0.2864
 4308TIP3   OH234338   1.225   3.681   0.121 -1.0354 -0.0785 -0.5540
 4308TIP3    H134339   1.146   3.736   0.119 -0.6977  0.4487  0.0515
 4308TIP3    H234340   1.228   3.649   0.211 -0.8219 -0.4901 -0.7116
 4309TIP3   OH234341   6.121   0.736  15.942 -0.1173 -0.0498 -0.1652
 4309TIP3    H134342   6.093   0.645  15.930  1.8169 -0.5089 -1.4127
 4309TIP3    H234343   6.090   0.781  15.863 -0.3730  0.2016  0.0775
 4310TIP3   OH234344   2.657   0.272   5.346  0.3192  0.2757 -0.3468
 4310TIP3    H134345   2.670   0.366   5.351  1.1224  0.3536 -3.1982
 4310TIP3    H234346   2.572   0.262   5.302  1.3673 -0.2960 -2.3056
 4311TIP3   OH234347   5.160   0.290  12.007  0.2545 -0.4262 -0.1587
 4311TIP3    H134348   5.071   0.309  12.035 -0.3627 -1.1990 -1.5570
 4311TIP3    H234349   5.211   0.291  12.087 -0.8661  0.8306  0.5560
 4312TIP3   OH234350   1.174   1.380  16.849  0.1547  0.3156 -0.2933
 4312TIP3    H134351   1.157   1.357  16.758 -1.8774  2.2768 -0.4478
 4312TIP3    H234352   1.088   1.393  16.887  0.9759 -0.6934  1.9891
 4313TIP3   OH234353   4.414   4.200   4.432 -0.0939  0.2579  0.0684
 4313TIP3    H134354   4.454   4.140   4.369  1.9849  0.0926  1.5247
 4313TIP3    H234355   4.475   4.203   4.505 -1.6742  1.7600  1.3635
 4314TIP3   OH234356   3.075   0.458   1.466  0.2730  0.1922  0.1383
 4314TIP3    H134357   3.155   0.432   1.512 -0.1340 -0.4016  0.5126
 4314TIP3    H234358   3.043   0.534   1.515  0.1766 -0.0567  0.4608
 4315TIP3   OH234359   3.131   6.625   4.740  0.9771  0.1025 -0.1031
 4315TIP3    H134360   3.111   6.582   4.823 -1.7421 -0.6802 -1.1217
 4315TIP3    H234361   3.207   6.680   4.759  0.0741  0.3463  3.0359
 4316TIP3   OH234362   1.054   2.739   6.405  0.2292 -0.3134 -0.0010
 4316TIP3    H134363   1.026   2.830   6.395  3.0563  0.6472  0.2308
 4316TIP3    H234364   1.120   2.742   6.474  0.8198 -2.4406 -0.4421
 4317TIP3   OH234365   2.208   3.525   3.639  0.9876  0.1623 -0.0848
 4317TIP3    H134366   2.209   3.459   3.570 -0.2498  0.4601 -0.3973
 4317TIP3    H234367   2.286   3.578   3.623  0.1287  0.9050 -1.9409
 4318TIP3   OH234368   0.412   4.099   4.391  0.0242  0.0381 -0.5577
 4318TIP3    H134369   0.344   4.127   4.451 -0.0753  0.8188 -1.0271
 4318TIP3    H234370   0.414   4.004   4.399 -1.5638 -0.0454 -1.0075
 4319TIP3   OH234371   6.125   3.098  11.841 -0.8328 -0.1115  0.1176
 4319TIP3    H134372   6.149   3.171  11.897 -1.4294  0.4134 -0.3032
 4319TIP3    H234373   6.083   3.035  11.899  2.1903 -1.3942  1.0256
 4320TIP3   OH234374   3.198   2.064  15.045 -0.6192 -0.0574  0.0139
 4320TIP3    H134375   3.276   2.078  15.098 -0.6593 -2.0610  0.6629
 4320TIP3    H234376   3.125   2.076  15.106 -0.7143 -0.9755  0.0869
 4321TIP3   OH234377   6.009   5.685   6.669  0.2244 -0.1665 -0.3671
 4321TIP3    H134378   5.927   5.732   6.686 -1.5689 -3.2104 -0.3201
 4321TIP3    H234379   6.055   5.686   6.753 -1.0432 -0.8393  0.3510
 4322TIP3   OH234380   5.199   1.257   1.030 -0.2174 -0.5235 -0.3016
 4322TIP3    H134381   5.242   1.228   1.111  1.1581  3.2162  0.3949
 4322TIP3    H234382   5.153   1.337   1.055  0.9501  1.1925 -3.3960
 4323TIP3   OH234383   1.985   6.068   1.249 -1.0553 -0.4287 -0.5239
 4323TIP3    H134384   1.945   6.116   1.176 -0.1993 -0.5260 -1.0581
 4323TIP3    H234385   1.930   5.991   1.260 -2.8423  0.9579  0.7555
 4324TIP3   OH234386   0.554   2.770  14.295 -0.9903 -0.5163  0.5118
 4324TIP3    H134387   0.505   2.740  14.218 -1.3066 -0.2631  0.6098
 4324TIP3    H234388   0.516   2.722  14.368 -0.1979 -1.2903  0.4166
 4325TIP3   OH234389   2.624   1.340  15.443 -0.0876 -0.0136  0.1381
 4325TIP3    H134390   2.529   1.332  15.438 -0.3515  1.1898  2.5445
 4325TIP3    H234391   2.640   1.435  15.439  1.0852 -0.2507 -1.2251
 4326TIP3   OH234392   0.717   6.764  16.594 -0.4654 -0.2321  0.8582
 4326TIP3    H134393   0.752   6.833  16.651  2.9369 -1.3136  0.2383
 4326TIP3    H234394   0.643   6.728  16.642 -0.1934  1.5881  2.7288
 4327TIP3   OH234395   4.542   6.371   2.712  0.0667 -0.3191  0.0329
 4327TIP3    H134396   4.559   6.459   2.678 -0.2495  0.0004  0.6870
 4327TIP3    H234397   4.628   6.332   2.723  0.1464 -0.8081 -2.1236
 4328TIP3   OH234398   1.655   3.585  15.247  0.3642  0.1870  0.5313
 4328TIP3    H134399   1.703   3.505  15.267  2.5762  1.1909 -0.5653
 4328TIP3    H234400   1.609   3.565  15.165  0.5043 -0.1126  0.5247
 4329TIP3   OH234401   4.827   1.012  16.097  0.3178  0.5471 -0.0071
 4329TIP3    H134402   4.832   0.925  16.138  0.2296  0.4302 -0.2437
 4329TIP3    H234403   4.755   1.055  16.142 -2.0992 -0.8358 -2.3871
 4330TIP3   OH234404   1.525   6.147  16.092  0.4842  0.0543  0.2897
 4330TIP3    H134405   1.460   6.189  16.148 -0.9657 -0.6904 -0.7979
 4330TIP3    H234406   1.543   6.210  16.023  0.4454  0.0186  0.2470
 4331TIP3   OH234407   3.779   5.798   6.024 -0.2295 -0.2988 -0.0090
 4331TIP3    H134408   3.735   5.757   5.950 -0.4100  0.0545 -0.0999
 4331TIP3    H234409   3.806   5.884   5.991  0.2000 -0.3676  0.1586
 4332TIP3   OH234410   1.925   4.447  15.143  0.0784  0.0315  0.2153
 4332TIP3    H134411   1.912   4.356  15.169 -0.2038  0.6608  2.4227
 4332TIP3    H234412   1.999   4.477  15.196  1.8432  0.3695 -2.3820
 4333TIP3   OH234413   2.061   5.244  17.087 -0.0732  0.5122  0.0507
 4333TIP3    H134414   2.061   5.339  17.096 -2.6514  0.4924  0.6595
 4333TIP3    H234415   2.039   5.228  16.995 -1.8695  0.5270  0.4501
 4334TIP3   OH234416   1.390   5.874  15.473  0.4912  0.1147  0.2158
 4334TIP3    H134417   1.338   5.817  15.529 -0.4212  0.0645 -0.6696
 4334TIP3    H234418   1.412   5.949  15.528 -0.5690  0.1665  0.5816
 4335TIP3   OH234419   5.454   1.424   3.799 -0.2659 -0.5650 -0.2924
 4335TIP3    H134420   5.408   1.344   3.822 -0.6396 -0.2900 -0.0787
 4335TIP3    H234421   5.471   1.417   3.705 -0.4249 -0.8259 -0.3001
 4336TIP3   OH234422   5.169   0.973  16.932 -0.5161 -0.6310 -0.4872
 4336TIP3    H134423   5.236   1.008  16.991  1.6246 -1.1858 -2.4893
 4336TIP3    H234424   5.174   0.878  16.944 -0.2989 -0.7295 -1.2791
 4337TIP3   OH234425   3.593   1.067   1.751  0.7491 -0.6614 -0.3586
 4337TIP3    H134426   3.651   1.122   1.698  0.3171 -0.4144 -0.5739
 4337TIP3    H234427   3.509   1.112   1.750  0.6039 -0.9144  0.1259
 4338TIP3   OH234428   4.047   1.793  15.452  0.0236  0.1530 -0.2658
 4338TIP3    H134429   4.016   1.774  15.364  0.0705  0.2462 -0.3034
 4338TIP3    H234430   4.135   1.756  15.456 -0.4254 -0.8874  0.1316
 4339TIP3   OH234431   4.829   0.922   0.436  0.0290  0.1993 -0.5096
 4339TIP3    H134432   4.811   0.836   0.474  3.3068 -1.9342 -3.4670
 4339TIP3    H234433   4.836   0.906   0.342  0.2110  3.8429 -1.2098
 4340TIP3   OH234434   1.324   3.909  13.676  0.1601  0.0996  0.1390
 4340TIP3    H134435   1.355   3.847  13.741  0.6563  0.6065  0.3924
 4340TIP3    H234436   1.338   3.865  13.592  1.5631  0.3045  0.2459
 4341TIP3   OH234437   5.696   3.070   6.185 -0.0109 -0.1320 -0.5232
 4341TIP3    H134438   5.698   3.162   6.159  0.3796  0.4924  1.6238
 4341TIP3    H234439   5.787   3.041   6.178  0.0603 -0.0217 -0.0557
 4342TIP3   OH234440   3.161   4.540  15.457 -0.9807  0.5178 -0.0479
 4342TIP3    H134441   3.157   4.572  15.367 -1.8331 -0.2840 -0.3055
 4342TIP3    H234442   3.179   4.618  15.510 -1.4067  1.1467 -0.8187
 4343TIP3   OH234443   0.380   3.205  12.556 -0.0482  0.2441 -0.0704
 4343TIP3    H134444   0.301   3.151  12.552 -1.4570  2.3424 -1.3546
 4343TIP3    H234445   0.360   3.270  12.624 -0.1960  1.9437 -1.7280
 4344TIP3   OH234446   3.792   3.044   1.122  0.3379  1.1789 -0.7878
 4344TIP3    H134447   3.747   3.083   1.197  1.8149  3.6795 -1.1534
 4344TIP3    H234448   3.813   2.955   1.151 -1.2439  1.2988  0.8513
 4345TIP3   OH234449   5.407   4.447   0.039 -0.0972 -1.0838 -0.0329
 4345TIP3    H134450   5.425   4.538   0.059 -1.2400 -1.0671  0.9177
 4345TIP3    H234451   5.444   4.434  -0.049 -1.1515  0.6481 -0.7442
 4346TIP3   OH234452   2.768   6.011  15.034 -0.0020  0.3343  0.0041
 4346TIP3    H134453   2.749   6.055  14.950  2.0729  0.5008 -0.3925
 4346TIP3    H234454   2.681   5.991  15.070 -0.9442  1.7104 -1.4197
 4347TIP3   OH234455   0.580   2.666   2.001 -0.7173  0.0906 -0.7637
 4347TIP3    H134456   0.643   2.670   2.073 -0.5712  1.6767 -0.9559
 4347TIP3    H234457   0.567   2.573   1.986  1.0274 -0.2606 -0.2305
 4348TIP3   OH234458   0.808   6.068   4.232 -0.0889  0.5528 -0.1346
 4348TIP3    H134459   0.749   6.016   4.176  0.3827  0.0024 -0.1223
 4348TIP3    H234460   0.750   6.110   4.295 -0.6327  1.1975 -1.0559
 4349TIP3   OH234461   2.593   5.947   0.425 -0.5989 -0.4429  0.2442
 4349TIP3    H134462   2.583   5.955   0.330 -0.8595 -0.3507  0.2763
 4349TIP3    H234463   2.686   5.931   0.439 -0.9514 -3.0183 -0.1852
 4350TIP3   OH234464   3.462   5.256  14.058  0.5907 -0.1497  0.0963
 4350TIP3    H134465   3.394   5.290  13.999  0.7015 -0.1358 -0.0231
 4350TIP3    H234466   3.463   5.318  14.131 -0.2627 -0.7300  0.6169
 4351TIP3   OH234467   6.282   1.925   6.060  0.0185  0.5289 -0.4190
 4351TIP3    H134468   6.265   1.887   5.974  1.3617 -0.7071 -0.1416
 4351TIP3    H234469   6.223   1.878   6.119  0.5056  0.0210 -0.3404
 4352TIP3   OH234470   0.512   5.184  14.569 -0.5332 -0.3304 -0.6855
 4352TIP3    H134471   0.496   5.228  14.486  2.4765  0.8518 -0.6691
 4352TIP3    H234472   0.591   5.132  14.554  0.1895  0.0853  1.4924
 4353TIP3   OH234473   0.844   1.250  14.420  0.0599 -0.3678  0.1682
 4353TIP3    H134474   0.918   1.245  14.481  0.9984 -0.0555 -0.9223
 4353TIP3    H234475   0.769   1.222  14.472  0.8069  0.0802  1.5253
 4354TIP3   OH234476   0.563   4.546   1.465  0.0737 -0.2079  0.3904
 4354TIP3    H134477   0.626   4.540   1.393 -2.4238 -1.1108 -1.8171
 4354TIP3    H234478   0.478   4.543   1.422 -1.5031 -1.0176  3.4323
 4355TIP3   OH234479   2.693   0.982  15.319 -0.0290 -0.1507  0.0457
 4355TIP3    H134480   2.779   0.946  15.302  0.0500 -0.5238  1.2001
 4355TIP3    H234481   2.635   0.937  15.257  0.2304 -1.5422  0.7901
 4356TIP3   OH234482   0.002   6.151  15.818  0.5251 -0.3418  0.4038
 4356TIP3    H134483  -0.072   6.210  15.833  1.8181  1.8389 -1.4719
 4356TIP3    H234484  -0.027   6.067  15.852 -2.7021  0.5481  0.0169
 4357TIP3   OH234485   3.890   5.030  15.240 -0.1387  0.5067 -0.6148
 4357TIP3    H134486   3.807   4.996  15.207  0.4868 -0.2424 -1.4339
 4357TIP3    H234487   3.866   5.109  15.289 -1.4017 -0.0815 -0.2673
 4358TIP3   OH234488   4.975   2.189  15.178  0.0442 -0.1960  0.1262
 4358TIP3    H134489   5.024   2.107  15.188  0.0977 -0.2531 -0.5695
 4358TIP3    H234490   5.043   2.256  15.170  0.0167 -0.2189 -0.3645
 4359TIP3   OH234491   0.776   1.148  17.221 -0.5895 -0.3859  0.0387
 4359TIP3    H134492   0.687   1.173  17.195 -0.4193  1.5569  1.1837
 4359TIP3    H234493   0.765   1.111  17.309 -0.1137  1.1504  0.7585
 4360TIP3   OH234494   3.894   1.406  16.320 -0.1924  0.0511 -0.6040
 4360TIP3    H134495   3.950   1.369  16.389 -0.3170 -0.3796 -0.7301
 4360TIP3    H234496   3.872   1.331  16.265  0.5568  0.5352 -1.5709
 4361TIP3   OH234497   6.209   5.694   4.840 -0.4593 -0.2547 -0.0484
 4361TIP3    H134498   6.290   5.716   4.886 -0.0147 -0.0718 -0.8972
 4361TIP3    H234499   6.139   5.728   4.895  0.0907  0.5521  0.1613
 4362TIP3   OH234500   5.781   5.681  13.292  0.0330 -0.2026 -0.2032
 4362TIP3    H134501   5.747   5.621  13.226 -0.0075 -0.3950 -0.0115
 4362TIP3    H234502   5.730   5.661  13.371  1.4598 -1.3921  0.4527
 4363TIP3   OH234503   2.734   5.435   5.571 -0.0791  0.1275  0.6131
 4363TIP3    H134504   2.740   5.516   5.520 -0.3543 -0.9256 -1.1079
 4363TIP3    H234505   2.655   5.447   5.625 -0.6020  0.6516 -0.2548
 4364TIP3   OH234506   0.793   4.325   5.676  0.3558 -0.3427  0.7462
 4364TIP3    H134507   0.874   4.350   5.631  0.4782  0.8663  1.5964
 4364TIP3    H234508   0.819   4.254   5.734  1.1676  1.0847  2.1705
 4365TIP3   OH234509   2.270   5.090   2.936 -0.0364  0.1172 -0.0059
 4365TIP3    H134510   2.211   5.022   2.969 -0.7009  0.1648 -1.0822
 4365TIP3    H234511   2.358   5.056   2.952 -0.3261  0.1352  1.8177
 4366TIP3   OH234512   5.148   5.094  14.939 -0.3701 -0.2902  0.1935
 4366TIP3    H134513   5.086   5.048  14.882  0.1712 -1.6189  0.6518
 4366TIP3    H234514   5.204   5.143  14.880 -0.9426 -0.2272 -0.3068
 4367TIP3   OH234515   5.853   3.713  13.115  0.5111 -0.5741  0.1483
 4367TIP3    H134516   5.807   3.762  13.047 -0.0635 -1.4780 -0.1214
 4367TIP3    H234517   5.802   3.633  13.125  1.0815 -0.8267  1.0397
 4368TIP3   OH234518   1.558   2.203   0.000  0.3567  0.4327 -0.0845
 4368TIP3    H134519   1.583   2.184  -0.090  2.2468  1.2750  0.2356
 4368TIP3    H234520   1.623   2.158   0.054  0.4136  1.5570  0.8104
 4369TIP3   OH234521   0.550   3.972   1.779 -0.2733  0.0544  0.2544
 4369TIP3    H134522   0.542   3.951   1.686 -0.4791 -0.4049  0.3776
 4369TIP3    H234523   0.483   3.919   1.822  0.4548 -0.4454  0.7747
 4370TIP3   OH234524   0.358   1.058   0.553  0.1061  0.2035  0.1100
 4370TIP3    H134525   0.338   1.132   0.610 -0.2619 -0.3790  0.7439
 4370TIP3    H234526   0.277   1.043   0.504  0.4371  0.7360 -0.6152
 4371TIP3   OH234527   3.070   4.801  14.117  0.1745 -0.0502 -0.0442
 4371TIP3    H134528   3.053   4.873  14.178 -2.3400 -1.1890  0.6700
 4371TIP3    H234529   2.994   4.801  14.058  1.2340 -0.7139 -1.4251
 4372TIP3   OH234530   4.878   3.970   4.641  0.2226  0.0232 -0.0346
 4372TIP3    H134531   4.966   3.937   4.661  0.2782 -0.3532 -0.9006
 4372TIP3    H234532   4.829   3.893   4.613 -0.0152  0.4521 -0.8183
 4373TIP3   OH234533   3.291   0.907   1.036  0.1405  0.2203 -0.2486
 4373TIP3    H134534   3.266   0.983   0.984 -0.6979  0.7482  0.9035
 4373TIP3    H234535   3.375   0.931   1.074  2.2793 -1.3669 -3.7436
 4374TIP3   OH234536   2.851   4.143   0.987 -0.1680 -0.1403  0.0166
 4374TIP3    H134537   2.865   4.052   0.959  2.0129 -0.3634  1.6877
 4374TIP3    H234538   2.938   4.182   0.984 -0.6537  1.1374  1.8980
 4375TIP3   OH234539   2.781   1.466  17.199  0.0023 -0.5847 -0.3506
 4375TIP3    H134540   2.833   1.544  17.220 -0.1832 -0.2863 -0.9931
 4375TIP3    H234541   2.787   1.457  17.104 -0.5025 -0.9857 -0.3516
 4376TIP3   OH234542   6.749   5.068   0.789  0.0391  0.2780 -0.3051
 4376TIP3    H134543   6.689   5.139   0.768  0.7978  0.7936 -0.7631
 4376TIP3    H234544   6.836   5.106   0.777  0.4517 -0.6698 -0.3704
 4377TIP3   OH234545   0.614   0.947  12.958  0.3535  0.5746 -0.4616
 4377TIP3    H134546   0.603   0.975  13.049 -1.0720  1.0340 -0.7709
 4377TIP3    H234547   0.596   1.025  12.906  0.6050  0.1683 -1.1769
 4378TIP3   OH234548   3.451   4.042   3.884 -0.1291 -0.1501  0.0768
 4378TIP3    H134549   3.394   3.982   3.932 -0.8099 -0.4308 -1.0601
 4378TIP3    H234550   3.408   4.127   3.894 -1.2428 -0.5100 -1.5214
 4379TIP3   OH234551   6.261   0.449  11.147  0.2782 -0.1607  0.2974
 4379TIP3    H134552   6.322   0.468  11.076 -1.8292  0.2128 -1.4775
 4379TIP3    H234553   6.232   0.535  11.178  0.5423 -0.3357  1.0537
 4380TIP3   OH234554   6.309   1.680  12.888 -0.9661  0.0437  0.1584
 4380TIP3    H134555   6.374   1.737  12.848 -0.3415 -0.2719  0.7148
 4380TIP3    H234556   6.313   1.599  12.837 -1.2836  0.1999 -0.1202
 4381TIP3   OH234557   2.932   0.305   1.297 -0.5729  0.7119  0.0395
 4381TIP3    H134558   2.966   0.350   1.374  1.6232 -1.1719  0.2352
 4381TIP3    H234559   2.878   0.234   1.332  2.5032 -1.7900  0.0614
 4382TIP3   OH234560   1.117   5.696  10.555 -0.2523  0.0775  0.9067
 4382TIP3    H134561   1.119   5.666  10.464  2.6343 -0.9991  1.2657
 4382TIP3    H234562   1.097   5.617  10.605  0.4353  0.1754  1.3465
 4383TIP3   OH234563   1.256   6.614  15.051  0.2911  0.6282  0.0548
 4383TIP3    H134564   1.186   6.550  15.062 -1.3422  2.2272 -0.8043
 4383TIP3    H234565   1.288   6.631  15.140 -0.0480 -0.4918  0.3977
 4384TIP3   OH234566   5.817   6.566  11.876  0.1880 -0.3570  0.1855
 4384TIP3    H134567   5.812   6.602  11.788  0.5872 -0.2755  0.1969
 4384TIP3    H234568   5.781   6.636  11.932  2.2958  0.6226  0.3706
 4385TIP3   OH234569   3.418   0.544   1.857 -0.1207 -0.0618 -0.2498
 4385TIP3    H134570   3.338   0.571   1.811 -1.1781  0.9639  2.1136
 4385TIP3    H234571   3.468   0.624   1.867  1.4617 -0.7703 -2.0887
 4386TIP3   OH234572   0.646   2.138  12.649  0.0130 -0.5863 -0.8103
 4386TIP3    H134573   0.663   2.226  12.682  1.3991 -0.7395 -1.0884
 4386TIP3    H234574   0.551   2.134  12.639 -0.2739  0.0836  1.4267
 4387TIP3   OH234575   4.873   4.233  17.009  0.1270 -0.3313  0.5811
 4387TIP3    H134576   4.916   4.179  17.075  1.9397  0.3587  0.0161
 4387TIP3    H234577   4.822   4.296  17.059 -0.1288 -1.0837  1.2828
 4388TIP3   OH234578   4.331   2.413   3.618  0.5204  0.0882 -0.6534
 4388TIP3    H134579   4.270   2.474   3.576  0.5343 -0.2084 -1.1056
 4388TIP3    H234580   4.289   2.328   3.612  1.2182 -0.2077 -1.4611
 4389TIP3   OH234581   3.389   2.948   3.511  0.0721  0.3832  0.3552
 4389TIP3    H134582   3.309   2.945   3.564 -0.1934 -0.8491 -0.1082
 4389TIP3    H234583   3.460   2.944   3.576 -0.2002  3.0965  0.8758
 4390TIP3   OH234584   1.480   1.615   4.060  0.6801 -0.0531  0.0903
 4390TIP3    H134585   1.393   1.623   4.022  1.0363  3.8376 -0.0874
 4390TIP3    H234586   1.535   1.585   3.987 -0.2409 -1.3166 -0.1032
 4391TIP3   OH234587   1.453   6.105  15.208  0.1454 -0.1751  0.3764
 4391TIP3    H134588   1.474   6.126  15.299  0.4713 -2.5940  0.8992
 4391TIP3    H234589   1.411   6.019  15.212  2.4037 -1.4486 -2.0073
 4392TIP3   OH234590   1.528   0.455   5.144 -0.0593 -0.2993  0.0701
 4392TIP3    H134591   1.593   0.516   5.178  1.0070 -0.0445 -2.3184
 4392TIP3    H234592   1.451   0.469   5.199  0.5751  2.3204  0.3644
 4393TIP3   OH234593   4.331   2.352   3.109 -0.0400 -0.0468  0.3585
 4393TIP3    H134594   4.387   2.289   3.156 -0.9334 -1.8577 -0.9425
 4393TIP3    H234595   4.351   2.337   3.017 -1.3033  0.6025 -0.0199
 4394TIP3   OH234596   6.145   1.278   0.727 -0.4750  0.6724 -0.7673
 4394TIP3    H134597   6.198   1.309   0.653 -4.3232  1.9783 -3.1083
 4394TIP3    H234598   6.123   1.188   0.705  0.1355  0.3597 -0.1333
 4395TIP3   OH234599   1.473   2.957  15.068  0.1581  0.1201  0.2160
 4395TIP3    H134600   1.534   2.926  15.002  0.5115  1.4960 -0.1175
 4395TIP3    H234601   1.508   3.041  15.096  0.6919 -0.9904  3.0566
 4396TIP3   OH234602   5.814   4.932   2.988  0.0420  0.3848  0.3457
 4396TIP3    H134603   5.851   4.992   2.923 -1.1696  2.1967  1.2971
 4396TIP3    H234604   5.824   4.978   3.071 -0.0468 -1.1629  1.2236
 4397TIP3   OH234605   5.206   4.015   5.602 -0.0784 -0.2263  0.2432
 4397TIP3    H134606   5.141   3.977   5.543 -0.2111 -0.1039  0.3110
 4397TIP3    H234607   5.174   4.104   5.619 -0.6352 -0.6463  1.4038
 4398TIP3   OH234608   3.433   3.658  15.591 -0.7049 -0.5671  0.2108
 4398TIP3    H134609   3.443   3.666  15.497  0.7185 -0.5175  0.3512
 4398TIP3    H234610   3.346   3.621  15.603 -0.5859 -1.3136 -1.1488
 4399TIP3   OH234611   5.136   1.544   4.510  0.0395 -0.0168 -0.0279
 4399TIP3    H134612   5.217   1.593   4.500 -0.9734  1.5557 -0.6851
 4399TIP3    H234613   5.118   1.510   4.422 -0.7442  0.8372 -0.2094
 4400TIP3   OH234614   6.669   0.922  16.567 -0.7333 -0.4510 -0.3160
 4400TIP3    H134615   6.700   1.005  16.603 -0.7933 -0.5972  0.0802
 4400TIP3    H234616   6.746   0.882  16.528 -1.1898  0.9091 -2.7252
 4401TIP3   OH234617   2.742   3.951   5.683 -0.1579 -0.8429  0.0815
 4401TIP3    H134618   2.752   4.031   5.735  4.3220 -0.6748 -0.8430
 4401TIP3    H234619   2.669   3.969   5.625 -1.1577  1.4182  1.9485
 4402TIP3   OH234620   2.099   1.789   1.737 -0.1971  0.0405 -0.7041
 4402TIP3    H134621   2.055   1.720   1.786  0.2367  0.2902  0.0358
 4402TIP3    H234622   2.190   1.760   1.732  0.0397  0.6810 -0.1693
 4403TIP3   OH234623   0.440   6.155   3.998 -0.0534  0.2021 -0.0068
 4403TIP3    H134624   0.435   6.235   3.946 -2.5797  0.2276  0.1986
 4403TIP3    H234625   0.403   6.179   4.083 -1.3511 -1.2827 -0.1167
 4404TIP3   OH234626   3.426   0.799  12.589 -0.1769  0.6554 -0.0839
 4404TIP3    H134627   3.375   0.809  12.669 -0.0392 -0.6486  0.1918
 4404TIP3    H234628   3.488   0.872  12.590 -1.1163  1.4600  0.2696
 4405TIP3   OH234629   1.336   1.531   6.069 -0.0198 -0.3336  0.4850
 4405TIP3    H134630   1.415   1.535   6.015  0.2416  1.4377  0.9713
 4405TIP3    H234631   1.265   1.555   6.010  0.2267  1.2878  0.8268
 4406TIP3   OH234632   5.937   5.056   3.244 -0.2890  0.7947 -0.4172
 4406TIP3    H134633   5.934   4.960   3.252  1.6251  0.8709  1.6017
 4406TIP3    H234634   5.871   5.087   3.306 -0.4888  0.7998 -0.6323
 4407TIP3   OH234635   3.155   4.416  15.184 -0.6899  0.0209 -0.0001
 4407TIP3    H134636   3.164   4.362  15.263  0.4213  0.5869  0.2682
 4407TIP3    H234637   3.063   4.408  15.160 -1.2545  0.5179  1.8595
 4408TIP3   OH234638   5.191   4.035  13.856  0.0273 -0.6687  0.2755
 4408TIP3    H134639   5.156   4.048  13.944  1.0893 -0.8329  0.7380
 4408TIP3    H234640   5.121   3.992  13.808 -0.1874 -1.5382  1.3496
 4409TIP3   OH234641   5.507   1.214  15.264  0.3322 -0.6573  0.4999
 4409TIP3    H134642   5.481   1.245  15.178  2.7968  0.5991  0.1838
 4409TIP3    H234643   5.442   1.252  15.324 -0.2186  0.0968 -0.5603
 4410TIP3   OH234644   2.693   5.769  11.019 -0.2433 -0.1711 -0.3480
 4410TIP3    H134645   2.750   5.745  11.092 -0.1750 -0.7910 -0.5993
 4410TIP3    H234646   2.604   5.765  11.056 -0.1915 -0.2209 -0.2276
 4411TIP3   OH234647   5.631   3.970   3.947 -0.3466 -0.2743 -0.5584
 4411TIP3    H134648   5.586   3.964   4.031  0.6642 -1.2622 -0.0773
 4411TIP3    H234649   5.608   4.057   3.913 -0.9916  0.0079  0.5938
 4412TIP3   OH234650   4.099   0.997  13.922 -0.8357 -0.1639 -0.0548
 4412TIP3    H134651   4.166   0.935  13.892  0.8323  1.4090  0.3267
 4412TIP3    H234652   4.022   0.943  13.941  0.6935 -2.1548  0.5749
 4413TIP3   OH234653   4.537   5.792  11.213  0.2899 -0.0673 -0.1441
 4413TIP3    H134654   4.559   5.742  11.292  0.5221 -1.9699 -1.3664
 4413TIP3    H234655   4.621   5.828  11.184  0.6658 -1.5572 -0.9603
 4414TIP3   OH234656   1.157   0.433   1.740 -0.5767  0.0583  0.3482
 4414TIP3    H134657   1.222   0.493   1.703 -1.6587  0.2611 -1.3001
 4414TIP3    H234658   1.152   0.457   1.832 -1.0474  2.5999 -0.2909
 4415TIP3   OH234659   1.111   4.594  16.161 -0.4587  0.1037 -0.4914
 4415TIP3    H134660   1.153   4.564  16.080  1.5658 -0.4880  0.7723
 4415TIP3    H234661   1.062   4.672  16.134  1.4541  0.8284 -1.9818
 4416TIP3   OH234662   1.400   3.287  13.648 -0.1547  0.3424 -0.0118
 4416TIP3    H134663   1.347   3.366  13.645  0.1835  0.5307 -1.5707
 4416TIP3    H234664   1.385   3.244  13.563  0.7343 -0.5403  0.2593
 4417TIP3   OH234665   2.212   1.553  15.401  0.5251 -0.2775  0.7997
 4417TIP3    H134666   2.225   1.503  15.482 -0.7111  0.4107  1.4465
 4417TIP3    H234667   2.117   1.564  15.396  0.6953  0.8594 -0.0284
 4418TIP3   OH234668   6.662   0.552   0.744  0.2071 -0.8399 -0.2227
 4418TIP3    H134669   6.649   0.628   0.800  1.3906 -0.8338  0.0498
 4418TIP3    H234670   6.638   0.582   0.657 -0.0929 -0.3879  0.0125
 4419TIP3   OH234671   5.218   2.382   3.657 -0.1279 -0.3495 -0.0535
 4419TIP3    H134672   5.230   2.307   3.598 -1.1972 -0.3482 -0.2877
 4419TIP3    H234673   5.300   2.388   3.705 -0.2137 -1.9933  0.3235
 4420TIP3   OH234674   3.237   4.263   0.658 -0.0304 -0.1136 -0.0482
 4420TIP3    H134675   3.270   4.176   0.637 -1.1008 -0.3575 -0.7838
 4420TIP3    H234676   3.157   4.247   0.708 -1.1115  0.4104 -1.5519
 4421TIP3   OH234677   0.687   4.473   0.826  0.0726 -0.3046  0.1001
 4421TIP3    H134678   0.632   4.395   0.819 -0.7225  0.2946 -0.4780
 4421TIP3    H234679   0.654   4.520   0.902 -1.1960  0.7855 -1.0877
 4422TIP3   OH234680   1.241   2.848   0.789  0.0317  0.5124  0.1597
 4422TIP3    H134681   1.272   2.934   0.815  2.4737 -0.3134  0.0529
 4422TIP3    H234682   1.186   2.819   0.862 -0.9306  2.1818  0.1339
 4423TIP3   OH234683   3.297   4.957  16.678  0.4839 -0.0698  0.8044
 4423TIP3    H134684   3.353   4.964  16.755  1.6984  0.2421 -0.0996
 4423TIP3    H234685   3.302   4.865  16.652  1.3754  0.1640  0.1346
 4424TIP3   OH234686   2.069   6.297   6.277 -0.3159 -0.3162  0.5253
 4424TIP3    H134687   2.112   6.382   6.275 -0.0533 -0.4467  0.5489
 4424TIP3    H234688   2.070   6.267   6.186  4.0882 -2.5201  1.1495
 4425TIP3   OH234689   2.923   3.171   2.639 -0.4075 -0.0432 -0.4297
 4425TIP3    H134690   2.906   3.136   2.726 -2.4404 -0.3657 -0.9372
 4425TIP3    H234691   2.837   3.197   2.606  0.5245  1.3656 -1.7914
 4426TIP3   OH234692   0.018   3.428  12.156  0.1628  0.0929  0.0136
 4426TIP3    H134693   0.099   3.434  12.104 -1.4448  0.2496 -2.5905
 4426TIP3    H234694  -0.050   3.414  12.090 -1.9568  0.2109  2.1575
 4427TIP3   OH234695   6.216   3.381   2.105 -0.0763 -0.2873 -0.0702
 4427TIP3    H134696   6.135   3.430   2.118  0.2169  0.1635  0.0393
 4427TIP3    H234697   6.201   3.299   2.152 -1.0170 -0.8070 -1.2316
 4428TIP3   OH234698   0.716   0.601  14.053  0.0872 -0.4031 -0.1292
 4428TIP3    H134699   0.784   0.668  14.061  0.3802 -0.5741 -1.1256
 4428TIP3    H234700   0.662   0.631  13.980 -1.2440  0.0191  0.9934
 4429TIP3   OH234701   2.151   5.798  13.787  0.4717  0.3923  0.2672
 4429TIP3    H134702   2.156   5.728  13.722  1.5086 -0.7475  1.5356
 4429TIP3    H234703   2.138   5.752  13.871 -1.0669  1.8389  0.8473
 4430TIP3   OH234704   2.509   2.909   5.121 -0.5141  0.2926 -0.0997
 4430TIP3    H134705   2.475   2.860   5.045 -0.9276  0.1261  0.1891
 4430TIP3    H234706   2.434   2.915   5.180 -0.7261  2.1044 -0.5500
 4431TIP3   OH234707   4.724   1.301  15.596 -1.3384  0.3424  0.6635
 4431TIP3    H134708   4.640   1.318  15.553 -0.7276 -1.3203 -1.2955
 4431TIP3    H234709   4.701   1.274  15.685 -2.7622  1.7720  0.7477
 4432TIP3   OH234710   6.090   3.631   5.736 -0.1760 -0.1863 -0.0397
 4432TIP3    H134711   6.080   3.672   5.650 -0.4932  0.3628  0.2591
 4432TIP3    H234712   6.184   3.627   5.750 -0.1611  1.8635  0.6033
 4433TIP3   OH234713   5.504   4.579   2.763 -0.1232  0.6843  0.1221
 4433TIP3    H134714   5.476   4.508   2.820 -1.2633  1.3722  0.4316
 4433TIP3    H234715   5.464   4.657   2.800  1.1824  1.5136 -0.1624
 4434TIP3   OH234716   0.431   3.396  12.321  0.4042  0.1552  0.5862
 4434TIP3    H134717   0.418   3.380  12.415 -1.0191  0.9479  0.5490
 4434TIP3    H234718   0.380   3.327  12.278 -0.6506  1.0071  0.4212
 4435TIP3   OH234719   0.033   0.068  16.645  0.7952  0.3882  1.0044
 4435TIP3    H134720   0.073  -0.019  16.642  1.6759  0.8306 -0.2237
 4435TIP3    H234721  -0.014   0.076  16.563  0.8170  1.1192  1.0612
 4436TIP3   OH234722   3.507   0.669   4.352  0.2251 -0.0965  0.2725
 4436TIP3    H134723   3.562   0.592   4.337 -1.0202 -1.0444  0.5383
 4436TIP3    H234724   3.512   0.684   4.447 -0.4083 -0.4993  0.3659
 4437TIP3   OH234725   4.125   4.292   3.298  0.1587  0.0861 -0.1392
 4437TIP3    H134726   4.102   4.383   3.281  0.2852  0.4142  1.3670
 4437TIP3    H234727   4.069   4.266   3.372 -0.2202 -1.2100 -0.8584
 4438TIP3   OH234728   2.067   4.115   0.906 -1.0420 -0.2793 -0.0189
 4438TIP3    H134729   1.980   4.092   0.939 -1.5702  0.9469 -0.5421
 4438TIP3    H234730   2.052   4.188   0.847  0.3223 -0.2258 -0.3183
 4439TIP3   OH234731   4.973   2.313   1.066  0.0797 -0.1990  0.1423
 4439TIP3    H134732   4.913   2.280   1.134 -0.9295  0.0715 -0.6053
 4439TIP3    H234733   5.059   2.312   1.108 -0.1412 -2.4296  0.6120
 4440TIP3   OH234734   5.880   3.817  15.112  0.2388  0.2817 -0.0872
 4440TIP3    H134735   5.972   3.807  15.137  0.1096  1.9703  1.1509
 4440TIP3    H234736   5.837   3.851  15.190 -1.3529 -0.0021 -0.8126
 4441TIP3   OH234737   2.589   5.127  11.936 -0.2345  0.3513 -0.6043
 4441TIP3    H134738   2.500   5.137  11.904 -0.2631 -0.5215 -0.8129
 4441TIP3    H234739   2.611   5.036  11.917  1.1011  0.8724 -1.5955
 4442TIP3   OH234740   1.303   5.431  15.684  0.1474  0.3027  0.0330
 4442TIP3    H134741   1.264   5.410  15.769  1.4605  0.6452  0.7302
 4442TIP3    H234742   1.360   5.357  15.665  0.1721  0.4222 -0.3527
 4443TIP3   OH234743   2.473   2.690  13.034 -0.1738  0.0626 -0.6030
 4443TIP3    H134744   2.457   2.615  12.977  1.2048 -1.8086  1.3616
 4443TIP3    H234745   2.419   2.673  13.111 -0.7762  1.7234 -0.6462
 4444TIP3   OH234746   4.028   5.135  12.680 -0.0226 -0.3123 -0.2515
 4444TIP3    H134747   3.998   5.123  12.770  1.2043 -1.6629 -0.0075
 4444TIP3    H234748   3.951   5.168  12.633 -0.5262  0.9110  1.3837
 4445TIP3   OH234749   1.246   1.628  15.652  0.0082  0.5470 -0.3252
 4445TIP3    H134750   1.179   1.593  15.711 -1.2468  0.8564 -1.5358
 4445TIP3    H234751   1.205   1.628  15.566  0.8913  2.5355 -0.7869
 4446TIP3   OH234752   4.510   4.800   3.327 -0.5390 -0.5676 -0.0934
 4446TIP3    H134753   4.525   4.745   3.250  1.2541 -0.6181  0.2650
 4446TIP3    H234754   4.517   4.739   3.401 -1.4413 -0.3687  0.1577
 4447TIP3   OH234755   5.432   2.190   3.953 -0.0024 -0.0103  0.1537
 4447TIP3    H134756   5.425   2.275   3.996  1.4559 -0.6550  1.7463
 4447TIP3    H234757   5.523   2.164   3.966 -0.5114 -1.9782 -0.0233
 4448TIP3   OH234758   5.751   6.356   0.269  0.6610  0.0428  0.2552
 4448TIP3    H134759   5.725   6.312   0.188  2.5604  0.0747 -0.3962
 4448TIP3    H234760   5.676   6.345   0.328 -0.7507  0.0512 -1.5125
 4449TIP3   OH234761   2.881   4.361   3.630  0.2660 -0.0165  0.2121
 4449TIP3    H134762   2.955   4.420   3.619 -0.3455  0.8941  0.8522
 4449TIP3    H234763   2.823   4.407   3.691 -0.4627 -1.0518  0.3150
 4450TIP3   OH234764   3.550   5.108   3.691 -0.7012 -0.5002  0.1959
 4450TIP3    H134765   3.611   5.106   3.764  0.0148 -1.4009 -0.4170
 4450TIP3    H234766   3.503   5.191   3.701 -0.9237 -0.8305  1.9224
 4451TIP3   OH234767   0.315   2.851  15.995  0.0604  0.0628  0.4074
 4451TIP3    H134768   0.336   2.800  15.917  1.2072 -0.5794  1.1224
 4451TIP3    H234769   0.263   2.791  16.049 -0.9240  0.5816  0.0525
 4452TIP3   OH234770   4.986   2.020  11.729  0.0369  0.2436 -0.0222
 4452TIP3    H134771   5.035   1.939  11.740 -1.1180 -0.3567  0.8729
 4452TIP3    H234772   4.952   2.017  11.640 -0.3964 -0.4944  0.1629
 4453TIP3   OH234773   5.382   2.727   1.474  0.3699  0.6091 -0.5949
 4453TIP3    H134774   5.377   2.794   1.407 -1.9705 -0.0673 -1.1305
 4453TIP3    H234775   5.362   2.773   1.556  1.2819  1.0378 -0.6020
 4454TIP3   OH234776   1.851   3.767   6.719  1.0659 -0.0850 -0.2543
 4454TIP3    H134777   1.920   3.708   6.750  1.0546  0.2805  0.4754
 4454TIP3    H234778   1.841   3.745   6.627  0.1735 -2.1309  0.2811
 4455TIP3   OH234779   5.447   0.222  12.402 -0.2411 -0.3247 -0.1121
 4455TIP3    H134780   5.398   0.187  12.477 -0.2418 -2.2455 -0.9862
 4455TIP3    H234781   5.524   0.264  12.442 -1.0888  0.1462  1.0658
 4456TIP3   OH234782   0.716   3.267  14.676  0.1681  0.0130  0.5562
 4456TIP3    H134783   0.741   3.215  14.600 -0.4940  0.0144  0.3334
 4456TIP3    H234784   0.799   3.293  14.716  0.5129 -0.6627  0.2938
 4457TIP3   OH234785   0.274   4.889   5.692 -0.5882 -0.7956 -0.1607
 4457TIP3    H134786   0.350   4.840   5.723  2.0220  2.1849 -1.4817
 4457TIP3    H234787   0.241   4.934   5.770  1.0522  0.4570 -0.1678
 4458TIP3   OH234788   0.149   2.899  12.334  0.1132 -0.4294  0.4031
 4458TIP3    H134789   0.172   2.964  12.268 -0.3756 -1.7459 -1.0816
 4458TIP3    H234790   0.064   2.927  12.367  0.9132  0.9208  1.4018
 4459TIP3   OH234791   5.723   4.079   1.640 -0.0355  0.1718  0.6520
 4459TIP3    H134792   5.680   4.134   1.575 -0.8953  0.2647  1.2927
 4459TIP3    H234793   5.684   3.992   1.626 -0.6946  0.3329  1.4631
 4460TIP3   OH234794   0.527   5.367  14.042 -0.1367 -0.1569 -0.2712
 4460TIP3    H134795   0.440   5.387  14.007 -0.3524 -0.6259 -0.0062
 4460TIP3    H234796   0.512   5.300  14.108 -0.0705  2.7937  2.8402
 4461TIP3   OH234797   1.779   4.203  13.724 -0.1870  0.3742 -0.8374
 4461TIP3    H134798   1.840   4.178  13.654 -1.3252 -0.8770 -1.4063
 4461TIP3    H234799   1.726   4.273  13.685  0.9782  1.5890 -0.2829
 4462TIP3   OH234800   4.402   3.536  13.714 -0.6673 -0.1975  0.2998
 4462TIP3    H134801   4.456   3.614  13.725  1.1252 -1.3919  0.1633
 4462TIP3    H234802   4.315   3.570  13.693  0.0339  1.7599  0.4605
 4463TIP3   OH234803   0.019   2.948  13.223 -0.0756 -0.0108 -0.0566
 4463TIP3    H134804   0.072   2.959  13.303 -0.4119 -0.0868  0.1756
 4463TIP3    H234805   0.081   2.914  13.159  0.6640  1.8902 -0.3874
 4464TIP3   OH234806   6.224   2.105  14.933 -0.0881  0.3520  0.2392
 4464TIP3    H134807   6.177   2.176  14.977  0.8769  0.3883  1.2139
 4464TIP3    H234808   6.252   2.047  15.004 -1.5222 -1.4198 -0.5983
 4465TIP3   OH234809   1.784   4.612  13.455  0.2255 -0.0480 -0.2189
 4465TIP3    H134810   1.834   4.599  13.374 -0.7392 -1.2061 -0.6429
 4465TIP3    H234811   1.706   4.659  13.428  0.6147  0.9179  0.2991
 4466TIP3   OH234812   6.332   0.832   1.632  0.0532 -0.3062 -0.5455
 4466TIP3    H134813   6.360   0.888   1.704  0.8157 -1.0245 -0.2780
 4466TIP3    H234814   6.339   0.887   1.554  0.6468  0.0105 -0.2643
 4467TIP3   OH234815   5.517   4.589  14.746  0.3095  0.2798 -0.0574
 4467TIP3    H134816   5.543   4.567  14.656 -0.3463 -0.4557 -0.0776
 4467TIP3    H234817   5.467   4.670  14.737  1.2634  0.8568 -0.2060
 4468TIP3   OH234818   5.403   1.200  11.152 -1.0166  0.0435  0.1262
 4468TIP3    H134819   5.487   1.235  11.122  0.0082 -0.8408  1.8934
 4468TIP3    H234820   5.425   1.148  11.229 -3.1960 -0.2300  0.5869
 4469TIP3   OH234821   4.928   2.776  13.720  0.4139 -0.1761  0.8496
 4469TIP3    H134822   4.945   2.701  13.777  0.4788  0.6027  1.8646
 4469TIP3    H234823   5.015   2.810  13.699  0.4281 -0.8744 -0.3013
 4470TIP3   OH234824   4.164   2.831   5.474  0.2122 -0.0445  0.1451
 4470TIP3    H134825   4.077   2.821   5.437  0.9467 -0.1074 -1.6230
 4470TIP3    H234826   4.178   2.926   5.476  0.4114 -0.0608 -0.3427
 4471TIP3   OH234827   1.061   3.312   4.892 -0.6649  0.0027  0.1689
 4471TIP3    H134828   1.108   3.394   4.878 -1.1396  0.1984 -0.2851
 4471TIP3    H234829   1.105   3.272   4.968 -0.0296  0.3707  0.0019
 4472TIP3   OH234830   2.151   1.889   1.485 -0.2225 -0.1153  0.1219
 4472TIP3    H134831   2.165   1.841   1.567  0.3891 -0.0988  0.0240
 4472TIP3    H234832   2.116   1.973   1.513 -0.8885 -0.4490  0.3170
 4473TIP3   OH234833   1.794   0.825  16.806  0.4272  0.3978  0.7982
 4473TIP3    H134834   1.737   0.749  16.820  1.4384 -0.0603  2.6990
 4473TIP3    H234835   1.735   0.893  16.773 -0.2919 -1.5266 -2.1421
 4474TIP3   OH234836   2.823   5.048   2.433 -0.1763  0.1259  0.1614
 4474TIP3    H134837   2.770   5.006   2.501  0.0617 -0.5429 -0.0617
 4474TIP3    H234838   2.913   5.025   2.456  0.0363  1.3439  0.6008
 4475TIP3   OH234839   0.782   1.195   4.728 -0.3982  0.2055  0.0908
 4475TIP3    H134840   0.834   1.270   4.699 -0.8775  0.3450 -0.4208
 4475TIP3    H234841   0.735   1.167   4.650  0.6534 -1.3544  0.0112
 4476TIP3   OH234842   2.322   0.276   2.095  0.5115  0.4831 -0.2737
 4476TIP3    H134843   2.324   0.371   2.085 -1.3999  0.5943  0.2786
 4476TIP3    H234844   2.406   0.255   2.135  0.3239  2.1119  1.0461
 4477TIP3   OH234845   3.769   4.915   4.631 -0.0937 -0.1011  0.0438
 4477TIP3    H134846   3.801   4.997   4.668 -0.8196  0.5663 -0.7849
 4477TIP3    H234847   3.804   4.914   4.542 -1.4982  0.1361 -0.5225
 4478TIP3   OH234848   5.193   3.883  12.306  0.0231 -0.4235 -0.6791
 4478TIP3    H134849   5.119   3.862  12.250  0.6059  0.3150 -1.7277
 4478TIP3    H234850   5.236   3.957  12.264  0.0068  0.6645  1.1622
 4479TIP3   OH234851   6.309   5.098   4.023 -1.0078 -1.1423 -0.0529
 4479TIP3    H134852   6.285   5.149   4.100  0.1885 -0.0727 -0.3697
 4479TIP3    H234853   6.259   5.138   3.951  1.1643  0.6596 -0.5941
 4480TIP3   OH234854   5.856   5.865  16.493 -0.3709  0.4330  0.2191
 4480TIP3    H134855   5.768   5.853  16.458 -0.2559  1.2074 -0.3521
 4480TIP3    H234856   5.858   5.956  16.523  1.3419  1.5832 -3.0836
 4481TIP3   OH234857   1.449   2.959   3.459  0.1732 -0.0684 -0.4809
 4481TIP3    H134858   1.404   2.887   3.504 -0.1969 -0.7593 -1.9303
 4481TIP3    H234859   1.536   2.960   3.498 -0.2582 -0.4085  0.5147
 4482TIP3   OH234860   6.046   2.717  10.851 -0.3753  0.1654  0.4244
 4482TIP3    H134861   5.955   2.688  10.848 -0.3157 -0.1774  1.7906
 4482TIP3    H234862   6.073   2.719  10.759 -1.7236  0.1691  0.0171
 4483TIP3   OH234863   0.449   0.322  10.188 -0.2594  0.1702  0.0036
 4483TIP3    H134864   0.541   0.316  10.216  0.2920 -1.6546 -2.0665
 4483TIP3    H234865   0.452   0.374  10.108 -0.8424 -1.0235 -0.8056
 4484TIP3   OH234866   6.242   1.032   4.346  0.6291 -0.2878  0.6608
 4484TIP3    H134867   6.223   1.117   4.308 -0.1072 -0.8595 -0.2915
 4484TIP3    H234868   6.306   0.992   4.286 -2.2031 -2.0971 -1.3219
 4485TIP3   OH234869   1.877   6.550  13.449  0.5076 -0.5482 -0.7234
 4485TIP3    H134870   1.872   6.456  13.468 -1.0758 -0.4248 -0.4435
 4485TIP3    H234871   1.788   6.582  13.462  0.8738  0.8627 -1.5378
 4486TIP3   OH234872   4.069   4.396  11.445  0.0139 -0.0330 -0.7071
 4486TIP3    H134873   4.028   4.371  11.528 -0.3610 -0.3668 -0.9893
 4486TIP3    H234874   4.132   4.325  11.428  0.9130  0.6214 -0.1317
 4487TIP3   OH234875   3.902   5.412   4.893 -0.2375  0.3860  0.1124
 4487TIP3    H134876   3.808   5.394   4.888 -0.3121  0.7111  0.2883
 4487TIP3    H234877   3.933   5.357   4.965 -0.4384  0.8549  0.5626
 4488TIP3   OH234878   6.049   5.472  12.029  0.0888  0.0180  0.1056
 4488TIP3    H134879   6.046   5.486  12.124 -0.8352 -2.1871  0.4279
 4488TIP3    H234880   6.032   5.559  11.992 -0.8152  0.6701  1.9661
 4489TIP3   OH234881   5.322   6.410   5.093  0.0046  0.1845 -0.0286
 4489TIP3    H134882   5.302   6.501   5.074 -0.2866  0.1568  0.1484
 4489TIP3    H234883   5.375   6.381   5.018 -0.0146  0.4575 -0.1490
 4490TIP3   OH234884   6.332   4.305  16.689  0.1464 -0.7512 -0.0809
 4490TIP3    H134885   6.280   4.261  16.621  1.3632 -1.4647 -0.5656
 4490TIP3    H234886   6.355   4.389  16.651 -0.7148 -0.3996  0.1682
 4491TIP3   OH234887   2.979   1.938   0.782 -0.7410 -0.4646 -0.1048
 4491TIP3    H134888   2.998   2.028   0.809  0.2020 -0.1925 -1.6313
 4491TIP3    H234889   2.932   1.947   0.699 -2.2953 -1.3408  0.6463
 4492TIP3   OH234890   1.298   3.131  13.031 -0.2665 -0.6600 -0.3939
 4492TIP3    H134891   1.268   3.103  12.944 -1.2811 -1.6263  0.2488
 4492TIP3    H234892   1.357   3.061  13.059 -0.9889 -1.0040  0.2545
 4493TIP3   OH234893   4.967   3.254   3.556  0.6061 -0.3368  0.0283
 4493TIP3    H134894   4.876   3.247   3.585 -0.0333 -0.0355 -1.9003
 4493TIP3    H234895   4.987   3.168   3.518  1.1307 -0.3935  0.4164
 4494TIP3   OH234896   4.058   4.787   2.258 -0.1936  0.4394  0.4601
 4494TIP3    H134897   4.133   4.766   2.313 -0.4681  1.6795  1.3349
 4494TIP3    H234898   3.982   4.755   2.307 -0.1724 -2.0141 -1.0247
 4495TIP3   OH234899   6.019   4.887  15.046 -0.3151  0.5489 -0.1117
 4495TIP3    H134900   6.085   4.912  15.110 -0.8555  1.6277  0.0319
 4495TIP3    H234901   6.061   4.820  14.992  0.0460 -0.5605  1.5343
 4496TIP3   OH234902   0.190   2.001   5.630  0.0267 -0.1207 -0.4541
 4496TIP3    H134903   0.203   2.085   5.587 -1.2633 -0.3524 -1.3269
 4496TIP3    H234904   0.261   1.995   5.694  2.0775  0.1754 -2.6249
 4497TIP3   OH234905   0.949   1.103  17.043 -0.3160  0.1180 -0.0724
 4497TIP3    H134906   1.029   1.079  17.090  0.8660  2.7361 -0.6612
 4497TIP3    H234907   0.884   1.117  17.111  0.1907 -0.3395  0.5113
 4498TIP3   OH234908   0.508   6.141  16.758 -0.0384  0.7690 -0.0302
 4498TIP3    H134909   0.476   6.066  16.808  2.4599 -0.9233 -0.8330
 4498TIP3    H234910   0.479   6.123  16.668 -1.5873  2.0662  0.1936
 4499TIP3   OH234911   1.164   4.993  11.533 -0.6265  0.3953  0.5389
 4499TIP3    H134912   1.074   4.965  11.548 -0.1390 -1.3287  0.3357
 4499TIP3    H234913   1.216   4.946  11.599  0.5044 -1.0960 -1.3436
 4500TIP3   OH234914   2.124   3.840   5.267 -0.1047  0.4142 -0.3164
 4500TIP3    H134915   2.126   3.857   5.361 -1.3905  0.7600 -0.3362
 4500TIP3    H234916   2.174   3.912   5.228 -1.7668  1.7259 -0.0804
 4501TIP3   OH234917   2.972   2.934   3.818 -0.2330  0.4002 -0.0108
 4501TIP3    H134918   2.959   2.885   3.899 -0.4046 -0.3676 -0.4974
 4501TIP3    H234919   3.063   2.963   3.822 -0.5148  1.1950  0.9003
 4502TIP3   OH234920   3.587   2.340  16.200 -0.2514  0.1715 -0.2430
 4502TIP3    H134921   3.677   2.349  16.232 -1.0276  0.8086  1.8874
 4502TIP3    H234922   3.595   2.339  16.105  1.9769  0.5694 -0.0938
 4503TIP3   OH234923   1.349   5.657  15.170  0.0212 -0.2624  0.4126
 4503TIP3    H134924   1.438   5.648  15.135 -0.0596  0.1104  0.1090
 4503TIP3    H234925   1.346   5.596  15.244 -0.4049 -2.4211 -1.3459
 4504TIP3   OH234926   1.839   0.522   2.445  0.4063 -0.3747 -0.1310
 4504TIP3    H134927   1.838   0.580   2.369 -0.3549 -1.3082 -0.8487
 4504TIP3    H234928   1.748   0.498   2.458  0.6817 -1.2076  0.3074
 4505TIP3   OH234929   2.386   6.742   2.433 -0.1594  0.0718 -0.4903
 4505TIP3    H134930   2.422   6.669   2.382  0.4783 -1.9756  2.7771
 4505TIP3    H234931   2.291   6.735   2.421 -0.0527 -0.8048 -0.8536
 4506TIP3   OH234932   0.848   5.726   6.032  0.2877  0.0583 -0.0107
 4506TIP3    H134933   0.920   5.781   6.062  0.5373  0.4806 -1.3236
 4506TIP3    H234934   0.769   5.769   6.064  0.5220  0.7750 -0.3956
 4507TIP3   OH234935   1.587   1.803  15.540 -0.1596  0.1467  0.0649
 4507TIP3    H134936   1.653   1.773  15.603 -1.1475 -1.2179  0.4730
 4507TIP3    H234937   1.521   1.846  15.595 -0.1612  0.5127 -0.2256
 4508TIP3   OH234938   0.686   1.270   5.042  0.2942 -0.9561  0.7098
 4508TIP3    H134939   0.713   1.350   4.995  0.4844 -1.1848  0.4242
 4508TIP3    H234940   0.631   1.223   4.979  0.7795 -1.4004  0.6055
 4509TIP3   OH234941   0.791   0.971   3.375 -0.2297  0.1904  0.5530
 4509TIP3    H134942   0.864   1.007   3.325 -0.3349  0.1332  0.3609
 4509TIP3    H234943   0.771   0.887   3.333 -0.8146  0.4928  0.2198
 4510TIP3   OH234944   0.822   5.521   0.392  0.2090  0.4027 -0.3417
 4510TIP3    H134945   0.845   5.429   0.407  0.6469  0.5571 -0.0612
 4510TIP3    H234946   0.756   5.518   0.322  0.1509 -0.1301 -0.2647
 4511TIP3   OH234947   3.648   2.084  12.099 -0.0524  0.1423 -0.0839
 4511TIP3    H134948   3.695   2.083  12.183 -0.1848 -1.4705 -0.0128
 4511TIP3    H234949   3.606   1.998  12.094  1.5206 -0.5253 -2.6792
 4512TIP3   OH234950   3.436   4.664  13.060  0.2431  0.7643  0.4019
 4512TIP3    H134951   3.423   4.729  12.991  1.0169 -0.0072 -0.4682
 4512TIP3    H234952   3.468   4.587  13.015  2.4116  0.7950  1.8336
 4513TIP3   OH234953   4.665   4.676   5.388 -0.1276  0.3454 -0.0507
 4513TIP3    H134954   4.745   4.694   5.338 -0.4214 -0.6921 -0.9072
 4513TIP3    H234955   4.694   4.620   5.460 -0.1723 -0.6003 -0.7497
 4514TIP3   OH234956   3.651   4.752   5.015 -0.7748  0.5528 -0.7518
 4514TIP3    H134957   3.653   4.771   5.109  0.0453 -1.1791 -0.4145
 4514TIP3    H234958   3.708   4.819   4.977  2.2063 -1.2157  0.4547
 4515TIP3   OH234959   5.897   2.910   1.010  0.3293 -0.1621 -0.5989
 4515TIP3    H134960   5.859   2.823   1.022 -0.6006  0.0171 -2.0858
 4515TIP3    H234961   5.831   2.958   0.959  2.1866  0.4055 -2.5506
 4516TIP3   OH234962   6.050   4.681   4.735  0.7041 -0.1044 -0.7582
 4516TIP3    H134963   6.136   4.688   4.693 -0.0481  0.4670 -2.2547
 4516TIP3    H234964   6.043   4.590   4.763  2.0937  0.0240  0.0278
 4517TIP3   OH234965   0.647   4.592  14.466 -0.9577  0.3128  0.1540
 4517TIP3    H134966   0.629   4.642  14.387 -0.0005  1.3454  0.5803
 4517TIP3    H234967   0.743   4.597  14.476 -1.0597  0.0388  1.2720
 4518TIP3   OH234968   3.575   5.039  14.374 -0.4310  0.0768  0.3898
 4518TIP3    H134969   3.492   5.064  14.414 -1.5228 -0.2112 -1.6300
 4518TIP3    H234970   3.634   5.112  14.393 -0.8551 -0.1498  2.6628
 4519TIP3   OH234971   1.005   3.954  13.288  0.3557  0.5644  0.5346
 4519TIP3    H134972   1.075   3.969  13.224  0.0414 -1.2442 -0.2450
 4519TIP3    H234973   0.970   3.868  13.265 -1.5027  1.0584  1.5063
 4520TIP3   OH234974   4.605   6.302   1.504 -0.2758  0.3746  0.0584
 4520TIP3    H134975   4.571   6.235   1.443 -0.6146  0.3344  0.2917
 4520TIP3    H234976   4.661   6.358   1.449  2.4259 -1.8380  0.4161
 4521TIP3   OH234977   4.175   2.332   4.969 -0.2728  0.4885 -0.4233
 4521TIP3    H134978   4.184   2.319   4.875 -0.6124  0.0878 -0.4001
 4521TIP3    H234979   4.218   2.416   4.986 -1.5120  1.2978 -1.1661
 4522TIP3   OH234980   0.796   0.829   3.651 -0.0459 -0.8909 -0.4091
 4522TIP3    H134981   0.724   0.771   3.625  0.9356 -1.9775 -0.7135
 4522TIP3    H234982   0.818   0.877   3.572 -1.9307  1.0852  0.2279
 4523TIP3   OH234983   2.967   4.208   6.073  0.0252  0.5452 -0.3600
 4523TIP3    H134984   2.997   4.260   5.999  3.0802  0.5004  0.7824
 4523TIP3    H234985   2.965   4.268   6.147  1.9794 -0.5526  0.6152
 4524TIP3   OH234986   2.968   4.077  15.185  0.9188  0.6017 -0.2067
 4524TIP3    H134987   2.932   4.162  15.157 -0.0033 -0.0551 -1.0656
 4524TIP3    H234988   2.997   4.036  15.103 -2.0495 -1.4733 -0.2918
 4525TIP3   OH234989   6.682   4.396  15.186 -0.1048 -0.2055 -0.1155
 4525TIP3    H134990   6.722   4.341  15.118 -0.0853  1.8300 -1.7816
 4525TIP3    H234991   6.752   4.457  15.211 -0.7909  0.4602  0.1857
 4526TIP3   OH234992   2.370   4.912   2.387  0.3034 -0.0824  0.6936
 4526TIP3    H134993   2.461   4.885   2.376 -0.6533 -2.9062 -0.8676
 4526TIP3    H234994   2.360   4.988   2.330  1.1241 -1.1204 -0.8530
 4527TIP3   OH234995   1.256   3.932   6.281 -0.3748  0.4382  0.0111
 4527TIP3    H134996   1.178   3.877   6.288  0.8166 -1.2675 -0.0184
 4527TIP3    H234997   1.238   4.007   6.338 -2.1655  0.2358 -0.2679
 4528TIP3   OH234998   3.676   3.318  14.411  0.8268 -0.0651 -0.1965
 4528TIP3    H134999   3.646   3.310  14.320 -1.4826  2.4274  0.2879
 4528TIP3    H235000   3.629   3.248  14.457  0.3620  0.0220 -0.5341
 4529TIP3   OH235001   1.964   2.459  11.725  0.0411  0.2762 -0.4811
 4529TIP3    H135002   1.997   2.525  11.665  1.4780  0.2825  0.2829
 4529TIP3    H235003   1.974   2.376  11.678  1.2391  0.2713 -0.2440
 4530TIP3   OH235004   1.720   6.064  16.286  0.2746 -0.2682  0.2529
 4530TIP3    H135005   1.776   6.130  16.245 -0.1491  0.2560  0.5122
 4530TIP3    H235006   1.638   6.069  16.238 -0.2575  0.4219  1.2318
 4531TIP3   OH235007   0.773   3.884  14.343  0.2497 -0.4027  0.0470
 4531TIP3    H135008   0.749   3.869  14.252  1.4274 -2.3990  0.0201
 4531TIP3    H235009   0.837   3.815  14.362  2.2396  1.7486  1.5093
 4532TIP3   OH235010   5.259   2.027  17.089 -0.3975 -0.0529  0.5053
 4532TIP3    H135011   5.197   1.957  17.109 -0.3266  0.3328  2.1822
 4532TIP3    H235012   5.343   1.994  17.121 -0.2416  0.5303  0.7009
 4533TIP3   OH235013   5.025   0.839   1.148  0.0221  1.0717 -0.0446
 4533TIP3    H135014   4.943   0.830   1.197 -0.7653  1.3359 -1.2797
 4533TIP3    H235015   5.016   0.922   1.102  0.5493  0.6233 -0.9704
 4534TIP3   OH235016   3.039   4.621  16.221 -0.2506 -0.3166 -0.1144
 4534TIP3    H135017   2.996   4.673  16.153 -0.3390 -0.8416 -0.4610
 4534TIP3    H235018   3.127   4.659  16.227  0.6504 -1.9464 -2.3928
 4535TIP3   OH235019   1.359   5.548   5.122  0.0046 -0.2454 -0.2683
 4535TIP3    H135020   1.389   5.460   5.098  0.4509 -0.8389  2.3063
 4535TIP3    H235021   1.439   5.599   5.130 -0.0448 -0.3525  1.0055
 4536TIP3   OH235022   0.276   3.421  16.012 -0.3247  0.5376  0.1573
 4536TIP3    H135023   0.360   3.375  16.019  0.8083  2.8048  2.0945
 4536TIP3    H235024   0.300   3.512  15.997 -2.4839  1.0629 -0.2386
 4537TIP3   OH235025   2.742   1.967   5.107  0.2318  0.4764 -0.1026
 4537TIP3    H135026   2.661   1.932   5.145  0.3075 -0.9614 -1.2304
 4537TIP3    H235027   2.740   2.060   5.129 -1.6115  0.4166  0.0782
 4538TIP3   OH235028   5.304   5.360  15.486 -0.5042  0.0499  0.3307
 4538TIP3    H135029   5.314   5.432  15.424  2.5706  0.4845  1.2423
 4538TIP3    H235030   5.260   5.400  15.561 -1.4996  0.2448 -0.3450
 4539TIP3   OH235031   3.629   4.519  16.452 -0.9013  0.1651 -0.3621
 4539TIP3    H135032   3.699   4.575  16.486 -0.4642  0.0126 -0.9965
 4539TIP3    H235033   3.616   4.452  16.519 -0.5420  0.2837 -0.1765
 4540TIP3   OH235034   5.019   2.434  14.028  0.3527  0.2870 -0.4836
 4540TIP3    H135035   4.956   2.494  14.070  3.4877  3.2788  0.1532
 4540TIP3    H235036   5.045   2.480  13.948  1.3850 -1.1178 -0.9689
 4541TIP3   OH235037   3.873   0.456   5.323 -0.1623 -0.2726  0.3301
 4541TIP3    H135038   3.897   0.427   5.411  0.3614  0.6254  0.4910
 4541TIP3    H235039   3.919   0.539   5.312  1.0286 -1.1291 -1.3858
 4542TIP3   OH235040   1.838   0.111  11.178 -0.4087 -0.2894  0.2197
 4542TIP3    H135041   1.805   0.199  11.159 -0.6799 -0.4513 -0.0668
 4542TIP3    H235042   1.828   0.101  11.272 -1.2247 -0.3497  0.1362
 4543TIP3   OH235043   0.845   3.506   3.542 -0.2507  0.4869  0.2534
 4543TIP3    H135044   0.846   3.601   3.558  1.7373  0.5952 -0.3443
 4543TIP3    H235045   0.796   3.496   3.460 -0.3214  1.0112  0.2286
 4544TIP3   OH235046   4.816   1.890   4.762  0.0747 -0.1718  0.0160
 4544TIP3    H135047   4.834   1.943   4.683 -0.1503 -0.5674 -0.3005
 4544TIP3    H235048   4.844   1.802   4.738 -0.6403 -0.4295  0.1425
 4545TIP3   OH235049   0.243   1.744   3.451  0.0707 -0.0062 -0.2347
 4545TIP3    H135050   0.161   1.780   3.485  1.7167  3.1634  0.5706
 4545TIP3    H235051   0.291   1.716   3.529  0.1924 -0.9431 -0.6342
 4546TIP3   OH235052   5.629   6.217  11.322  0.1103 -0.7677 -0.1108
 4546TIP3    H135053   5.575   6.221  11.244 -0.6547  2.9491  0.4730
 4546TIP3    H235054   5.569   6.235  11.394  1.7492  2.0185  0.6839
 4547TIP3   OH235055   6.294   4.454  12.110  0.1117 -0.0870  0.3959
 4547TIP3    H135056   6.356   4.501  12.055  2.3622 -1.8716  1.3527
 4547TIP3    H235057   6.348   4.395  12.162 -2.2396 -0.4470  2.4900
 4548TIP3   OH235058   1.441   5.043  15.172  0.2531 -0.1000  0.3645
 4548TIP3    H135059   1.492   5.038  15.253 -0.6905 -1.0043  0.9161
 4548TIP3    H235060   1.494   4.996  15.108  0.3645 -0.5886  0.8044
 4549TIP3   OH235061   1.500   5.632   6.160  0.3584 -0.1500 -0.1957
 4549TIP3    H135062   1.523   5.539   6.151  1.3479  0.1978 -1.3469
 4549TIP3    H235063   1.518   5.652   6.252  2.9483 -0.3503 -0.6378
 4550TIP3   OH235064   2.385   2.997  14.116  0.4458 -0.3582  0.4066
 4550TIP3    H135065   2.441   3.058  14.164 -0.5268 -0.0470  1.1651
 4550TIP3    H235066   2.396   3.022  14.024  0.5918  0.5111  0.6522
 4551TIP3   OH235067   1.705   3.163   5.485 -0.2119  0.2822  0.1246
 4551TIP3    H135068   1.627   3.110   5.504 -0.5163  0.2487 -1.1325
 4551TIP3    H235069   1.678   3.253   5.501 -0.0190  0.1450  1.2382
 4552TIP3   OH235070   2.868   5.954  12.152  0.0985 -0.6188 -0.0816
 4552TIP3    H135071   2.798   5.888  12.156  0.3072 -0.9358 -1.3014
 4552TIP3    H235072   2.903   5.945  12.063  0.1544  1.1254 -0.2361
 4553TIP3   OH235073   6.092   6.019   1.417  0.2078 -0.1235  0.1937
 4553TIP3    H135074   6.105   5.940   1.365 -0.7807 -0.3281  0.2426
 4553TIP3    H235075   6.098   6.091   1.354 -1.3570 -0.3930 -0.2813
 4554TIP3   OH235076   4.180   0.315  10.885  0.0064  0.4585 -0.2450
 4554TIP3    H135077   4.201   0.222  10.874  0.8602  0.7506 -1.1677
 4554TIP3    H235078   4.097   0.316  10.933  0.4375 -0.7642  0.5413
 4555TIP3   OH235079   0.248   0.603  16.988 -0.0889  0.2053  0.2328
 4555TIP3    H135080   0.328   0.560  16.959  0.2182  0.1600  1.1340
 4555TIP3    H235081   0.265   0.627  17.079 -1.2379 -0.1673  0.5598
 4556TIP3   OH235082   6.412   4.299   1.040 -0.4726 -0.2794  0.6588
 4556TIP3    H135083   6.407   4.304   0.945 -0.5874 -2.8813  0.4922
 4556TIP3    H235084   6.491   4.349   1.063 -1.0681  1.3057 -0.6846
 4557TIP3   OH235085   5.801   0.184   5.158  0.5937 -0.4192  0.7093
 4557TIP3    H135086   5.792   0.278   5.173  0.3931 -0.0898 -1.3279
 4557TIP3    H235087   5.886   0.176   5.114  0.2102 -1.0788  0.0834
 4558TIP3   OH235088   4.408   5.837  11.590 -0.2986 -0.3400  0.2745
 4558TIP3    H135089   4.336   5.821  11.651 -1.1773 -1.6757 -1.0756
 4558TIP3    H235090   4.370   5.825  11.504  0.8345  1.9565 -0.5788
 4559TIP3   OH235091   1.109   5.594   2.933  0.0281  0.3183 -0.0631
 4559TIP3    H135092   1.151   5.576   3.017 -0.7310 -1.6161 -0.0713
 4559TIP3    H235093   1.179   5.631   2.879  1.7120 -2.5883  0.0081
 4560TIP3   OH235094   4.538   1.780  11.681  0.1330 -0.8596  0.0459
 4560TIP3    H135095   4.600   1.770  11.609  1.3789 -2.0351  1.2746
 4560TIP3    H235096   4.454   1.751  11.644  0.4991 -0.2720 -1.2938
 4561TIP3   OH235097   5.860   4.835   1.511  0.2158 -0.0639  0.1711
 4561TIP3    H135098   5.949   4.860   1.485 -0.4333  0.9397 -1.1276
 4561TIP3    H235099   5.871   4.798   1.598  1.9764 -0.3593 -0.1463
 4562TIP3   OH235100   0.873   5.149   2.330 -0.3841  0.1203 -0.2905
 4562TIP3    H135101   0.844   5.222   2.276 -0.5541  0.4343  0.2117
 4562TIP3    H235102   0.853   5.178   2.420 -1.3156 -0.9262 -0.1512
 4563TIP3   OH235103   6.328   2.619   0.939  0.6463 -0.2046 -0.6833
 4563TIP3    H135104   6.247   2.665   0.957  1.4411  0.3899  1.5090
 4563TIP3    H235105   6.393   2.688   0.925  1.0716 -0.6645 -1.0147
 4564TIP3   OH235106   1.853   4.149   4.272  0.3730 -0.4682  0.1866
 4564TIP3    H135107   1.853   4.122   4.181  0.8976  1.7193 -0.4815
 4564TIP3    H235108   1.946   4.153   4.296  0.4414  2.6688 -0.3590
 4565TIP3   OH235109   2.472   3.884  13.660 -0.2375 -0.2321  0.4062
 4565TIP3    H135110   2.466   3.799  13.703 -0.8514  0.5491  1.8937
 4565TIP3    H235111   2.564   3.892  13.634  0.4312 -0.1638  2.7431
 4566TIP3   OH235112   4.043   1.277  16.507  0.2580 -0.4303 -0.2581
 4566TIP3    H135113   4.061   1.348  16.568  2.4244 -1.3524  0.2324
 4566TIP3    H235114   4.018   1.203  16.563 -1.3382 -0.2783 -0.7288
 4567TIP3   OH235115   4.375   6.160  10.771  0.2328 -0.6595 -0.4263
 4567TIP3    H135116   4.308   6.106  10.814 -0.6971  0.0097 -0.9976
 4567TIP3    H235117   4.431   6.097  10.725  1.1364 -1.3654  1.5908
 4568TIP3   OH235118   2.100   2.604   5.104 -0.2064  0.2449  0.4655
 4568TIP3    H135119   2.035   2.566   5.164  0.6283  1.2677  2.0666
 4568TIP3    H235120   2.072   2.695   5.094  0.6373  0.5352  0.7036
 4569TIP3   OH235121   4.358   0.858  13.027 -0.1290 -0.4830  0.4295
 4569TIP3    H135122   4.337   0.818  12.943  3.1117 -2.6184  0.5239
 4569TIP3    H235123   4.387   0.946  13.005  2.6638 -1.6852 -0.9969
 4570TIP3   OH235124   2.233   4.489   1.022  0.4913 -0.2294  0.4993
 4570TIP3    H135125   2.271   4.411   1.063  0.2674  0.6806  2.4834
 4570TIP3    H235126   2.279   4.562   1.063 -0.4723  0.7377 -0.1264
 4571TIP3   OH235127   6.269   6.205  13.250  0.3051  0.0811  0.1265
 4571TIP3    H135128   6.180   6.170  13.249  0.3932 -0.1432 -1.2838
 4571TIP3    H235129   6.257   6.299  13.259 -0.1807  0.2758 -2.1908
 4572TIP3   OH235130   6.459   5.656   2.735 -0.9139 -0.3234  0.3600
 4572TIP3    H135131   6.403   5.722   2.776 -0.6014  0.9542 -1.2408
 4572TIP3    H235132   6.537   5.653   2.789 -0.1876  1.8791 -0.5019
 4573TIP3   OH235133   3.708   2.519   0.982 -0.3505  0.0059 -1.0310
 4573TIP3    H135134   3.680   2.571   1.058  0.0462  0.1112 -0.9540
 4573TIP3    H235135   3.758   2.447   1.020 -0.4568 -0.1415 -1.1719
 4574TIP3   OH235136   4.275   3.262  15.646  0.9083  0.5000  0.2565
 4574TIP3    H135137   4.231   3.231  15.725 -0.7998  1.1991 -0.4150
 4574TIP3    H235138   4.356   3.211  15.643 -0.4965 -1.8350  0.7327
 4575TIP3   OH235139   2.570   0.013  12.002  0.0823 -0.3120 -0.0327
 4575TIP3    H135140   2.522  -0.065  11.975 -3.9879  1.2444  2.2719
 4575TIP3    H235141   2.565   0.072  11.927 -0.1572 -0.8209 -0.4134
 4576TIP3   OH235142   6.406   5.774   4.630  0.0328 -0.3392  0.3243
 4576TIP3    H135143   6.333   5.780   4.691 -1.2277 -0.7158 -1.1222
 4576TIP3    H235144   6.473   5.725   4.677 -1.6000 -2.1875  0.7942
 4577TIP3   OH235145   2.125   6.134   3.733 -0.2209 -0.4875  0.3279
 4577TIP3    H135146   2.202   6.146   3.788  0.0714  0.8544 -0.3656
 4577TIP3    H235147   2.155   6.076   3.662  0.0302 -0.3053  0.2875
 4578TIP3   OH235148   0.622   5.972   2.339  0.1994  0.1261 -0.2453
 4578TIP3    H135149   0.582   5.927   2.413  1.0928 -0.2464  0.0245
 4578TIP3    H235150   0.553   6.028   2.304 -0.0292  0.8024  1.2689
 4579TIP3   OH235151   2.655   0.666  16.975  0.2877 -0.0195 -0.2995
 4579TIP3    H135152   2.584   0.634  17.032 -0.0046  0.9289 -0.1225
 4579TIP3    H235153   2.677   0.752  17.011  1.8450 -0.5007 -0.0795
 4580TIP3   OH235154   3.653   4.050  14.517  0.0374  0.3636 -0.1260
 4580TIP3    H135155   3.736   4.096  14.504  0.0723  0.9072  1.8780
 4580TIP3    H235156   3.666   4.000  14.598 -1.0797 -0.7291 -0.6102
 4581TIP3   OH235157   3.566   1.191  15.555  0.0318  0.0793 -0.0175
 4581TIP3    H135158   3.561   1.184  15.650 -0.4017  1.0614  0.0365
 4581TIP3    H235159   3.490   1.143  15.523  0.3816 -0.5689  0.1116
 4582TIP3   OH235160   1.683   0.948  15.998  0.2043  0.0572  0.5323
 4582TIP3    H135161   1.742   1.021  15.979  1.0828 -0.9303 -0.5954
 4582TIP3    H235162   1.595   0.985  15.988  0.6466  0.7502 -0.9356
 4583TIP3   OH235163   1.166   4.395  11.074 -0.1743  0.3847  0.5484
 4583TIP3    H135164   1.238   4.368  11.130  1.8577 -0.3014 -2.2519
 4583TIP3    H235165   1.116   4.315  11.058  0.6153  0.0842 -0.4774
 4584TIP3   OH235166   2.144   1.094   2.379 -0.2864 -0.0217 -0.1710
 4584TIP3    H135167   2.062   1.137   2.355  0.0207  1.7038  1.7340
 4584TIP3    H235168   2.212   1.149   2.339  0.0430  0.3132  0.8351
 4585TIP3   OH235169   2.927   1.198   3.775 -0.0205  0.4119 -0.5513
 4585TIP3    H135170   2.967   1.275   3.734 -2.5483  1.5576 -0.9584
 4585TIP3    H235171   2.892   1.147   3.702 -0.0095 -0.1851 -0.1419
 4586TIP3   OH235172   3.037   6.064  16.377  0.6316  0.3063 -0.2091
 4586TIP3    H135173   2.998   6.130  16.434 -0.0801  0.0411 -0.3913
 4586TIP3    H235174   3.127   6.056  16.408  0.4942  0.7939  0.3167
 4587TIP3   OH235175   5.125   5.504   6.768 -0.2657  0.0104  0.3733
 4587TIP3    H135176   5.091   5.481   6.682  0.3675  1.3463 -0.2461
 4587TIP3    H235177   5.065   5.571   6.801 -0.5586 -0.5601  1.0205
 4588TIP3   OH235178   1.222   0.764  13.996  0.4783  0.1740 -0.2976
 4588TIP3    H135179   1.198   0.724  14.079  1.6534  0.6676  0.2843
 4588TIP3    H235180   1.210   0.694  13.931 -0.6936 -0.1277  0.2397
 4589TIP3   OH235181   5.527   2.437  12.490 -0.1530  0.9139 -0.4626
 4589TIP3    H135182   5.464   2.479  12.549  0.0243  1.6778 -0.8157
 4589TIP3    H235183   5.503   2.344  12.492 -0.8751  1.1038 -0.0804
 4590TIP3   OH235184   1.146   2.057  14.857  0.0033 -0.4951 -0.2142
 4590TIP3    H135185   1.075   2.059  14.793  0.0832 -0.9744 -0.3217
 4590TIP3    H235186   1.102   2.060  14.942 -0.1178 -0.1868 -0.2892
 4591TIP3   OH235187   5.749   1.734  17.090 -0.4130  0.1844 -0.7503
 4591TIP3    H135188   5.760   1.825  17.062  0.8687  0.2844  0.0630
 4591TIP3    H235189   5.654   1.720  17.086 -0.6020  1.4540 -1.1908
 4592TIP3   OH235190   6.008   1.329   1.820  0.0097 -0.0203 -0.3475
 4592TIP3    H135191   6.033   1.258   1.761  0.1723 -0.1013 -0.1800
 4592TIP3    H235192   5.916   1.346   1.799  0.1123  0.0561 -0.7312
 4593TIP3   OH235193   1.173   3.936  15.336  0.9066  0.7412  0.0299
 4593TIP3    H135194   1.130   3.859  15.371  0.9165  0.0896 -1.3454
 4593TIP3    H235195   1.107   4.005  15.342 -0.8182 -0.5032 -3.0871
 4594TIP3   OH235196   5.200   5.693   3.317  0.0805  0.2416 -0.6585
 4594TIP3    H135197   5.275   5.687   3.376 -0.6858  0.5022  0.3735
 4594TIP3    H235198   5.213   5.623   3.253  1.1133  0.1892 -0.4008
 4595TIP3   OH235199   3.539   1.563  13.176  0.5255  0.2659  0.7881
 4595TIP3    H135200   3.529   1.530  13.087  1.9424 -2.1312  1.4748
 4595TIP3    H235201   3.493   1.647  13.176 -0.7290 -0.3793 -1.7987
 4596TIP3   OH235202   3.154   3.253  11.101 -0.0705 -0.2318 -0.3583
 4596TIP3    H135203   3.138   3.239  11.008 -0.6539 -1.0073 -0.1482
 4596TIP3    H235204   3.072   3.290  11.134  0.1540  0.0962 -0.1593
 4597TIP3   OH235205   2.486   5.454  13.556  0.6478 -0.1367 -0.4055
 4597TIP3    H135206   2.535   5.492  13.483  0.6651  0.1842 -0.2253
 4597TIP3    H235207   2.512   5.506  13.632  0.2499 -0.1553 -0.2575
 4598TIP3   OH235208   3.583   1.678  14.396 -0.3720 -0.0408  0.2172
 4598TIP3    H135209   3.670   1.693  14.358 -1.1280  0.5672 -1.3079
 4598TIP3    H235210   3.577   1.741  14.468  0.6583 -0.4673  0.6893
 4599TIP3   OH235211   4.212   2.951  14.877 -0.3887 -0.1189  0.2003
 4599TIP3    H135212   4.137   3.007  14.895 -0.4855 -0.1535 -0.0900
 4599TIP3    H235213   4.189   2.866  14.914 -0.2011  0.0567  0.7310
 4600TIP3   OH235214   1.271   0.098   0.920  0.0723 -0.5237  0.2081
 4600TIP3    H135215   1.257   0.192   0.927  1.1258 -0.2884 -0.6574
 4600TIP3    H235216   1.188   0.063   0.889 -0.4969  0.0524  1.0963
 4601TIP3   OH235217   2.995   2.220  12.397  0.0789  0.0609 -1.2273
 4601TIP3    H135218   3.066   2.253  12.343  1.2279  0.7451  0.6523
 4601TIP3    H235219   3.035   2.154  12.453 -0.6760  0.6631  0.0600
 4602TIP3   OH235220   2.079   3.895  15.189 -0.2406  0.6285 -0.0916
 4602TIP3    H135221   2.018   3.917  15.118  1.1764  0.2633 -1.4306
 4602TIP3    H235222   2.078   3.800  15.192  1.0476  0.5907 -0.8030
 4603TIP3   OH235223   0.946   5.962   1.316  0.1955  0.3914 -0.0447
 4603TIP3    H135224   0.902   5.884   1.349 -1.2659  1.5217  0.7667
 4603TIP3    H235225   1.040   5.943   1.325 -0.1483 -0.9797  0.7860
 4604TIP3   OH235226   6.039   4.284   5.452  0.1934  0.2048  0.0245
 4604TIP3    H135227   6.077   4.358   5.405  0.8886  0.4442  0.9390
 4604TIP3    H235228   6.102   4.265   5.522 -0.8587 -0.0636  0.9207
 4605TIP3   OH235229   1.641   4.125  11.071  0.2039  0.0968 -0.7218
 4605TIP3    H135230   1.598   4.165  10.996  1.9461 -0.0692 -1.8512
 4605TIP3    H235231   1.693   4.053  11.034 -0.0573 -0.9002  0.8261
 4606TIP3   OH235232   5.769   3.676  12.336 -0.2889  0.1995  0.9849
 4606TIP3    H135233   5.734   3.719  12.257  1.2787 -0.9583 -0.3695
 4606TIP3    H235234   5.821   3.744  12.379 -1.6381  1.0155  1.3575
 4607TIP3   OH235235   0.529   5.205  16.578  0.0412 -0.1378  0.2063
 4607TIP3    H135236   0.604   5.170  16.625 -0.6886 -0.5783  1.0725
 4607TIP3    H235237   0.469   5.234  16.647  0.6509  2.8738 -0.5063
 4608TIP3   OH235238   3.987   0.187  16.223 -0.2817 -0.2485 -0.3137
 4608TIP3    H135239   4.078   0.213  16.210 -0.1040 -0.8569 -0.2759
 4608TIP3    H235240   3.981   0.099  16.188 -0.9345 -0.0982 -0.5898
 4609TIP3   OH235241   3.747   1.508  16.888  0.3766 -0.1877  0.2910
 4609TIP3    H135242   3.782   1.592  16.861  0.7004 -0.4990 -0.2653
 4609TIP3    H235243   3.822   1.460  16.922  0.3824 -0.6336 -0.3457
 4610TIP3   OH235244   2.801   1.925  12.415  0.2024  0.8021  0.0714
 4610TIP3    H135245   2.884   1.889  12.447  1.4956  4.2103  0.7189
 4610TIP3    H235246   2.755   1.954  12.494 -0.6483  0.9480 -0.4664
 4611TIP3   OH235247   1.939   3.184  14.891  0.5639  0.4191 -0.0892
 4611TIP3    H135248   1.946   3.114  14.826 -0.0166  0.3026 -0.0310
 4611TIP3    H235249   1.855   3.227  14.871 -0.5209 -0.7991  1.7303
 4612TIP3   OH235250   2.794   2.311   0.767 -0.2644 -0.1774 -0.4845
 4612TIP3    H135251   2.879   2.277   0.797 -0.6177 -0.9724 -0.3681
 4612TIP3    H235252   2.786   2.277   0.677 -0.9225 -0.9668 -0.1342
 4613TIP3   OH235253   6.384   6.184   2.754  0.3309 -0.2321 -0.2913
 4613TIP3    H135254   6.395   6.182   2.659  0.5084 -0.2045 -0.2699
 4613TIP3    H235255   6.404   6.274   2.778 -1.6100  0.2746 -0.4725
 4614TIP3   OH235256   4.822   0.345  11.153  0.2241  0.6420 -0.0760
 4614TIP3    H135257   4.819   0.371  11.061 -2.3227 -0.4893 -0.3765
 4614TIP3    H235258   4.809   0.250  11.151 -1.0245  0.7547  1.4881
 4615TIP3   OH235259   0.721   5.890  13.995  0.4965  0.6295 -0.6252
 4615TIP3    H135260   0.678   5.804  13.992  0.7577  0.5295 -1.3448
 4615TIP3    H235261   0.814   5.871  14.003  0.4748  0.8515  0.2765
 4616TIP3   OH235262   3.400   2.840   0.775  0.1651 -0.1186 -0.5516
 4616TIP3    H135263   3.372   2.810   0.688  1.9037  0.9659 -1.5035
 4616TIP3    H235264   3.482   2.792   0.791  0.3683  0.4350  0.0618
 4617TIP3   OH235265   5.853   2.234  13.606 -0.1078  0.0002  0.0741
 4617TIP3    H135266   5.830   2.142  13.622  0.1574 -0.2659 -0.9942
 4617TIP3    H235267   5.820   2.281  13.682  2.1499 -1.3571  1.9488
 4618TIP3   OH235268   5.310   1.927   4.879  0.2152  0.1684 -0.2818
 4618TIP3    H135269   5.241   1.936   4.813  1.4383  1.7820 -1.3739
 4618TIP3    H235270   5.269   1.956   4.961 -0.1804  1.9028 -1.0685
 4619TIP3   OH235271   5.948   0.901  16.845 -0.0257 -0.1265 -0.6092
 4619TIP3    H135272   5.945   0.808  16.822 -0.5828 -0.2423 -0.0994
 4619TIP3    H235273   5.858   0.932  16.835 -0.2924 -0.1783  1.2946
 4620TIP3   OH235274   3.516   6.002  13.375 -0.2506 -0.2851 -0.3345
 4620TIP3    H135275   3.501   5.924  13.321 -0.1624 -0.3755 -0.2283
 4620TIP3    H235276   3.607   5.994  13.404  0.5073  1.0319 -2.2181
 4621TIP3   OH235277   5.976   1.256   3.818 -0.3708  0.2959  0.4902
 4621TIP3    H135278   6.014   1.333   3.860  0.7646 -0.4968  0.9314
 4621TIP3    H235279   5.951   1.286   3.730 -0.4432  1.2985  0.8496
 4622TIP3   OH235280   4.306   4.362   5.204  0.0854 -0.1179  0.1365
 4622TIP3    H135281   4.338   4.286   5.252 -1.3163 -0.7504  0.1034
 4622TIP3    H235282   4.307   4.433   5.268  1.8238 -0.0342  0.0460
 4623TIP3   OH235283   3.402   2.539  16.648  0.6591  0.3571 -0.4559
 4623TIP3    H135284   3.474   2.590  16.684 -0.5366  1.4589  0.4713
 4623TIP3    H235285   3.375   2.587  16.570  0.2353  0.5726 -0.1856
 4624TIP3   OH235286   3.862   3.932   0.435  0.1581 -0.8451 -0.4988
 4624TIP3    H135287   3.772   3.917   0.465 -0.2286  0.4379 -0.9833
 4624TIP3    H235288   3.867   4.026   0.421  1.6936 -0.8723 -0.1572
 4625TIP3   OH235289   6.330   1.674  11.245 -0.6681 -0.1016 -0.1844
 4625TIP3    H135290   6.239   1.665  11.216 -0.6181 -2.1144  0.2133
 4625TIP3    H235291   6.341   1.608  11.313  1.0213  0.2953 -0.0351
 4626TIP3   OH235292   3.618   6.172   2.965 -0.4142 -0.0425  0.4763
 4626TIP3    H135293   3.615   6.159   2.870 -0.9552 -2.0088  0.7541
 4626TIP3    H235294   3.708   6.153   2.989  0.1650  2.1430  0.1441
 4627TIP3   OH235295   4.796   2.324  16.764  0.0304 -0.1748  0.1427
 4627TIP3    H135296   4.759   2.400  16.810 -1.7645 -0.6529 -0.4782
 4627TIP3    H235297   4.857   2.363  16.700  0.7847  0.6077  1.3086
 4628TIP3   OH235298   4.482   2.643   0.082  0.0769  0.1193 -0.5706
 4628TIP3    H135299   4.515   2.557   0.055  0.7822  0.1496  0.1854
 4628TIP3    H235300   4.529   2.663   0.163 -0.4041  1.0249 -0.5045
 4629TIP3   OH235301   3.138   5.380   4.564  0.5520 -0.6015 -0.7229
 4629TIP3    H135302   3.103   5.331   4.639 -0.5738  0.3425 -0.6056
 4629TIP3    H235303   3.060   5.418   4.522  1.1916 -0.9609 -2.2518
 4630TIP3   OH235304   4.471   1.663  15.229  0.0555  0.0342  0.0913
 4630TIP3    H135305   4.499   1.614  15.306  0.5110 -0.2370 -0.2389
 4630TIP3    H235306   4.536   1.641  15.162  1.0553  2.1256  0.3127
 4631TIP3   OH235307   0.668   2.340  13.551  0.0293 -0.5941 -0.1325
 4631TIP3    H135308   0.743   2.304  13.600  0.6561  1.3867  0.4108
 4631TIP3    H235309   0.592   2.316  13.604  0.5953  0.3525  1.1581
 4632TIP3   OH235310   5.501   4.213   0.159 -0.2831  0.0740  0.4760
 4632TIP3    H135311   5.472   4.197   0.249  2.2057  1.8713  1.6399
 4632TIP3    H235312   5.453   4.291   0.132 -1.4035 -0.7480  0.0186
 4633TIP3   OH235313   3.464   6.431  14.592 -0.0349 -0.2966 -0.3989
 4633TIP3    H135314   3.518   6.465  14.521  1.8231 -1.0761  0.6138
 4633TIP3    H235315   3.504   6.347  14.615 -1.4742 -0.7332  0.6129
 4634TIP3   OH235316   1.522   4.409  15.641  0.7186 -0.4448 -0.6430
 4634TIP3    H135317   1.569   4.452  15.569 -0.3555 -0.0070 -1.0987
 4634TIP3    H235318   1.525   4.473  15.713  3.0532 -1.4663  0.2130
 4635TIP3   OH235319   2.151   6.163   0.768  0.4027  0.0251  0.2698
 4635TIP3    H135320   2.218   6.123   0.711  0.5090 -0.0700  0.4610
 4635TIP3    H235321   2.094   6.090   0.793  0.7053 -0.0400  0.7703
 4636TIP3   OH235322   3.249   0.544  12.996 -0.0921  0.0049  0.0855
 4636TIP3    H135323   3.302   0.471  12.964  0.8189  1.0942 -0.9332
 4636TIP3    H235324   3.174   0.546  12.936 -0.7726 -0.8638  0.8799
 4637TIP3   OH235325   2.036   5.592  12.106 -0.2720  0.1031 -0.4293
 4637TIP3    H135326   1.978   5.517  12.100 -2.1333  1.4104  0.5040
 4637TIP3    H235327   2.091   5.586  12.028 -2.6161 -0.4194 -2.1316
 4638TIP3   OH235328   5.950   6.435  10.529  0.2343  0.2853 -0.6861
 4638TIP3    H135329   6.008   6.389  10.590 -0.1152  1.5574  0.6260
 4638TIP3    H235330   5.887   6.368  10.501 -0.5102  0.0552  1.4960
 4639TIP3   OH235331   3.081   1.452   5.140  0.3173 -0.0972 -0.6144
 4639TIP3    H135332   3.078   1.540   5.103 -1.4527  0.4079  0.7040
 4639TIP3    H235333   2.999   1.411   5.112 -0.0191 -0.4570  0.8792
 4640TIP3   OH235334   3.216   2.009   4.432  0.5464  0.3093 -0.0132
 4640TIP3    H135335   3.146   1.961   4.388  2.4004  0.0612 -2.7999
 4640TIP3    H235336   3.219   1.971   4.520 -0.7545 -1.8090 -0.8432
 4641TIP3   OH235337   0.300   4.975   0.870 -0.4366  0.7839  0.7539
 4641TIP3    H135338   0.281   4.978   0.964 -2.8210 -0.6631  0.3522
 4641TIP3    H235339   0.268   5.058   0.837  0.2971  1.2481  1.1916
 4642TIP3   OH235340   6.064   5.594   6.409 -0.4407  0.3261 -0.0800
 4642TIP3    H135341   6.137   5.649   6.381 -0.6227  0.3566 -0.5000
 4642TIP3    H235342   6.032   5.636   6.489  0.3445  0.0012  0.4127
 4643TIP3   OH235343   5.463   4.495  10.802  0.0437 -0.6279  0.2659
 4643TIP3    H135344   5.543   4.513  10.851 -0.6469 -1.4275  1.7102
 4643TIP3    H235345   5.495   4.463  10.717  1.2453  0.3370  0.3306
 4644TIP3   OH235346   2.933   4.841  14.433  0.4035  0.3761 -0.1248
 4644TIP3    H135347   2.851   4.868  14.473  0.2067 -0.2072 -0.1408
 4644TIP3    H235348   2.962   4.918  14.384  0.3593  0.8983  0.6707
 4645TIP3   OH235349   3.589   6.663  15.618 -0.3914 -0.3785 -1.0675
 4645TIP3    H135350   3.646   6.735  15.646  0.3331 -1.7961  1.1918
 4645TIP3    H235351   3.500   6.696  15.635 -0.0346 -0.3501  0.8000
 4646TIP3   OH235352   5.862   4.936  16.662  0.0482  0.2396 -0.3354
 4646TIP3    H135353   5.903   4.945  16.748 -0.5631  0.2055 -0.0347
 4646TIP3    H235354   5.792   4.872  16.676  2.3701 -2.7304 -1.7068
 4647TIP3   OH235355   3.894   4.375  11.665 -0.4933 -0.2218  0.2397
 4647TIP3    H135356   3.909   4.290  11.706 -1.1088 -0.4560 -0.0101
 4647TIP3    H235357   3.798   4.383  11.661 -0.5390 -1.3744 -3.4838
 4648TIP3   OH235358   5.186   3.553  14.413  0.2888  0.3912 -0.8878
 4648TIP3    H135359   5.220   3.571  14.500 -0.3156 -0.5532 -0.4487
 4648TIP3    H235360   5.109   3.609  14.404  0.3372  0.4692 -0.8141
 4649TIP3   OH235361   6.562   6.033   3.685 -0.0336  0.1530 -0.0479
 4649TIP3    H135362   6.637   6.002   3.735 -0.5471  1.7176  1.7407
 4649TIP3    H235363   6.596   6.108   3.636  0.0726 -0.4105 -0.8462
 4650TIP3   OH235364   4.770   3.322  12.631  0.8866 -0.7792  0.0476
 4650TIP3    H135365   4.863   3.331  12.651  0.2540  0.0877  2.9689
 4650TIP3    H235366   4.734   3.410  12.644 -0.5904 -1.4462  0.6488
 4651TIP3   OH235367   5.402   6.052  14.392  0.2201  0.6974 -0.2689
 4651TIP3    H135368   5.322   6.071  14.442  0.1331 -1.2223  0.3631
 4651TIP3    H235369   5.465   6.024  14.458  1.5217  2.4272 -0.7394
 4652TIP3   OH235370   4.246   5.617  14.444 -0.1781 -0.3694 -0.1543
 4652TIP3    H135371   4.261   5.575  14.359 -0.6920  1.6772 -1.2887
 4652TIP3    H235372   4.156   5.651  14.438 -0.1982 -0.1717  1.1945
 4653TIP3   OH235373   4.934   4.406   1.073  0.2190  0.1280 -0.0439
 4653TIP3    H135374   4.966   4.322   1.107 -0.4185 -0.2390 -0.3525
 4653TIP3    H235375   5.013   4.449   1.039  0.7673  0.2216  1.2943
 4654TIP3   OH235376   2.787   5.028  16.668  0.2507  0.3791 -0.5999
 4654TIP3    H135377   2.709   5.033  16.613 -0.1796  0.8250  0.0383
 4654TIP3    H235378   2.858   5.008  16.607 -0.5031 -0.9506 -1.0695
 4655TIP3   OH235379   4.473   3.366  12.054  0.0925  0.0574  0.1041
 4655TIP3    H135380   4.440   3.292  12.004  0.9763  0.2993 -0.8507
 4655TIP3    H235381   4.434   3.356  12.141 -0.3158 -1.1504 -0.2149
 4656TIP3   OH235382   0.174   1.683  13.823  0.0214 -0.3349  0.2731
 4656TIP3    H135383   0.123   1.605  13.845 -0.2800 -0.4831 -0.9079
 4656TIP3    H235384   0.260   1.649  13.797  0.1297 -0.2169  0.4735
 4657TIP3   OH235385   3.470   6.272   5.209  0.0952 -0.1984 -0.3487
 4657TIP3    H135386   3.461   6.203   5.144 -0.0615  0.6420 -1.2238
 4657TIP3    H235387   3.557   6.310   5.194  0.7679 -1.1291  1.0522
 4658TIP3   OH235388   1.582   0.413   2.395 -0.4894  0.2066  0.7885
 4658TIP3    H135389   1.548   0.429   2.483 -1.7705 -1.1720  0.5724
 4658TIP3    H235390   1.516   0.451   2.337  0.9566  2.1991  0.4317
 4659TIP3   OH235391   2.821   0.259   4.514  0.3681 -0.2186 -0.2946
 4659TIP3    H135392   2.863   0.327   4.567  0.9996  0.6954 -1.9226
 4659TIP3    H235393   2.767   0.210   4.576 -0.6688  2.2100  0.8159
 4660TIP3   OH235394   3.088   2.206   5.810  0.2768 -0.5255 -0.4666
 4660TIP3    H135395   3.106   2.295   5.782 -1.0046  0.5800  2.0749
 4660TIP3    H235396   3.007   2.182   5.765 -0.2315  0.1792  0.0735
 4661TIP3   OH235397   2.942   1.201  16.873  0.1518 -0.0683 -0.1350
 4661TIP3    H135398   2.901   1.212  16.787  0.3671  2.0292  0.0130
 4661TIP3    H235399   2.869   1.202  16.935  0.0685 -0.7510 -0.2187
 4662TIP3   OH235400   3.113   4.287  13.523 -0.4837 -0.1173  0.4988
 4662TIP3    H135401   3.055   4.236  13.581 -1.1624  1.6840  1.4482
 4662TIP3    H235402   3.063   4.296  13.442 -0.5412 -0.5873  0.4778
 4663TIP3   OH235403   0.404   5.037   0.186 -0.3578  0.8532 -0.1124
 4663TIP3    H135404   0.437   4.979   0.116  0.2303  0.5109  0.4485
 4663TIP3    H235405   0.478   5.094   0.207  0.4068 -0.9065  2.1915
 4664TIP3   OH235406   3.986   3.060  13.597 -0.4676  0.0137  0.4418
 4664TIP3    H135407   4.016   3.129  13.655 -0.8755  1.3283 -0.8710
 4664TIP3    H235408   3.942   3.106  13.525 -2.5213 -1.6990  0.5532
 4665TIP3   OH235409   4.218   6.506   3.966  0.0536 -0.0492 -0.0046
 4665TIP3    H135410   4.141   6.537   4.013  0.1538  0.3927 -0.1304
 4665TIP3    H235411   4.281   6.577   3.973  0.2636 -0.1982 -0.3452
 4666TIP3   OH235412   4.479   3.159  12.588  0.0958  0.3181  0.2413
 4666TIP3    H135413   4.534   3.149  12.666  0.0511  0.7303  0.3246
 4666TIP3    H235414   4.413   3.224  12.613  0.6528  1.1597 -0.4499
 4667TIP3   OH235415   6.226   4.646   2.541 -0.0813 -0.0930 -0.0431
 4667TIP3    H135416   6.308   4.658   2.493 -0.1201 -0.0463 -0.0975
 4667TIP3    H235417   6.252   4.602   2.622  0.2088  1.2727  0.6301
 4668TIP3   OH235418   6.451   1.529  13.837 -0.2448 -0.1398  0.1664
 4668TIP3    H135419   6.360   1.504  13.852 -0.3188  1.0134  1.6975
 4668TIP3    H235420   6.496   1.509  13.919  0.8947 -0.7374 -0.5892
 4669TIP3   OH235421   0.426   4.907  15.816 -0.1743 -0.3449  0.2452
 4669TIP3    H135422   0.405   5.000  15.812  3.7103  0.5664 -2.3983
 4669TIP3    H235423   0.358   4.865  15.763 -0.4857  1.3438 -0.7340
 4670TIP3   OH235424   0.209   6.091   0.534 -0.3011  0.4847 -0.1748
 4670TIP3    H135425   0.117   6.096   0.507 -0.0828  1.9181 -0.7043
 4670TIP3    H235426   0.207   6.099   0.629 -0.7469  0.3768 -0.1773
 4671TIP3   OH235427   6.454   3.369   2.590  0.2517  0.4666 -0.4503
 4671TIP3    H135428   6.504   3.294   2.557  2.8927  1.4171  1.1389
 4671TIP3    H235429   6.481   3.442   2.534 -0.9887  0.5666 -0.9146
 4672TIP3   OH235430   0.526   6.565   6.044 -0.5017  0.0824  0.2053
 4672TIP3    H135431   0.603   6.619   6.059 -0.8054  0.6185 -0.1337
 4672TIP3    H235432   0.539   6.488   6.099  1.7641 -1.3134 -2.1417
 4673TIP3   OH235433   3.956   0.732  16.801  0.4142  0.1204 -0.4447
 4673TIP3    H135434   3.927   0.662  16.860  0.0858  0.0667 -0.6675
 4673TIP3    H235435   4.036   0.766  16.841  2.3944 -2.5192 -1.9685
 4674TIP3   OH235436   5.342   6.732  16.767 -0.3311 -0.3496  0.1272
 4674TIP3    H135437   5.302   6.818  16.777 -2.1205 -1.1962  0.3333
 4674TIP3    H235438   5.317   6.704  16.679 -1.9489 -1.7678  1.0135
 4675TIP3   OH235439   6.343   5.868  14.382 -0.1178  0.8300 -0.4520
 4675TIP3    H135440   6.310   5.811  14.312 -1.6313 -0.9485  1.6739
 4675TIP3    H235441   6.277   5.937  14.388  0.5173  1.5420 -1.4109
 4676TIP3   OH235442   5.104   4.296  16.465  0.7995 -0.0614  0.1317
 4676TIP3    H135443   5.156   4.351  16.405  2.3355  0.2066  1.6732
 4676TIP3    H235444   5.041   4.356  16.504  0.6807  0.0437 -0.2183
 4677TIP3   OH235445   1.354   4.620  12.212 -0.0198 -0.2728  0.0436
 4677TIP3    H135446   1.324   4.711  12.212 -0.6413 -0.4550  2.3392
 4677TIP3    H235447   1.357   4.595  12.304 -0.7695 -2.8781 -0.5820
 4678TIP3   OH235448   2.460   0.488  10.974  0.2116 -0.1513 -0.5365
 4678TIP3    H135449   2.370   0.512  10.951  0.4867 -0.1197 -1.5978
 4678TIP3    H235450   2.503   0.571  10.993  0.7124  0.0698 -2.5731
 4679TIP3   OH235451   2.016   1.174  14.237  0.2361 -0.5083  0.0532
 4679TIP3    H135452   2.094   1.214  14.275 -0.5066  1.4483 -0.4254
 4679TIP3    H235453   2.024   1.081  14.258  1.7384 -0.0431  1.6584
 4680TIP3   OH235454   1.773   4.517   1.626  0.2014  0.5122  0.0005
 4680TIP3    H135455   1.756   4.610   1.614 -2.6595 -0.1014 -1.0237
 4680TIP3    H235456   1.723   4.474   1.556  1.0609 -1.8357  0.7699
 4681TIP3   OH235457   6.620   1.088  14.636 -0.1734 -0.4656 -0.1648
 4681TIP3    H135458   6.664   1.131  14.710  0.6095  1.0040 -1.4778
 4681TIP3    H235459   6.659   1.001  14.633 -0.3722 -0.6314  1.2787
 4682TIP3   OH235460   2.341   3.866  16.656 -0.3943 -0.4709  0.4419
 4682TIP3    H135461   2.396   3.790  16.675 -0.7516 -0.5574  1.1381
 4682TIP3    H235462   2.285   3.837  16.583  0.5628 -0.3349 -0.3613
 4683TIP3   OH235463   5.163   3.898   0.595  0.1952  0.5804 -0.5135
 4683TIP3    H135464   5.071   3.872   0.586  0.0796  0.7404  0.1531
 4683TIP3    H235465   5.204   3.824   0.640  0.6833 -0.0618 -2.0036
 4684TIP3   OH235466   0.819   2.517  13.756 -0.0404 -0.4286 -0.2027
 4684TIP3    H135467   0.724   2.527  13.759  0.2101  2.0582  0.2265
 4684TIP3    H235468   0.833   2.422  13.748 -2.5293 -0.8390 -0.0052
 4685TIP3   OH235469   1.435   5.895  16.128  0.1839 -0.3128 -0.2121
 4685TIP3    H135470   1.392   5.899  16.213 -1.3725  2.4232 -1.0392
 4685TIP3    H235471   1.455   5.986  16.107  2.9763 -1.2013 -1.5962
 4686TIP3   OH235472   5.403   3.022   0.963 -0.1555  0.8200 -0.1551
 4686TIP3    H135473   5.339   3.011   0.893 -0.2925  3.0093 -0.4048
 4686TIP3    H235474   5.380   3.105   1.004  1.0500  0.4504  1.3065
 4687TIP3   OH235475   0.371   4.915  14.587 -0.0097 -0.3610 -0.2467
 4687TIP3    H135476   0.400   5.002  14.559 -0.8659  0.2722  0.8022
 4687TIP3    H235477   0.444   4.882  14.640  0.7537 -0.7283 -1.4923
 4688TIP3   OH235478   0.967   3.140  17.160 -0.4629 -0.1164 -0.7903
 4688TIP3    H135479   0.967   3.055  17.117 -0.2682 -0.9921  0.8725
 4688TIP3    H235480   0.950   3.203  17.090  1.4712 -1.3283 -2.3850
 4689TIP3   OH235481   0.875   4.099  11.353 -0.3185  0.0015  0.2070
 4689TIP3    H135482   0.875   4.096  11.257  0.6196 -0.8953  0.2304
 4689TIP3    H235483   0.794   4.056  11.379  0.2762 -1.3605 -0.1497
 4690TIP3   OH235484   0.026   2.873  15.794 -0.2170 -0.3999  0.3437
 4690TIP3    H135485  -0.019   2.953  15.767  0.2980 -0.8967 -2.0323
 4690TIP3    H235486   0.039   2.885  15.889  1.5834  3.2142 -0.2534
 4691TIP3   OH235487   6.052   3.962  13.735 -0.2514  0.1951  0.1160
 4691TIP3    H135488   6.147   3.957  13.747 -0.3565  0.5012  1.1500
 4691TIP3    H235489   6.018   3.979  13.823 -1.2531  0.2555 -0.2779
 4692TIP3   OH235490   0.632   2.064  10.971 -0.2888 -0.0907  0.2732
 4692TIP3    H135491   0.586   1.985  10.943  3.2633 -2.1862 -0.0311
 4692TIP3    H235492   0.625   2.123  10.896 -3.4485  0.1530  0.7013
 4693TIP3   OH235493   6.671   5.198  13.348 -0.2658  0.0756  0.5027
 4693TIP3    H135494   6.593   5.253  13.343 -0.3169  0.1287  1.7605
 4693TIP3    H235495   6.707   5.199  13.259 -2.1127 -0.5705 -0.2719
 4694TIP3   OH235496   1.371   6.183  14.389 -0.4887 -0.0599  0.0076
 4694TIP3    H135497   1.401   6.114  14.447 -1.8724 -0.6041  0.0813
 4694TIP3    H235498   1.375   6.263  14.443  1.1870 -0.0519 -0.1096
 4695TIP3   OH235499   3.970   2.205   0.669 -0.2058 -0.1663 -0.2253
 4695TIP3    H135500   4.039   2.252   0.623 -0.2560 -0.3006 -0.4389
 4695TIP3    H235501   3.905   2.272   0.691  0.3034  0.0742  0.5629
 4696TIP3   OH235502   0.996   5.253   4.583  0.3246 -0.0435  0.2776
 4696TIP3    H135503   0.939   5.200   4.638 -0.2791  0.3287  0.0074
 4696TIP3    H235504   0.944   5.273   4.505  0.7950  0.3531  0.0552
 4697TIP3   OH235505   6.258   4.913   0.387 -0.0332  0.8119  0.2765
 4697TIP3    H135506   6.252   4.938   0.294  0.3229 -0.3206 -0.0610
 4697TIP3    H235507   6.177   4.864   0.403 -1.1629  2.9135  1.1800
 4698TIP3   OH235508   3.963   0.291   3.628  0.6716 -0.5875  0.0381
 4698TIP3    H135509   3.914   0.221   3.586 -1.2939  0.5179  0.4190
 4698TIP3    H235510   4.021   0.247   3.689 -0.8887 -1.8619  0.6292
 4699TIP3   OH235511   5.018   1.084  15.904  0.7517  0.1371 -0.3888
 4699TIP3    H135512   4.956   1.087  15.831  0.3762  1.9873 -0.0150
 4699TIP3    H235513   4.962   1.079  15.982  1.0657  1.1674 -0.0849
 4700TIP3   OH235514   2.360   6.680   5.317 -0.3405 -0.3039  0.2489
 4700TIP3    H135515   2.383   6.738   5.390 -0.5501  1.9774 -1.4323
 4700TIP3    H235516   2.264   6.679   5.317 -0.3386 -1.6494  1.0084
 4701TIP3   OH235517   3.487   3.517   0.449 -0.2553  0.2812 -0.2294
 4701TIP3    H135518   3.519   3.427   0.447  0.4635  0.5145  0.5435
 4701TIP3    H235519   3.559   3.569   0.416  0.1368  0.7961  1.3911
 4702TIP3   OH235520   4.143   4.788   0.767  0.3175 -0.0333 -0.0808
 4702TIP3    H135521   4.228   4.760   0.802 -0.3994 -1.0384  0.8952
 4702TIP3    H235522   4.148   4.768   0.674  1.7110  1.3223 -0.3188
 4703TIP3   OH235523   0.456   5.735  14.652 -0.0854 -0.0444  0.2355
 4703TIP3    H135524   0.521   5.699  14.712  1.3991  2.9185  0.5331
 4703TIP3    H235525   0.437   5.663  14.592  1.0309 -1.9802  2.1083
 4704TIP3   OH235526   0.742   5.368  17.192 -0.1461 -0.3837 -0.2698
 4704TIP3    H135527   0.727   5.404  17.279  0.6346 -1.1327  0.1759
 4704TIP3    H235528   0.686   5.290  17.189  1.7833 -1.8299  0.5223
 4705TIP3   OH235529   0.028   6.119   0.203 -0.7187 -0.4933  0.1783
 4705TIP3    H135530  -0.046   6.074   0.163  0.1468 -2.1256  0.3770
 4705TIP3    H235531   0.015   6.108   0.297 -0.7219  0.0441  0.2447
 4706TIP3   OH235532   2.417   1.841  12.217 -0.5238  0.3800 -0.3223
 4706TIP3    H135533   2.499   1.827  12.169 -0.2663  0.2897  0.1342
 4706TIP3    H235534   2.434   1.802  12.303 -0.6074  1.4582  0.1904
 4707TIP3   OH235535   6.637   1.258   1.911 -0.1438 -0.9487 -0.0205
 4707TIP3    H135536   6.715   1.202   1.921 -0.4902 -1.3081  0.7292
 4707TIP3    H235537   6.666   1.345   1.940 -0.1606 -1.1971  0.7483
 4708TIP3   OH235538   1.663   6.721   5.174  0.0610 -0.2889  1.0786
 4708TIP3    H135539   1.582   6.726   5.225  0.0246  0.3440  0.9553
 4708TIP3    H235540   1.675   6.627   5.157  0.3296 -0.5565  2.6646
 4709TIP3   OH235541   5.689   5.474   5.112  0.4447  0.3045  0.2179
 4709TIP3    H135542   5.730   5.529   5.045  1.2183 -2.4895 -1.6721
 4709TIP3    H235543   5.748   5.478   5.187  1.1495  1.0032 -0.3716
 4710TIP3   OH235544   6.019   6.654  13.001  0.0419 -0.5148  0.1320
 4710TIP3    H135545   5.941   6.602  12.980 -1.7288  1.5460  1.3634
 4710TIP3    H235546   6.028   6.715  12.929  1.7176 -2.0281 -0.9764
 4711TIP3   OH235547   2.775   3.386  12.763 -0.5444 -1.0524 -0.1992
 4711TIP3    H135548   2.868   3.363  12.758  0.4523  2.6759 -0.7204
 4711TIP3    H235549   2.761   3.410  12.854 -0.8703 -1.1182 -0.2326
 4712TIP3   OH235550   2.595   0.188  16.941  0.4331  0.5147  0.1418
 4712TIP3    H135551   2.646   0.222  16.868 -0.5908  0.5116 -0.5743
 4712TIP3    H235552   2.622   0.096  16.947 -0.0590  0.3130 -0.7276
 4713TIP3   OH235553   6.005   5.566  12.291 -0.1172  0.1386 -1.0345
 4713TIP3    H135554   5.999   5.539  12.382 -1.9154  1.4837 -0.7118
 4713TIP3    H235555   5.948   5.644  12.285 -0.8637 -0.5348 -3.5096
 4714TIP3   OH235556   5.438   3.949  16.515  0.0875 -0.5416 -0.1700
 4714TIP3    H135557   5.426   3.863  16.554 -0.2634  0.2572  1.5446
 4714TIP3    H235558   5.362   4.000  16.545  1.2057  0.8753  0.3437
 4715TIP3   OH235559   3.856   5.530  12.953  0.1202  0.5835 -0.5847
 4715TIP3    H135560   3.796   5.604  12.948  0.5273  0.8846 -1.0384
 4715TIP3    H235561   3.803   5.458  12.987  0.3834  1.8031  2.6041
 4716TIP3   OH235562   0.463   3.733  16.272  0.2018 -0.6610  0.0598
 4716TIP3    H135563   0.389   3.753  16.215  1.2365 -1.2346 -1.4825
 4716TIP3    H235564   0.465   3.638  16.277  1.1080 -0.6561 -0.2397
 4717TIP3   OH235565   4.722   1.125  14.276 -0.7207 -0.0431  0.2927
 4717TIP3    H135566   4.737   1.054  14.214 -0.7149  1.3238 -1.2872
 4717TIP3    H235567   4.632   1.113  14.305 -0.4834 -1.1240  0.6089
 4718TIP3   OH235568   6.290   5.018   3.125  0.0288  0.1957  0.3151
 4718TIP3    H135569   6.225   5.000   3.058  1.0300 -1.1612 -0.3079
 4718TIP3    H235570   6.357   5.070   3.081  0.0666  0.3908  0.5978
 4719TIP3   OH235571   4.122   2.098   2.928  0.0890 -0.1993  0.1400
 4719TIP3    H135572   4.102   2.172   2.872 -0.6247 -0.1389  0.4714
 4719TIP3    H235573   4.037   2.056   2.945  0.7371 -2.4961 -2.0112
 4720TIP3   OH235574   4.481   6.587  13.289 -0.5797 -0.0428  1.2462
 4720TIP3    H135575   4.480   6.492  13.295 -0.7664 -0.0670  0.7925
 4720TIP3    H235576   4.397   6.614  13.326 -0.5760 -0.0554  1.2657
 4721TIP3   OH235577   0.839   0.948   4.315  0.3364 -0.3237  0.0741
 4721TIP3    H135578   0.897   1.015   4.351  2.8284 -0.6477 -3.1672
 4721TIP3    H235579   0.806   0.985   4.234 -0.1101 -2.0921 -0.5851
 4722TIP3   OH235580   1.733   3.803   5.625  0.6607 -0.1224 -0.7343
 4722TIP3    H135581   1.676   3.736   5.663  1.5093  1.0467  2.7782
 4722TIP3    H235582   1.817   3.759   5.614 -0.0745 -1.0050 -3.1678
 4723TIP3   OH235583   1.716   1.841   1.604 -0.1299 -0.4393  0.0390
 4723TIP3    H135584   1.697   1.761   1.654  0.4963 -0.9915 -0.5879
 4723TIP3    H235585   1.792   1.817   1.549  0.8152  0.9549  0.7167
 4724TIP3   OH235586   6.237   5.549  16.753 -0.3206  0.5717  0.1751
 4724TIP3    H135587   6.174   5.478  16.744  1.0721 -0.9257  1.9692
 4724TIP3    H235588   6.186   5.622  16.787 -0.9329 -0.9034  2.5149
 4725TIP3   OH235589   6.653   3.196   0.981  0.1272 -0.3392  0.8894
 4725TIP3    H135590   6.598   3.124   1.010  0.3447 -1.7242 -1.9885
 4725TIP3    H235591   6.613   3.226   0.900  0.7431  1.9965  1.4085
 4726TIP3   OH235592   2.658   4.732   5.708 -0.3360  0.1549 -0.0450
 4726TIP3    H135593   2.601   4.721   5.632 -1.5331  0.6917  0.7719
 4726TIP3    H235594   2.611   4.792   5.765  1.1682  0.8194  0.5243
 4727TIP3   OH235595   5.608   3.637  12.587 -0.2323  0.6233  0.1076
 4727TIP3    H135596   5.579   3.705  12.526 -1.1970 -1.1737 -1.5333
 4727TIP3    H235597   5.621   3.560  12.531  0.3217 -0.6632  1.9801
 4728TIP3   OH235598   3.071   2.261   5.481  0.3491  0.1898  0.4591
 4728TIP3    H135599   3.013   2.218   5.418  2.1464 -1.1021 -0.3453
 4728TIP3    H235600   3.117   2.190   5.524  1.5662  1.2063  0.8693
 4729TIP3   OH235601   3.668   2.509  16.867  0.4062 -0.4938 -0.2050
 4729TIP3    H135602   3.634   2.596  16.844  0.7250 -0.1098  0.7528
 4729TIP3    H235603   3.762   2.515  16.850  0.6079 -0.2781  0.9590
 4730TIP3   OH235604   2.760   3.248  10.999 -0.3149  0.4531 -0.2496
 4730TIP3    H135605   2.785   3.182  10.935  0.8703  0.0096  0.6482
 4730TIP3    H235606   2.843   3.287  11.027 -0.9118  1.4560  0.1355
 4731TIP3   OH235607   1.862   3.244  16.566 -0.1661  0.2518 -0.2649
 4731TIP3    H135608   1.817   3.264  16.648 -0.3576 -0.0419 -0.2980
 4731TIP3    H235609   1.792   3.222  16.505  0.0804 -1.2641 -0.0209
 4732TIP3   OH235610   3.578   4.411   2.738 -0.1601 -0.5058 -0.0774
 4732TIP3    H135611   3.568   4.454   2.823  1.6005  2.5484 -1.3448
 4732TIP3    H235612   3.488   4.393   2.710 -0.9064  1.4487  0.9612
 4733TIP3   OH235613   4.245   5.583  16.432 -0.1156 -0.0364 -0.2470
 4733TIP3    H135614   4.336   5.554  16.434 -1.2453 -4.0490 -1.2241
 4733TIP3    H235615   4.233   5.630  16.514  2.9643  1.0598 -0.3672
 4734TIP3   OH235616   1.936   6.129   3.405 -0.0350 -0.1398 -0.4402
 4734TIP3    H135617   2.013   6.183   3.424 -0.0293  0.1176 -1.1998
 4734TIP3    H235618   1.922   6.138   3.311 -1.7567  0.8485 -0.1182
 4735TIP3   OH235619   1.739   0.002  13.273  0.3892 -0.4818 -0.6282
 4735TIP3    H135620   1.714  -0.062  13.207  1.0704 -0.7262 -0.6521
 4735TIP3    H235621   1.760   0.081  13.223  0.5720 -0.5621 -0.6786
 4736TIP3   OH235622   1.464   5.464  13.154 -0.3300 -0.9180 -0.0181
 4736TIP3    H135623   1.495   5.439  13.241 -1.8437 -2.2085  0.1717
 4736TIP3    H235624   1.459   5.559  13.157 -2.5697 -1.0515  2.0924
 4737TIP3   OH235625   0.132   3.774   4.125  0.2620 -0.3771 -0.3807
 4737TIP3    H135626   0.173   3.696   4.085  0.1569 -0.7304  0.1932
 4737TIP3    H235627   0.204   3.820   4.167  0.3024 -0.2385 -0.6034
 4738TIP3   OH235628   1.969   4.186   2.756  0.4638 -0.0441  0.3182
 4738TIP3    H135629   1.943   4.269   2.715  0.3678 -0.2022  0.0562
 4738TIP3    H235630   1.948   4.198   2.849  2.0006  0.8271  0.5548
 4739TIP3   OH235631   1.872   6.474  10.946  0.0581  0.0308 -0.5065
 4739TIP3    H135632   1.935   6.412  10.910  0.7406  1.1352 -1.2614
 4739TIP3    H235633   1.795   6.422  10.966  0.8193 -1.1457 -0.6027
 4740TIP3   OH235634   2.164   5.844   4.898 -0.2555  0.7950 -0.4544
 4740TIP3    H135635   2.148   5.755   4.930  0.3925  1.2322  1.1459
 4740TIP3    H235636   2.240   5.835   4.841  0.1549  0.3911  0.1377
 4741TIP3   OH235637   2.039   6.470   5.256  0.3225  0.5471  0.2394
 4741TIP3    H135638   1.959   6.438   5.215  0.0075  3.5611 -1.6430
 4741TIP3    H235639   2.105   6.403   5.236 -0.5152  0.5495 -2.8176
 4742TIP3   OH235640   1.627   0.793   2.167  0.1688  0.1623 -0.0223
 4742TIP3    H135641   1.647   0.712   2.121 -0.6187 -0.7233  1.1991
 4742TIP3    H235642   1.552   0.829   2.120  0.9890  0.5942 -1.0389
 4743TIP3   OH235643   5.545   6.404   2.047 -0.3660  0.8528  0.5916
 4743TIP3    H135644   5.541   6.370   1.958 -0.0343 -2.4707  1.7615
 4743TIP3    H235645   5.541   6.499   2.037 -2.0362  0.5067 -2.8418
 4744TIP3   OH235646   4.479   4.938  14.506  0.2345  0.2434  0.1203
 4744TIP3    H135647   4.434   4.863  14.545 -0.2803  0.6820  0.3807
 4744TIP3    H235648   4.468   4.925  14.411  2.3654 -1.3552  0.0555
 4745TIP3   OH235649   0.125   2.546  11.059 -0.1084  0.7288 -0.5222
 4745TIP3    H135650   0.125   2.471  10.999 -0.6965  1.4101 -1.3863
 4745TIP3    H235651   0.191   2.605  11.024 -0.2726  1.0176 -0.3458
 4746TIP3   OH235652   0.156   5.343   1.127  0.9920 -0.4540  0.4149
 4746TIP3    H135653   0.237   5.382   1.094  0.5581  0.3790  0.3276
 4746TIP3    H235654   0.100   5.417   1.148 -1.1545 -1.0456 -2.9742
 4747TIP3   OH235655   2.624   3.778  14.303  0.0111 -0.8104  0.4179
 4747TIP3    H135656   2.705   3.810  14.264 -1.1758 -0.5246 -1.9419
 4747TIP3    H235657   2.602   3.699  14.253 -1.6659 -0.3181  0.3201
 4748TIP3   OH235658   2.695   6.475  16.637  0.1403  0.1999  0.0930
 4748TIP3    H135659   2.735   6.531  16.570  0.5488 -0.3203 -0.1047
 4748TIP3    H235660   2.621   6.525  16.668 -1.4136 -0.4697 -2.3602
 4749TIP3   OH235661   4.404   5.308   2.229  0.7528 -0.8310  0.0722
 4749TIP3    H135662   4.315   5.292   2.261  0.4348 -2.0483 -1.3974
 4749TIP3    H235663   4.408   5.403   2.219  0.0752 -0.6393  1.3986
 4750TIP3   OH235664   1.008   1.125   2.171 -0.0865 -0.6614 -0.4204
 4750TIP3    H135665   1.035   1.215   2.153 -1.5457 -0.1910 -0.4012
 4750TIP3    H235666   0.919   1.120   2.134 -0.1473 -1.9806 -0.1038
 4751TIP3   OH235667   3.677   4.343   2.040 -0.6495  0.5625 -0.4805
 4751TIP3    H135668   3.615   4.312   2.107 -1.3328 -1.1250 -1.8465
 4751TIP3    H235669   3.643   4.428   2.013 -0.8814  0.8436  0.6534
 4752TIP3   OH235670   2.083   1.398   1.300  0.3631 -0.2566 -0.3724
 4752TIP3    H135671   2.103   1.306   1.285  2.1687 -0.0200  0.4751
 4752TIP3    H235672   2.010   1.398   1.361  1.5635 -1.1390  1.0917
 4753TIP3   OH235673   1.059   6.234  16.808  0.2673 -0.0190  0.0075
 4753TIP3    H135674   1.021   6.150  16.833  3.1326 -1.4432 -0.2561
 4753TIP3    H235675   1.003   6.299  16.849 -2.7716 -2.0094 -0.8505
 4754TIP3   OH235676   5.276   2.695   5.264 -0.3239  0.4615  0.1216
 4754TIP3    H135677   5.334   2.641   5.317 -1.5613 -2.1877 -1.1436
 4754TIP3    H235678   5.198   2.708   5.319 -1.3655 -1.7965 -0.7738
 4755TIP3   OH235679   6.576   2.501  15.830 -0.7968 -0.1929 -0.3228
 4755TIP3    H135680   6.654   2.511  15.775  1.0261 -0.7777  2.0946
 4755TIP3    H235681   6.561   2.406  15.834  0.7117 -0.3412  2.3746
 4756TIP3   OH235682   0.590   4.963   0.909 -0.0479 -0.2688 -0.4101
 4756TIP3    H135683   0.518   4.953   0.847 -1.6903  0.9365  1.2425
 4756TIP3    H235684   0.547   4.978   0.994  2.1443 -0.4821  0.7779
 4757TIP3   OH235685   2.644   4.825  12.394 -0.3770  0.1467  0.2954
 4757TIP3    H135686   2.583   4.757  12.365  0.1310 -0.9189  1.6451
 4757TIP3    H235687   2.590   4.886  12.444 -0.2598 -1.1724  2.0990
 4758TIP3   OH235688   2.698   4.340   0.607  0.1293  0.2350  0.7435
 4758TIP3    H135689   2.730   4.381   0.527 -1.5184  3.3351  1.5788
 4758TIP3    H235690   2.636   4.274   0.577 -0.1008  1.0245 -0.5468
 4759TIP3   OH235691   2.345   2.765   1.811  0.3274 -0.7098 -0.0285
 4759TIP3    H135692   2.398   2.801   1.882  0.2933  0.6634 -0.6723
 4759TIP3    H235693   2.409   2.744   1.742  0.3343 -1.8060  0.2977
 4760TIP3   OH235694   0.192   1.319  16.773  0.2664 -0.3678 -0.0974
 4760TIP3    H135695   0.221   1.278  16.692  1.3794 -1.0453  0.6183
 4760TIP3    H235696   0.228   1.263  16.842  0.3360  0.8422  0.8695
 4761TIP3   OH235697   6.512   1.781   2.967  0.0113 -0.5461  1.0633
 4761TIP3    H135698   6.433   1.835   2.955 -2.2642 -3.6538  1.4208
 4761TIP3    H235699   6.546   1.769   2.879 -1.0298 -0.7695  0.6801
 4762TIP3   OH235700   1.551   6.665  10.645 -0.1632 -0.0123 -0.2102
 4762TIP3    H135701   1.475   6.672  10.702  0.0467  0.6996 -0.0014
 4762TIP3    H235702   1.605   6.741  10.669  0.0356  0.1579 -1.1838
 4763TIP3   OH235703   3.378   1.724   1.512  0.2336  0.2138  0.0120
 4763TIP3    H135704   3.371   1.726   1.608 -0.8028 -2.0734  0.0186
 4763TIP3    H235705   3.416   1.639   1.493 -0.3627  0.3046 -1.6514
 4764TIP3   OH235706   3.478   0.341   3.402  0.0064 -0.1344  0.8132
 4764TIP3    H135707   3.553   0.306   3.354 -0.7248 -0.7837  0.1111
 4764TIP3    H235708   3.423   0.382   3.335 -0.2897  0.2934  1.3102
 4765TIP3   OH235709   1.328   6.725  11.231 -0.1725 -0.2229 -0.9645
 4765TIP3    H135710   1.356   6.789  11.165  2.3954 -0.6615 -0.3335
 4765TIP3    H235711   1.272   6.664  11.182  2.3936 -1.0574 -2.9815
 4766TIP3   OH235712   0.230   0.559   2.722  0.0035  0.0925 -0.1253
 4766TIP3    H135713   0.146   0.520   2.749 -0.0183 -0.0827 -0.4518
 4766TIP3    H235714   0.242   0.632   2.783 -0.3153  0.0303  0.0165
 4767TIP3   OH235715   5.222   5.958  15.574  0.3127  0.0761 -0.8165
 4767TIP3    H135716   5.246   6.045  15.542  3.1606 -0.4045 -0.1795
 4767TIP3    H235717   5.293   5.901  15.542  0.6494 -1.2569  2.1915
 4768TIP3   OH235718   4.338   1.083  14.886  0.2042  0.3223  0.4533
 4768TIP3    H135719   4.370   1.043  14.805 -0.5686 -3.9634  2.1132
 4768TIP3    H235720   4.244   1.068  14.884 -0.4192  3.9386  0.2609
 4769TIP3   OH235721   5.052   4.393  14.540  0.3314 -0.0817  0.3951
 4769TIP3    H135722   4.960   4.416  14.547 -0.0558 -1.1551 -0.8855
 4769TIP3    H235723   5.054   4.298  14.555  1.2365 -0.0543  0.4867
 4770TIP3   OH235724   0.338   4.201  15.072 -0.3430 -0.1270  0.2648
 4770TIP3    H135725   0.307   4.111  15.059  0.9996 -0.8626  2.0227
 4770TIP3    H235726   0.264   4.256  15.043 -1.4179 -1.7904 -0.2160
 4771TIP3   OH235727   4.490   1.975  13.003 -0.2963  0.3360  0.1023
 4771TIP3    H135728   4.574   1.944  12.970  0.8475  2.6912  0.7506
 4771TIP3    H235729   4.441   2.000  12.924 -0.9503 -2.2828 -0.3751
 4772TIP3   OH235730   6.391   4.829   0.031  0.5061  0.2855  0.1328
 4772TIP3    H135731   6.462   4.890   0.049  2.3199 -1.7561  0.1763
 4772TIP3    H235732   6.311   4.882   0.035  2.0211  2.6208  0.0689
 4773TIP3   OH235733   5.230   3.387   5.733 -0.3490 -0.6456  0.6706
 4773TIP3    H135734   5.300   3.426   5.786 -1.4780  0.6310  1.2510
 4773TIP3    H235735   5.256   3.295   5.723  2.2456  0.1698 -0.5398
 4774TIP3   OH235736   2.107   1.421  12.509  0.2383  0.0308 -0.3805
 4774TIP3    H135737   2.074   1.355  12.570  0.0894  0.3795 -0.0825
 4774TIP3    H235738   2.061   1.501  12.533  1.5423  0.6018  0.2727
 4775TIP3   OH235739   3.105   6.585   1.168 -0.2858  0.2442 -0.9945
 4775TIP3    H135740   3.188   6.594   1.120 -0.0184  1.9736 -0.2393
 4775TIP3    H235741   3.076   6.675   1.182  0.1540 -0.1673  3.0016
 4776TIP3   OH235742   2.372   4.523  12.856 -0.1918  0.1607 -0.1184
 4776TIP3    H135743   2.292   4.471  12.856  0.3936 -0.7672 -1.2228
 4776TIP3    H235744   2.433   4.473  12.910 -0.0259  0.3258 -0.1538
 4777TIP3   OH235745   5.412   3.261  14.527  0.1220 -0.6135  0.1476
 4777TIP3    H135746   5.421   3.332  14.590  1.8209 -0.5734 -0.1261
 4777TIP3    H235747   5.490   3.207  14.540  1.0005 -0.0672 -2.6104
 4778TIP3   OH235748   2.298   0.835  17.088 -0.0446  0.3454 -0.2326
 4778TIP3    H135749   2.314   0.745  17.063  1.0142 -0.1599  2.1707
 4778TIP3    H235750   2.370   0.885  17.049  0.0172 -0.0127 -0.5743
 4779TIP3   OH235751   2.178   0.107  12.916  0.1003 -0.2156 -0.2540
 4779TIP3    H135752   2.161   0.095  12.823  1.4347 -0.3133 -0.4946
 4779TIP3    H235753   2.201   0.019  12.948  0.6332 -0.0068 -0.0522
 4780TIP3   OH235754   2.394   5.157   2.213 -0.7205 -0.1347  0.0889
 4780TIP3    H135755   2.386   5.209   2.133 -2.5871  0.5071  0.6530
 4780TIP3    H235756   2.472   5.192   2.257 -0.6745  0.6728 -0.6215
 4781TIP3   OH235757   4.858   2.939  14.088  0.1713  1.0469 -0.0438
 4781TIP3    H135758   4.920   2.997  14.133 -2.3649  3.4530  0.4396
 4781TIP3    H235759   4.804   2.903  14.158  0.9755 -1.0578 -0.4702
 4782TIP3   OH235760   6.268   5.625  13.312  0.3637 -0.8738 -0.1208
 4782TIP3    H135761   6.191   5.576  13.339 -1.1561  0.8561 -1.2437
 4782TIP3    H235762   6.287   5.594  13.224  0.6737 -0.9575 -0.0256
 4783TIP3   OH235763   6.405   0.363   0.786 -0.3144  0.3133  0.1815
 4783TIP3    H135764   6.356   0.410   0.719 -0.7644 -0.1738  0.1673
 4783TIP3    H235765   6.481   0.327   0.741  0.8719  2.3497  0.5114
 4784TIP3   OH235766   4.016   3.709  12.452 -0.7659 -0.1202 -0.2389
 4784TIP3    H135767   4.092   3.720  12.395 -0.6184  2.0971  0.3464
 4784TIP3    H235768   4.047   3.737  12.538 -1.5654 -1.5455  0.5256
 4785TIP3   OH235769   0.815   6.181   3.029  0.0034  0.3168 -0.1374
 4785TIP3    H135770   0.906   6.191   2.998 -0.3787  0.4120 -1.2492
 4785TIP3    H235771   0.763   6.178   2.949 -1.2878  3.2439  0.5299
 4786TIP3   OH235772   6.044   0.695   5.226  0.1619  0.6842 -0.2145
 4786TIP3    H135773   6.069   0.727   5.140 -2.2183  1.4226 -0.6646
 4786TIP3    H235774   6.058   0.769   5.285 -0.1464  0.8275 -0.3204
 4787TIP3   OH235775   0.316   2.596   2.540  0.1893 -0.2252 -0.6376
 4787TIP3    H135776   0.354   2.674   2.500  0.1426 -0.4981 -1.2120
 4787TIP3    H235777   0.246   2.569   2.480  0.0334 -0.5541 -0.3099
 4788TIP3   OH235778   2.227   4.732   5.396  0.1445  0.0832 -0.6144
 4788TIP3    H135779   2.252   4.726   5.488  0.2978  0.4449 -0.6298
 4788TIP3    H235780   2.225   4.641   5.365  0.4045 -0.0163 -0.3365
 4789TIP3   OH235781   0.990   6.246   3.867 -0.5109 -0.0752 -0.2573
 4789TIP3    H135782   0.962   6.166   3.912 -0.2182  1.1977  2.2217
 4789TIP3    H235783   1.076   6.223   3.831 -1.0348 -1.3044 -0.7798
 4790TIP3   OH235784   4.828   1.182   1.116  0.1644 -0.0189 -0.0713
 4790TIP3    H135785   4.884   1.182   1.039  0.5571  2.3341  0.1842
 4790TIP3    H235786   4.751   1.232   1.089 -0.1248 -0.0250  0.7447
 4791TIP3   OH235787   4.011   3.003   3.298  0.4504 -0.3321 -0.4172
 4791TIP3    H135788   4.076   3.051   3.348 -0.3208 -0.2293  0.5035
 4791TIP3    H235789   3.973   3.069   3.239  1.8036 -0.5980 -1.6058
 4792TIP3   OH235790   2.215   3.229  16.693  0.5465 -0.2937  0.4015
 4792TIP3    H135791   2.177   3.250  16.778  0.3277  0.3614  0.1486
 4792TIP3    H235792   2.296   3.280  16.689  0.8333 -0.7387  0.4349
 4793TIP3   OH235793   4.585   2.676  11.440 -0.3318 -0.1293  0.1908
 4793TIP3    H135794   4.509   2.619  11.430 -0.4682 -0.3714  2.2952
 4793TIP3    H235795   4.556   2.761  11.409 -0.9096 -0.6254 -0.6388
 4794TIP3   OH235796   5.500   0.006  15.985  0.1838  0.6354  0.5688
 4794TIP3    H135797   5.431   0.066  16.013 -0.3214  0.6729 -0.7233
 4794TIP3    H235798   5.505  -0.059  16.056 -0.5089  1.1725  1.1237
 4795TIP3   OH235799   0.913   6.319  10.685  0.1512  0.3850 -0.3684
 4795TIP3    H135800   0.998   6.276  10.685 -0.3065 -0.5747 -1.7301
 4795TIP3    H235801   0.853   6.255  10.724 -0.1851  0.5053 -0.6746
 4796TIP3   OH235802   4.007   3.340   4.577 -0.2088  0.2764 -0.2313
 4796TIP3    H135803   3.929   3.366   4.626  0.3741 -1.5189  1.7056
 4796TIP3    H235804   3.993   3.248   4.555  0.4278  0.5161 -1.7248
 4797TIP3   OH235805   0.307   3.252  14.039 -0.3625 -0.0077  0.0600
 4797TIP3    H135806   0.214   3.232  14.052 -0.6229  0.5961 -0.8213
 4797TIP3    H235807   0.321   3.334  14.085 -0.4279  0.2445 -0.3628
 4798TIP3   OH235808   4.212   1.331   0.958  0.4061 -0.5014 -0.5352
 4798TIP3    H135809   4.164   1.256   0.922  0.5765 -1.1234  0.5319
 4798TIP3    H235810   4.145   1.382   1.004  1.0345 -2.3011  2.4893
 4799TIP3   OH235811   0.400   2.910   1.665 -0.6739  0.2776 -0.2785
 4799TIP3    H135812   0.437   2.994   1.693  1.4804 -0.3214 -1.2621
 4799TIP3    H235813   0.375   2.866   1.746 -1.9577  1.9178  0.2371
 4800TIP3   OH235814   5.487   3.757  13.410 -0.3917  0.2634 -0.2723
 4800TIP3    H135815   5.416   3.697  13.433 -0.8290  0.6956 -0.4646
 4800TIP3    H235816   5.457   3.842  13.442 -0.0743  0.4939 -0.5822
 4801TIP3   OH235817   4.489   5.206   5.784  0.1839  0.1305 -0.3112
 4801TIP3    H135818   4.559   5.140   5.791  1.4215  1.4723  0.3238
 4801TIP3    H235819   4.509   5.269   5.854 -1.0357  1.1212 -0.8376
 4802TIP3   OH235820   5.891   3.979  11.176  0.2641 -0.0961 -0.4445
 4802TIP3    H135821   5.851   4.002  11.092 -0.2132 -0.1753 -0.2367
 4802TIP3    H235822   5.955   3.911  11.154 -0.8290 -1.0972 -0.5443
 4803TIP3   OH235823   1.635   4.860   0.177  0.2494 -0.3549 -0.1092
 4803TIP3    H135824   1.641   4.774   0.136  0.1709  0.3448 -1.6474
 4803TIP3    H235825   1.723   4.876   0.212  0.5222 -0.6711 -0.6424
 4804TIP3   OH235826   2.418   3.196   4.090 -0.1287  0.2511  0.1824
 4804TIP3    H135827   2.354   3.265   4.072 -1.3210 -1.0133 -0.4942
 4804TIP3    H235828   2.440   3.160   4.004  0.0486 -0.6019  0.5777
 4805TIP3   OH235829   5.390   3.370   4.720 -0.2656  0.0683  0.4937
 4805TIP3    H135830   5.469   3.332   4.759 -0.9802 -1.1675  0.7668
 4805TIP3    H235831   5.351   3.298   4.671 -2.2562  0.1262  1.9566
 4806TIP3   OH235832   6.563   1.291  11.816  0.4529 -0.3578 -0.0225
 4806TIP3    H135833   6.610   1.212  11.789 -0.2414 -1.3105  1.4721
 4806TIP3    H235834   6.631   1.357  11.828  1.2607 -1.3208  0.7436
 4807TIP3   OH235835   2.484   6.593   5.089 -0.1916  0.0508 -1.1784
 4807TIP3    H135836   2.440   6.631   5.164  0.0324  1.0262 -1.5356
 4807TIP3    H235837   2.577   6.608   5.105 -0.1392  0.2108 -1.6233
 4808TIP3   OH235838   4.031   2.414   2.859  0.1815  0.7700 -0.0348
 4808TIP3    H135839   4.116   2.412   2.814 -0.2093  0.9381 -0.7831
 4808TIP3    H235840   3.986   2.335   2.830  0.0011  0.7849  0.2014
 4809TIP3   OH235841   0.656   6.054  11.490  0.3570 -0.3856 -0.5749
 4809TIP3    H135842   0.697   6.098  11.415  1.2696  2.7907  1.6460
 4809TIP3    H235843   0.725   5.998  11.525  0.1409 -1.3632 -1.6991
 4810TIP3   OH235844   5.437   6.211   5.998 -0.4488 -0.2304 -0.2865
 4810TIP3    H135845   5.463   6.270   6.068 -0.3834 -0.8270  0.1923
 4810TIP3    H235846   5.347   6.236   5.978 -0.7849 -0.6665  0.6456
 4811TIP3   OH235847   2.551   5.425  12.768  0.2208 -0.7478  0.1688
 4811TIP3    H135848   2.492   5.500  12.763 -0.7683 -1.4816  0.5483
 4811TIP3    H235849   2.503   5.360  12.819  1.6342 -1.1278  1.0322
 4812TIP3   OH235850   3.986   2.416  12.666 -0.0425  0.1337 -0.9743
 4812TIP3    H135851   4.069   2.461  12.649  0.2180  0.6176  1.4752
 4812TIP3    H235852   3.984   2.403  12.761 -2.1996 -0.9965 -1.1367
 4813TIP3   OH235853   3.660   5.537  12.406  0.4044 -0.8646  0.1315
 4813TIP3    H135854   3.738   5.498  12.366  0.0915 -2.0033  0.5989
 4813TIP3    H235855   3.663   5.629  12.381  0.4275 -1.4611 -2.2181
 4814TIP3   OH235856   5.956   5.739  15.088  0.5406  0.0906 -0.3706
 4814TIP3    H135857   5.961   5.651  15.053  0.9393 -0.3732  0.8381
 4814TIP3    H235858   5.872   5.741  15.135  0.5308  0.3552 -0.3968
 4815TIP3   OH235859   3.084   4.443   2.728 -0.1697 -0.7366 -0.0145
 4815TIP3    H135860   3.013   4.484   2.777  0.6639 -0.7611  1.2418
 4815TIP3    H235861   3.049   4.356   2.704 -1.7025  0.4107 -2.1514
 4816TIP3   OH235862   6.180   6.661  16.828  0.1724  0.2599 -0.3638
 4816TIP3    H135863   6.204   6.753  16.832 -0.2531  0.2875  2.0374
 4816TIP3    H235864   6.124   6.654  16.750  0.9056  1.8468 -1.0430
 4817TIP3   OH235865   0.424   1.605  13.648  0.1236  0.1849 -0.2775
 4817TIP3    H135866   0.353   1.541  13.640  0.0212  0.5298 -2.4884
 4817TIP3    H235867   0.479   1.590  13.572  1.1983  1.4238  0.2236
 4818TIP3   OH235868   2.368   3.591   5.636 -0.0375  0.2990 -0.0283
 4818TIP3    H135869   2.435   3.577   5.703 -0.4034  1.9761  0.7039
 4818TIP3    H235870   2.285   3.576   5.682 -0.1942 -1.5188 -0.8647
 4819TIP3   OH235871   0.884   4.771  13.274 -0.8295  0.0676  0.0828
 4819TIP3    H135872   0.814   4.836  13.268 -1.3265 -0.5592 -1.0643
 4819TIP3    H235873   0.855   4.709  13.340 -1.1568  0.0573 -0.0696
 4820TIP3   OH235874   2.798   4.711   0.124 -0.6619 -0.1396  0.4638
 4820TIP3    H135875   2.892   4.709   0.143 -0.8778  0.3027  1.6014
 4820TIP3    H235876   2.788   4.784   0.063 -0.1137 -0.8761 -0.5108
 4821TIP3   OH235877   6.196   1.542  16.198 -0.0264  0.4191  0.6613
 4821TIP3    H135878   6.250   1.481  16.147 -0.2354 -0.2459  1.2279
 4821TIP3    H235879   6.190   1.620  16.143  0.4546  0.0259  0.0374
 4822TIP3   OH235880   3.775   0.535  12.032  0.7590  0.2665  0.6687
 4822TIP3    H135881   3.844   0.469  12.023  0.7012  0.0523  1.6772
 4822TIP3    H235882   3.704   0.503  11.976  0.9462 -0.2421  0.7174
 4823TIP3   OH235883   2.778   2.211  12.908 -0.6199  0.4234 -0.3038
 4823TIP3    H135884   2.738   2.140  12.957  0.1211 -1.8071 -2.8512
 4823TIP3    H235885   2.706   2.251  12.860 -0.6363 -0.2649 -0.8592
 4824TIP3   OH235886   6.435   2.938   5.564  0.7986 -0.7884 -0.1747
 4824TIP3    H135887   6.379   2.901   5.632 -0.5284 -1.2242 -1.4842
 4824TIP3    H235888   6.399   2.904   5.482  2.0089  0.2057 -1.1307
 4825TIP3   OH235889   4.819   5.416  12.277  0.0202 -0.8155  0.1257
 4825TIP3    H135890   4.730   5.432  12.309  0.1473  0.0267  0.0628
 4825TIP3    H235891   4.873   5.480  12.323  0.5914 -1.3094  0.1441
 4826TIP3   OH235892   6.161   5.950  15.916 -0.2187 -0.6174  0.1305
 4826TIP3    H135893   6.189   6.032  15.958 -1.3654 -0.1963  0.0958
 4826TIP3    H235894   6.241   5.899  15.907  0.7819  1.1454 -1.3075
 4827TIP3   OH235895   3.732   2.709   1.898  0.2194 -0.4688 -0.0018
 4827TIP3    H135896   3.756   2.799   1.874  1.8169 -0.3676  1.8739
 4827TIP3    H235897   3.676   2.719   1.975 -0.2763 -1.0441 -0.2855
 4828TIP3   OH235898   2.589   5.436   0.511 -0.3049  0.2118  0.3558
 4828TIP3    H135899   2.655   5.428   0.442  0.3222 -0.3399  1.0198
 4828TIP3    H235900   2.569   5.529   0.513  0.8811  0.4711  0.5458
 4829TIP3   OH235901   5.928   4.377   4.016 -0.9734  0.3829 -0.1476
 4829TIP3    H135902   5.920   4.414   4.103  0.4916  2.2723 -0.7951
 4829TIP3    H235903   5.904   4.448   3.957 -0.9237 -0.5640 -1.3293
 4830TIP3   OH235904   0.833   0.155   3.604  0.7071  0.1191 -1.0230
 4830TIP3    H135905   0.902   0.101   3.565  1.2498  0.7293 -0.9097
 4830TIP3    H235906   0.753   0.125   3.562  0.3434 -3.8885  2.1661
 4831TIP3   OH235907   1.750   6.520  13.016 -0.0491  0.3510 -0.4530
 4831TIP3    H135908   1.818   6.570  12.971  0.5983  0.7561  0.9715
 4831TIP3    H235909   1.676   6.520  12.955  1.0871  0.2225 -1.8506
 4832TIP3   OH235910   1.781   2.745   0.042  0.3248  0.0528  0.5346
 4832TIP3    H135911   1.719   2.816   0.058 -1.2794 -1.3878  0.9050
 4832TIP3    H235912   1.856   2.765   0.099  0.5823  2.2258 -0.4966
 4833TIP3   OH235913   0.431   3.853   6.656  0.0948 -0.7147  0.1109
 4833TIP3    H135914   0.405   3.893   6.739  2.0323 -0.2688  0.5260
 4833TIP3    H235915   0.513   3.809   6.676  0.8835 -0.1071 -1.7176
 4834TIP3   OH235916   6.444   5.145  15.247 -0.2352 -0.2108  0.6784
 4834TIP3    H135917   6.535   5.116  15.259 -0.6937 -1.3837  1.4377
 4834TIP3    H235918   6.447   5.240  15.259  0.8147 -0.3000  1.2121
 4835TIP3   OH235919   0.452   0.849  11.685 -0.0762 -0.2709  0.0399
 4835TIP3    H135920   0.439   0.887  11.598 -0.6754 -1.1209 -0.2489
 4835TIP3    H235921   0.496   0.766  11.669 -0.4206 -0.5529  0.5189
 4836TIP3   OH235922   4.951   4.880   3.759 -0.2294 -0.2601  0.6296
 4836TIP3    H135923   4.887   4.810   3.774 -1.1688  0.4047 -0.1897
 4836TIP3    H235924   4.963   4.921   3.845 -0.6994 -0.5713  0.8426
 4837TIP3   OH235925   5.240   5.120  16.414  0.4683  0.2728 -0.5056
 4837TIP3    H135926   5.267   5.169  16.337 -0.2373  0.1114 -0.8600
 4837TIP3    H235927   5.253   5.028  16.391  1.2579  0.2674 -0.0477
 4838TIP3   OH235928   5.081   0.782   2.901 -0.3817 -0.0090  0.2958
 4838TIP3    H135929   5.162   0.832   2.898 -0.4165  0.0803  0.7945
 4838TIP3    H235930   5.081   0.731   2.820  1.6268 -2.2634  1.6449
 4839TIP3   OH235931   1.975   4.059   6.535 -0.3341 -0.3877 -0.0791
 4839TIP3    H135932   2.070   4.045   6.529 -0.5404 -1.3751 -1.1112
 4839TIP3    H235933   1.962   4.091   6.624  0.7572 -1.9910  0.6873
 4840TIP3   OH235934   0.028   2.610  16.504  0.3819 -0.6777  0.6957
 4840TIP3    H135935  -0.016   2.580  16.584 -0.7754  1.4514  0.8886
 4840TIP3    H235936  -0.039   2.603  16.436 -0.2662  2.4108  0.9555
 4841TIP3   OH235937   6.387   0.273   1.931  0.6303  0.1779 -0.2570
 4841TIP3    H135938   6.453   0.225   1.981  1.0473  0.0885 -0.8786
 4841TIP3    H235939   6.336   0.205   1.887 -0.2437  0.2265  0.6712
 4842TIP3   OH235940   4.531   6.352   4.620 -0.1673  0.5015  0.6723
 4842TIP3    H135941   4.618   6.392   4.613  0.6364 -1.3336 -0.4858
 4842TIP3    H235942   4.473   6.424   4.642  1.1262  2.4078 -1.8152
 4843TIP3   OH235943   2.232   1.841   6.143  0.2433 -0.4913  0.1425
 4843TIP3    H135944   2.309   1.848   6.086 -1.2358 -1.5487 -2.0479
 4843TIP3    H235945   2.225   1.747   6.163 -0.0160 -0.2978  0.9994
 4844TIP3   OH235946   4.338   2.793  16.725  0.1334 -0.0790 -0.0646
 4844TIP3    H135947   4.261   2.773  16.777 -0.0379  0.1243 -0.2356
 4844TIP3    H235948   4.305   2.848  16.654  0.9574  2.8678  1.7480
 4845TIP3   OH235949   5.391   3.974   3.253 -0.0530 -0.1318  0.6866
 4845TIP3    H135950   5.406   3.978   3.347 -2.1280  2.4443  0.9573
 4845TIP3    H235951   5.432   4.053   3.218  3.9155 -2.7947 -1.1662
 4846TIP3   OH235952   2.943   5.432  11.028  0.2508 -0.1194  0.2704
 4846TIP3    H135953   2.888   5.372  11.079  0.2250  0.2271  0.6549
 4846TIP3    H235954   2.901   5.435  10.942 -1.0859  1.1470  0.9462
 4847TIP3   OH235955   6.049   5.459  13.408  0.2698 -0.7090 -0.4154
 4847TIP3    H135956   6.016   5.369  13.403 -0.7927 -0.3560  0.1923
 4847TIP3    H235957   5.988   5.504  13.466  0.0703  0.7402 -1.7181
 4848TIP3   OH235958   6.322   6.031  14.742 -0.0566  0.1780  0.5722
 4848TIP3    H135959   6.263   6.079  14.800 -0.2270  2.5690 -1.4913
 4848TIP3    H235960   6.399   6.088  14.733  1.4383 -1.7000  1.0979
 4849TIP3   OH235961   2.000   5.427   5.296 -0.3725 -0.1981 -0.0037
 4849TIP3    H135962   2.084   5.401   5.259 -0.2404 -0.3094  0.3712
 4849TIP3    H235963   1.964   5.489   5.233  0.3895  0.5309  0.2609
 4850TIP3   OH235964   1.269   6.157   2.612  0.2140  0.6056  0.5201
 4850TIP3    H135965   1.312   6.242   2.624  0.8177  0.3214  0.3783
 4850TIP3    H235966   1.297   6.128   2.525  0.0035  0.2618  0.5681
 4851TIP3   OH235967   0.174   4.373   0.385 -0.4035 -0.4768 -0.1429
 4851TIP3    H135968   0.254   4.382   0.437 -0.8214 -0.6540  0.5441
 4851TIP3    H235969   0.205   4.360   0.295  0.2981  2.4074 -0.3575
 4852TIP3   OH235970   2.031   1.980  11.475  0.4929  0.1501 -0.9125
 4852TIP3    H135971   2.052   2.050  11.536  1.8721  0.3412 -1.5840
 4852TIP3    H235972   2.081   2.001  11.396  0.0607 -0.9969 -1.5043
 4853TIP3   OH235973   2.556   3.080  11.377  0.6818  0.1123  0.2222
 4853TIP3    H135974   2.525   3.028  11.303  1.0128 -0.1985  0.3006
 4853TIP3    H235975   2.564   3.169  11.342  0.3896  0.0546  0.0109
 4854TIP3   OH235976   2.510   5.191  14.196  0.5716 -0.1943 -0.1279
 4854TIP3    H135977   2.466   5.263  14.241  0.4049 -0.2330 -0.2268
 4854TIP3    H235978   2.444   5.122  14.192  1.6516 -1.4505  2.5930
 4855TIP3   OH235979   4.212   5.542  12.677 -0.2329  0.1392 -0.0644
 4855TIP3    H135980   4.258   5.486  12.739 -0.2351 -2.7234 -2.5584
 4855TIP3    H235981   4.120   5.534  12.701 -0.0419  1.0102  1.0488
 4856TIP3   OH235982   6.611   5.027   4.663  0.5077 -0.2957 -0.0475
 4856TIP3    H135983   6.599   4.950   4.719  0.0592  0.4820  0.9517
 4856TIP3    H235984   6.700   5.057   4.682  1.1426 -1.3205 -1.3990
 4857TIP3   OH235985   0.093   0.915   5.144  0.7172 -0.2393  0.0935
 4857TIP3    H135986   0.149   0.978   5.188 -0.7798  1.1154  0.0829
 4857TIP3    H235987   0.094   0.838   5.201  1.1268  0.4355  1.0060
 4858TIP3   OH235988   3.349   6.130  13.045 -0.0117  1.2076 -0.5693
 4858TIP3    H135989   3.329   6.151  13.136 -1.7661 -1.1693 -0.3559
 4858TIP3    H235990   3.442   6.108  13.045  0.6463  3.7972  0.1028
 4859TIP3   OH235991   2.999   6.094  15.180 -0.0664  0.0697  0.3342
 4859TIP3    H135992   2.922   6.057  15.136  0.0257  0.1539  0.1054
 4859TIP3    H235993   2.979   6.084  15.274 -0.5515  0.4877  0.2810
 4860TIP3   OH235994   1.670   1.597   4.547 -0.1482 -0.1134 -0.0023
 4860TIP3    H135995   1.711   1.623   4.464 -0.7853  0.1304 -0.2427
 4860TIP3    H235996   1.595   1.656   4.556 -0.2584 -0.3436  0.5986
 4861TIP3   OH235997   1.812   5.123   3.652  0.1596 -0.1494 -0.4319
 4861TIP3    H135998   1.864   5.098   3.576 -0.1413  1.7653 -1.3017
 4861TIP3    H235999   1.852   5.205   3.683 -0.4050 -0.3194  0.8010
 4862TIP3   OH236000   0.314   0.684  14.623  0.1050 -0.1687  0.0400
 4862TIP3    H136001   0.308   0.737  14.703 -0.4145  0.1480 -0.2070
 4862TIP3    H236002   0.387   0.624  14.639  0.0428 -0.0617  0.7281
 4863TIP3   OH236003   1.058   4.316  11.369  0.6591 -0.0943 -0.3064
 4863TIP3    H136004   1.127   4.265  11.327  0.1981 -0.7812 -0.2259
 4863TIP3    H236005   0.978   4.266  11.353  0.3252  0.2006  0.4527
 4864TIP3   OH236006   1.514   5.405   1.113  0.4190  0.6598  0.0144
 4864TIP3    H136007   1.499   5.413   1.019 -1.3631  0.0290  0.2373
 4864TIP3    H236008   1.455   5.469   1.152 -0.1095 -0.3137  0.8020
 4865TIP3   OH236009   2.310   3.744   0.320  0.2571  0.1503  0.0600
 4865TIP3    H136010   2.294   3.655   0.351  0.8531  0.2650  0.7136
 4865TIP3    H236011   2.404   3.756   0.330  0.6384 -0.1679 -2.7853
 4866TIP3   OH236012   5.854   1.628  14.178  0.6045  0.0342  0.3042
 4866TIP3    H136013   5.909   1.648  14.103  1.5197  0.6982  1.1433
 4866TIP3    H236014   5.824   1.538  14.163  0.3279  0.3642 -1.1175
 4867TIP3   OH236015   4.670   4.535   1.146  0.0735  0.4335  0.1766
 4867TIP3    H136016   4.749   4.514   1.096 -0.4730  2.0673 -1.4523
 4867TIP3    H236017   4.702   4.557   1.233  1.5413  1.8050 -0.6762
 4868TIP3   OH236018   1.762   1.350   0.020  0.0932  0.2593 -0.0077
 4868TIP3    H136019   1.667   1.336   0.026 -0.0261  0.5700 -1.0933
 4868TIP3    H236020   1.795   1.269  -0.020  0.0960  0.7801 -1.0585
 4869TIP3   OH236021   6.475   5.195   2.403 -0.1744  0.2743 -0.1616
 4869TIP3    H136022   6.443   5.231   2.486 -1.7530 -0.7586 -0.3092
 4869TIP3    H236023   6.443   5.257   2.337  2.0296  1.7137  0.0529
 4870TIP3   OH236024   2.685   2.165  14.503 -0.0879 -0.0046 -0.2741
 4870TIP3    H136025   2.751   2.233  14.516 -0.8632  0.8884 -0.9846
 4870TIP3    H236026   2.732   2.093  14.460  0.6758  0.1674  0.2641
 4871TIP3   OH236027   4.213   4.999  14.651 -0.0028 -0.0470 -0.0351
 4871TIP3    H136028   4.184   5.059  14.719 -1.5716 -0.6085 -0.1891
 4871TIP3    H236029   4.265   4.933  14.698 -1.9661 -1.0303  0.7886
 4872TIP3   OH236030   5.602   0.198  17.103  0.5099 -0.2963 -0.3304
 4872TIP3    H136031   5.573   0.192  17.194  0.5138 -0.3986 -0.3368
 4872TIP3    H236032   5.552   0.271  17.067  1.8371  0.9162  0.2559
 4873TIP3   OH236033   1.790   1.720   2.693  0.4545 -0.1074  0.6189
 4873TIP3    H136034   1.867   1.672   2.723 -0.2764 -0.8337  1.3482
 4873TIP3    H236035   1.780   1.790   2.757  0.4998 -0.0132  0.5238
 4874TIP3   OH236036   5.383   5.108  15.435 -0.5003  0.6825  0.5013
 4874TIP3    H136037   5.354   5.198  15.450  1.8212  1.5922 -0.3218
 4874TIP3    H236038   5.342   5.083  15.352 -1.7661  0.6920  1.1116
 4875TIP3   OH236039   5.170   2.667   4.649  0.3279  0.5291  0.2627
 4875TIP3    H136040   5.178   2.624   4.734 -2.3366 -0.3940  0.0639
 4875TIP3    H236041   5.101   2.732   4.661 -1.8392 -1.2998 -1.8195
 4876TIP3   OH236042   1.739   4.741   5.332 -0.3234  0.7849 -0.0052
 4876TIP3    H136043   1.677   4.814   5.331 -1.4906 -0.2060 -0.1487
 4876TIP3    H236044   1.818   4.778   5.371 -1.4205  1.7155  1.3923
 4877TIP3   OH236045   0.657   5.584  14.439  0.1935 -0.1600  0.6463
 4877TIP3    H136046   0.579   5.532  14.460  0.1659  0.0992  1.2032
 4877TIP3    H236047   0.705   5.590  14.522  0.6928 -0.1313  0.3547
 4878TIP3   OH236048   0.339   5.063   2.394  0.1250 -0.2929 -0.9571
 4878TIP3    H136049   0.419   5.031   2.436  2.0690  0.7707 -3.7178
 4878TIP3    H236050   0.349   5.039   2.302 -3.2247 -1.0316 -1.1764
 4879TIP3   OH236051   3.824   3.622  16.241  0.1136 -0.0114  0.3007
 4879TIP3    H136052   3.895   3.610  16.179  1.0887 -0.8352  1.5462
 4879TIP3    H236053   3.815   3.717  16.249 -0.5005  0.1132 -1.5883
 4880TIP3   OH236054   3.288   3.778   2.809  1.0038  0.3434  0.0604
 4880TIP3    H136055   3.340   3.755   2.732  0.6512 -1.3071  0.2989
 4880TIP3    H236056   3.338   3.742   2.883  0.9556  1.2464  0.5476
 4881TIP3   OH236057   6.310   5.689  12.874  0.1179 -0.0757 -0.6170
 4881TIP3    H136058   6.278   5.771  12.835  0.8543  0.6902  0.3652
 4881TIP3    H236059   6.398   5.710  12.904  0.1224 -1.0904  0.0858
 4882TIP3   OH236060   3.688   0.470  16.435  0.0056  0.0022 -0.2994
 4882TIP3    H136061   3.700   0.432  16.523  2.0163  1.7791  0.2555
 4882TIP3    H236062   3.641   0.552  16.451  3.4733  2.1001 -0.4099
 4883TIP3   OH236063   2.755   5.894   4.670 -0.3061  0.3514 -0.2901
 4883TIP3    H136064   2.699   5.892   4.593  0.7787  0.4828 -1.0941
 4883TIP3    H236065   2.713   5.834   4.732 -0.8197 -0.2741 -1.2332
 4884TIP3   OH236066   2.200   6.148   5.419  0.1358 -0.1387  0.0620
 4884TIP3    H136067   2.226   6.187   5.336  4.1488 -0.4051  1.0668
 4884TIP3    H236068   2.214   6.054   5.406  1.2685 -0.1367  1.1545
 4885TIP3   OH236069   0.022   3.836   5.793  0.2730  0.3530  0.3218
 4885TIP3    H136070   0.041   3.826   5.700 -0.9920  0.1440  0.0827
 4885TIP3    H236071   0.100   3.801   5.837  0.7348  0.1459 -0.6495
 4886TIP3   OH236072   3.405   4.122  11.389  0.5357 -0.3496 -0.2653
 4886TIP3    H136073   3.485   4.071  11.400  1.1095  0.4984 -0.4471
 4886TIP3    H236074   3.335   4.061  11.412  1.1688 -1.3711 -0.9662
 4887TIP3   OH236075   4.983   6.248   5.346 -0.3900 -0.0827 -0.3899
 4887TIP3    H136076   4.893   6.224   5.325  0.1627 -1.8083 -0.8577
 4887TIP3    H236077   5.031   6.166   5.345  1.2582  0.8504 -0.4336
 4888TIP3   OH236078   1.630   2.713   5.545 -0.2219 -0.8324 -0.3035
 4888TIP3    H136079   1.600   2.776   5.480  0.2685  1.1261  1.3425
 4888TIP3    H236080   1.715   2.684   5.513  0.3754  0.7221 -0.1398
 4889TIP3   OH236081   3.722   1.561   5.519  0.5104 -0.2806  0.4717
 4889TIP3    H136082   3.648   1.521   5.564 -0.3134 -0.2531 -0.8546
 4889TIP3    H236083   3.775   1.599   5.590 -0.8883 -0.0269  1.3944
 4890TIP3   OH236084   3.533   2.734  13.964  0.4252  0.4723 -0.1406
 4890TIP3    H136085   3.439   2.726  13.982  0.8520  0.4852  2.3182
 4890TIP3    H236086   3.553   2.656  13.912 -0.5003 -0.8707  1.4365
 4891TIP3   OH236087   0.153   5.389  17.194  0.3931 -0.0609 -0.7799
 4891TIP3    H136088   0.152   5.479  17.226 -1.3893 -0.5809  0.6995
 4891TIP3    H236089   0.060   5.367  17.183  0.8064 -1.7775 -0.9443
 4892TIP3   OH236090   4.449   0.018   6.130  0.1649 -0.1214  0.2347
 4892TIP3    H136091   4.540   0.031   6.156 -0.2248 -0.9958  2.1565
 4892TIP3    H236092   4.419  -0.056   6.183 -1.8592  0.5889  0.1420
 4893TIP3   OH236093   2.454   6.580   3.473 -0.4581 -0.1669  0.1185
 4893TIP3    H136094   2.374   6.631   3.460 -1.0496 -1.5648 -1.7393
 4893TIP3    H236095   2.425   6.498   3.511 -0.2354 -1.8021 -3.1284
 4894TIP3   OH236096   0.711   3.107  12.923 -0.4226 -0.3843  0.0928
 4894TIP3    H136097   0.698   3.014  12.904  0.2975 -0.3462 -0.6274
 4894TIP3    H236098   0.690   3.151  12.840 -0.2210  0.0478  0.2702
 4895TIP3   OH236099   2.035   1.644   1.029 -0.2926 -0.0508 -0.3261
 4895TIP3    H136100   2.049   1.575   0.965  0.3162 -0.0914 -0.1490
 4895TIP3    H236101   2.033   1.599   1.113 -0.7191  0.0487 -0.2803
 4896TIP3   OH236102   4.953   5.406  13.122 -0.0124 -0.0068  0.3511
 4896TIP3    H136103   5.027   5.436  13.068 -0.8541  0.7311 -0.4115
 4896TIP3    H236104   4.877   5.416  13.065 -0.5405 -2.0520  0.6601
 4897TIP3   OH236105   2.762   1.062  11.074  0.1118  0.7049  0.0790
 4897TIP3    H136106   2.789   0.978  11.110 -0.1040  1.0734  1.1020
 4897TIP3    H236107   2.722   1.039  10.989 -0.2292 -0.2567  0.4854
 4898TIP3   OH236108   6.654   3.428  14.290  0.4327 -0.4517  0.3933
 4898TIP3    H136109   6.560   3.444  14.300  0.3947 -1.4357  1.8488
 4898TIP3    H236110   6.690   3.513  14.266 -0.5513  0.4759  2.0525
 4899TIP3   OH236111   1.395   5.281  12.206 -0.1709 -0.3229 -0.8620
 4899TIP3    H136112   1.429   5.200  12.244 -0.5486 -1.3037 -2.5162
 4899TIP3    H236113   1.462   5.307  12.142  0.2286  1.0091  0.0961
 4900TIP3   OH236114   0.785   4.374   5.015  0.1486 -0.0200  0.0397
 4900TIP3    H136115   0.829   4.398   4.933 -0.5722 -0.5090 -0.4869
 4900TIP3    H236116   0.857   4.366   5.078  0.7994 -0.6076 -0.7656
 4901TIP3   OH236117   2.639   6.630  15.104  0.9004  0.6956  0.0162
 4901TIP3    H136118   2.688   6.697  15.058  0.6367 -0.5720 -2.1486
 4901TIP3    H236119   2.635   6.556  15.044  0.1597 -0.8468  1.8866
 4902TIP3   OH236120   2.145   4.215  11.536  0.7063 -0.0160  0.3707
 4902TIP3    H136121   2.192   4.135  11.563 -0.5713 -1.5436 -1.8181
 4902TIP3    H236122   2.072   4.183  11.483  0.2307  2.6373 -0.6231
 4903TIP3   OH236123   1.129   4.290  10.477  0.1824 -0.5852  0.0537
 4903TIP3    H136124   1.206   4.235  10.461 -0.4461 -1.2650 -0.6743
 4903TIP3    H236125   1.145   4.329  10.563  2.1927  0.7040 -0.8524
 4904TIP3   OH236126   1.837   5.167   4.477 -0.2019  0.5072 -0.1433
 4904TIP3    H136127   1.843   5.182   4.383 -1.4755  0.3417 -0.2674
 4904TIP3    H236128   1.880   5.243   4.516 -0.3850  0.9801 -0.8477
 4905TIP3   OH236129   0.181   5.092  15.759  0.0875 -0.1405  0.1852
 4905TIP3    H136130   0.115   5.139  15.708 -1.5451 -1.7861  0.7554
 4905TIP3    H236131   0.163   5.115  15.850 -0.7234 -1.8140  0.4704
 4906TIP3   OH236132   6.570   1.539  16.627  0.3204 -0.0065  0.6082
 4906TIP3    H136133   6.633   1.539  16.700 -0.2391 -0.7530  1.0994
 4906TIP3    H236134   6.520   1.458  16.638  2.1711 -1.6301 -2.3121
 4907TIP3   OH236135   4.166   3.964   1.463 -0.0910  0.5073  0.1720
 4907TIP3    H136136   4.114   3.944   1.385  1.0322  2.1446 -1.0262
 4907TIP3    H236137   4.101   3.987   1.529 -1.0154  0.0593 -0.5617
 4908TIP3   OH236138   4.334   2.237  11.312 -0.1255  0.0875 -0.0376
 4908TIP3    H136139   4.405   2.288  11.273  0.6373  0.1197  1.3870
 4908TIP3    H236140   4.343   2.251  11.406 -1.8078 -0.1910  0.1709
 4909TIP3   OH236141   3.624   2.953  10.574 -0.2769  0.4364 -0.5344
 4909TIP3    H136142   3.545   3.005  10.557 -0.7531  0.1286  0.6912
 4909TIP3    H236143   3.692   3.019  10.592 -0.1205  0.7165 -2.0449
 4910TIP3   OH236144   5.273   4.595  12.655  0.5015  0.4020 -0.3721
 4910TIP3    H136145   5.337   4.629  12.718 -0.6725  1.0290  0.5004
 4910TIP3    H236146   5.252   4.507  12.687 -0.1713  0.7597  0.1784
 4911TIP3   OH236147   6.423   3.740   2.396 -0.0788  0.2325  0.8488
 4911TIP3    H136148   6.359   3.670   2.407  1.1099 -0.8177  1.2117
 4911TIP3    H236149   6.441   3.742   2.302 -1.2529  1.0999  0.6289
 4912TIP3   OH236150   0.175   0.746  12.299 -0.0205 -0.3611  0.1947
 4912TIP3    H136151   0.232   0.670  12.305  1.3954  0.7828  1.8242
 4912TIP3    H236152   0.146   0.762  12.388 -0.3956  0.9357 -0.1438
 4913TIP3   OH236153   2.043   3.234   0.054 -0.4979 -0.1618  0.4806
 4913TIP3    H136154   2.050   3.149   0.011  0.3931  0.1669 -0.0354
 4913TIP3    H236155   2.130   3.249   0.092 -0.0090  1.4523 -1.2011
 4914TIP3   OH236156   0.420   0.870  14.080  0.2913 -0.2233 -0.0444
 4914TIP3    H136157   0.454   0.846  14.166  1.2585  0.3967 -0.2463
 4914TIP3    H236158   0.359   0.942  14.098 -2.3623 -2.5698  0.5226
 4915TIP3   OH236159   2.018   0.774  15.533  0.7509 -0.1463  0.1769
 4915TIP3    H136160   2.091   0.812  15.582  0.5557 -0.6091  0.8291
 4915TIP3    H236161   2.059   0.711  15.474  1.0723  1.0187 -0.8714
 4916TIP3   OH236162   1.621   2.062  16.526  0.4967 -0.2355  0.1454
 4916TIP3    H136163   1.666   1.979  16.507  1.7667  0.5469 -0.2750
 4916TIP3    H236164   1.611   2.104  16.441 -1.4379 -0.5901  0.1751
 4917TIP3   OH236165   5.605   3.857   5.236 -0.2739  0.2146  0.6088
 4917TIP3    H136166   5.562   3.940   5.215  0.4449  0.6118  0.7250
 4917TIP3    H236167   5.562   3.828   5.317 -0.5298  0.4692  0.5644
 4918TIP3   OH236168   0.521   2.764   4.555 -0.4182 -0.0559 -0.1872
 4918TIP3    H136169   0.428   2.786   4.556 -0.0965  1.4138 -0.9071
 4918TIP3    H236170   0.554   2.804   4.474  1.1748  0.9269  0.9141
 4919TIP3   OH236171   2.362   1.047   5.419  0.3075  0.8639 -0.4276
 4919TIP3    H136172   2.327   1.077   5.336 -0.1121 -0.4622 -0.7394
 4919TIP3    H236173   2.380   0.954   5.406 -0.7557  0.3772  1.2676
 4920TIP3   OH236174   1.456   5.404   3.963  0.1832  0.0719 -0.8737
 4920TIP3    H136175   1.390   5.342   3.993  1.4140 -2.2619 -2.7966
 4920TIP3    H236176   1.407   5.476   3.923 -1.2626  0.2722  1.2035
 4921TIP3   OH236177   1.669   4.288  16.017 -0.0208 -0.0807 -0.7075
 4921TIP3    H136178   1.620   4.306  16.097 -0.9011 -1.0041 -1.0310
 4921TIP3    H236179   1.670   4.372  15.970  0.4764  0.4526  0.2391
 4922TIP3   OH236180   6.169   4.535   5.082 -0.1406  0.8130  1.0746
 4922TIP3    H136181   6.091   4.555   5.134 -2.4495 -1.4397 -1.3703
 4922TIP3    H236182   6.220   4.475   5.137 -2.7629 -1.8970  0.7220
 4923TIP3   OH236183   0.075   0.185   3.237  0.1283  0.2773 -0.3778
 4923TIP3    H136184   0.011   0.256   3.242 -0.9866 -0.7497  0.2918
 4923TIP3    H236185   0.095   0.166   3.329 -1.1639 -1.6627 -0.4746
 4924TIP3   OH236186   0.342   3.412   1.153  0.3094 -0.0596 -0.3712
 4924TIP3    H136187   0.387   3.496   1.151 -1.2632  0.8497  0.8217
 4924TIP3    H236188   0.249   3.434   1.163 -0.1301 -1.9285  0.0504
 4925TIP3   OH236189   1.375   4.748   5.220 -0.6582 -0.1316 -0.8420
 4925TIP3    H136190   1.365   4.823   5.161  0.5020  0.6472 -0.0560
 4925TIP3    H236191   1.408   4.678   5.163 -1.6344 -0.0348 -1.5543
 4926TIP3   OH236192   0.364   3.071   2.987 -0.1780  0.1155 -0.3574
 4926TIP3    H136193   0.293   3.007   2.984 -0.8094  0.7492  1.0096
 4926TIP3    H236194   0.404   3.059   3.073  1.3777 -0.2246 -1.1005
 4927TIP3   OH236195   2.611   5.938   2.150 -0.1984 -0.3853  0.7094
 4927TIP3    H136196   2.639   6.024   2.180 -0.4525  0.3247 -0.9956
 4927TIP3    H236197   2.521   5.952   2.120  0.6866 -0.5533 -2.2110
 4928TIP3   OH236198   3.577   1.840   0.224 -0.0665  0.4410 -0.0520
 4928TIP3    H136199   3.588   1.745   0.215  0.2318  0.4432  0.2755
 4928TIP3    H236200   3.565   1.854   0.317  3.0217  1.0301  0.3055
 4929TIP3   OH236201   2.145   1.879  15.678 -0.1783 -0.4146 -0.4604
 4929TIP3    H136202   2.056   1.908  15.696 -0.1509 -0.1418 -0.7567
 4929TIP3    H236203   2.200   1.952  15.706 -0.1668  0.2812 -2.2002
 4930TIP3   OH236204   4.570   6.425  12.046  0.3748  0.1505 -0.3506
 4930TIP3    H136205   4.517   6.370  11.988  0.4138 -0.2276 -0.0312
 4930TIP3    H236206   4.506   6.465  12.105  0.2010  1.5524 -1.4883
 4931TIP3   OH236207   1.844   0.247  12.069 -0.3316 -0.2468  0.5851
 4931TIP3    H136208   1.919   0.208  12.023  1.2939  1.7489  1.4772
 4931TIP3    H236209   1.868   0.244  12.161 -1.0854  0.9696  0.8253
 4932TIP3   OH236210   5.934   4.554   0.434 -0.3632  0.0659 -0.5642
 4932TIP3    H136211   5.979   4.638   0.446 -0.9076  0.3035 -0.1635
 4932TIP3    H236212   5.906   4.555   0.342 -3.4193  1.8696  0.2981
 4933TIP3   OH236213   5.365   1.602   2.792  0.0453  0.1706 -0.0027
 4933TIP3    H136214   5.298   1.545   2.828 -0.8510 -0.3116 -2.3198
 4933TIP3    H236215   5.427   1.543   2.750 -0.0001  0.7869 -0.9605
 4934TIP3   OH236216   2.004   1.901   2.494  0.4422 -0.2447  0.3339
 4934TIP3    H136217   1.956   1.884   2.575 -1.8643 -1.3182 -1.2004
 4934TIP3    H236218   1.993   1.994   2.478 -1.1621 -0.4653  0.0281
 4935TIP3   OH236219   6.244   2.470  15.733 -0.1104  0.1119  0.3952
 4935TIP3    H136220   6.231   2.380  15.761 -0.6365 -0.4262 -1.5511
 4935TIP3    H236221   6.155   2.506  15.725  0.0124  0.1076 -1.0476
 4936TIP3   OH236222   1.976   6.035  10.444  0.1257  0.0558 -0.1160
 4936TIP3    H136223   1.924   6.112  10.466 -2.1635 -1.3407 -0.4339
 4936TIP3    H236224   2.053   6.041  10.500  0.0313  2.6072 -0.2105
 4937TIP3   OH236225   2.458   2.610  14.854 -0.4683  0.3499  0.3697
 4937TIP3    H136226   2.478   2.517  14.868 -1.3291 -0.1161 -1.3577
 4937TIP3    H236227   2.427   2.641  14.939  0.9792 -0.6322  1.2774
 4938TIP3   OH236228   0.341   0.532  15.059 -0.0893 -0.7670 -0.1275
 4938TIP3    H136229   0.253   0.556  15.088 -0.9110 -1.8278 -1.6372
 4938TIP3    H236230   0.329   0.447  15.016  1.9261 -1.6320  0.9359
 4939TIP3   OH236231   6.766   2.251  15.004  0.0379 -0.1090  0.0898
 4939TIP3    H136232   6.860   2.259  14.987 -0.3415  1.6319 -1.3232
 4939TIP3    H236233   6.724   2.281  14.924 -1.7413 -1.4307  0.4864
 4940TIP3   OH236234   1.330   4.060   0.617  0.2351 -0.3407  0.5026
 4940TIP3    H136235   1.417   4.028   0.644  0.3623  0.2226  0.7596
 4940TIP3    H236236   1.330   4.153   0.640 -0.6433 -0.4628  1.0265
 4941TIP3   OH236237   5.716   4.374  13.630 -0.5055 -0.1871  0.0841
 4941TIP3    H136238   5.782   4.350  13.695  0.8186  1.3706 -0.6556
 4941TIP3    H236239   5.676   4.291  13.605  1.4120 -1.2059  0.2996
 4942TIP3   OH236240   1.088   6.082   4.856  0.3328  0.0089 -0.6077
 4942TIP3    H136241   1.037   6.148   4.902  1.2415 -0.3392  0.9465
 4942TIP3    H236242   1.163   6.129   4.820  1.0856 -0.1708  0.6689
 4943TIP3   OH236243   5.866   5.609   1.977 -0.5473  0.4432 -0.3395
 4943TIP3    H136244   5.860   5.669   1.903  3.9458  1.7000  0.1626
 4943TIP3    H236245   5.821   5.654   2.049 -0.1638  1.7004 -0.8820
 4944TIP3   OH236246   0.984   5.762   0.449 -0.6048  0.0182 -0.4125
 4944TIP3    H136247   1.025   5.766   0.535  0.2889 -0.7669 -0.8023
 4944TIP3    H236248   0.945   5.675   0.444 -0.8773  0.1529 -0.7043
 4945TIP3   OH236249   3.605   4.169  11.049  0.1105 -0.2004  0.2407
 4945TIP3    H136250   3.653   4.208  10.977 -0.5860  0.7225  0.2658
 4945TIP3    H236251   3.516   4.154  11.014 -0.0351 -0.4042  0.6878
 4946TIP3   OH236252   1.749   5.507   0.243  0.9297 -0.1400  0.3416
 4946TIP3    H136253   1.689   5.555   0.298 -0.2447 -1.7825  0.5220
 4946TIP3    H236254   1.830   5.502   0.294  0.8738  1.1162  0.5569
 4947TIP3   OH236255   6.383   4.333  11.355  0.3571 -0.2632  0.0194
 4947TIP3    H136256   6.364   4.382  11.275  0.4075  0.5397  0.4937
 4947TIP3    H236257   6.299   4.296  11.380  0.7150 -2.1307 -1.4604
 4948TIP3   OH236258   3.846   3.676  15.703 -0.0097  0.1000 -0.0645
 4948TIP3    H136259   3.852   3.584  15.726 -2.6504 -0.3821 -1.1143
 4948TIP3    H236260   3.854   3.722  15.787 -0.8453 -1.1996  0.7490
 4949TIP3   OH236261   5.740   3.033  15.918 -0.1057  0.2464  1.1025
 4949TIP3    H136262   5.813   3.004  15.864 -0.5736  2.4913 -0.8079
 4949TIP3    H236263   5.724   2.960  15.978  1.8254 -1.4164 -0.3443
 4950TIP3   OH236264   4.565   1.895   3.865  0.1547  0.0699 -0.0589
 4950TIP3    H136265   4.599   1.967   3.811  0.1827  0.6379  0.7232
 4950TIP3    H236266   4.623   1.893   3.941 -0.5577 -0.0265  0.4821
 4951TIP3   OH236267   1.548   0.563  12.321 -0.2607  0.3633 -0.2425
 4951TIP3    H136268   1.569   0.554  12.414 -0.6443  1.6371 -0.0182
 4951TIP3    H236269   1.458   0.597  12.320 -0.2836  0.2891 -1.0716
 4952TIP3   OH236270   5.412   0.655  16.320 -0.2622 -0.5942  0.2384
 4952TIP3    H136271   5.384   0.745  16.305 -0.5786 -0.7924 -0.4217
 4952TIP3    H236272   5.335   0.602  16.298  0.4421 -1.1227 -1.0840
 4953TIP3   OH236273   0.520   1.934  13.039  0.0104 -0.3237  0.6311
 4953TIP3    H136274   0.613   1.956  13.044  0.1634 -0.9225  0.4057
 4953TIP3    H236275   0.496   1.910  13.129 -0.0291  0.2179  0.7720
 4954TIP3   OH236276   5.518   3.278   1.280 -0.1067 -0.1679 -0.4734
 4954TIP3    H136277   5.440   3.289   1.226 -0.9283  0.4390  0.8113
 4954TIP3    H236278   5.589   3.313   1.226 -1.0118  1.0548 -0.8998
 4955TIP3   OH236279   4.542   5.094   2.336 -0.4398  0.6341 -0.0854
 4955TIP3    H136280   4.500   5.171   2.297 -1.5759  0.8119  1.4596
 4955TIP3    H236281   4.470   5.043   2.371  0.3640 -0.8496 -0.5702
 4956TIP3   OH236282   3.862   5.311  13.949  0.0129 -0.2877  0.8609
 4956TIP3    H136283   3.838   5.226  13.911 -0.7574 -0.3905  1.5735
 4956TIP3    H236284   3.918   5.289  14.024  1.5355 -0.0847 -0.1961
 4957TIP3   OH236285   3.358   0.932  15.262  0.8630 -0.2561  0.1791
 4957TIP3    H136286   3.444   0.892  15.252  1.8900  1.3636  2.2402
 4957TIP3    H236287   3.330   0.952  15.172  1.4832 -3.1127 -0.6758
 4958TIP3   OH236288   6.641   1.957  15.774 -0.7740  0.5969 -0.5262
 4958TIP3    H136289   6.595   1.874  15.763  0.7889 -0.4299  0.4605
 4958TIP3    H236290   6.734   1.934  15.768 -0.2729  1.9619  1.4982
 4959TIP3   OH236291   6.267   3.101   2.473  0.2269  0.3615  0.8047
 4959TIP3    H136292   6.198   3.093   2.407  0.5032 -1.6661  0.7464
 4959TIP3    H236293   6.240   3.176   2.526 -0.7907  1.0575 -0.6536
 4960TIP3   OH236294   1.406   2.368   1.588 -0.4073 -0.4129  0.0547
 4960TIP3    H136295   1.356   2.427   1.644  1.7718  3.6597 -2.0416
 4960TIP3    H236296   1.497   2.379   1.616 -0.0250 -3.6004  0.2496
 4961TIP3   OH236297   4.124   2.949  14.434  0.1610  0.7135 -0.2669
 4961TIP3    H136298   4.037   2.981  14.457  0.5594  1.8365 -0.2799
 4961TIP3    H236299   4.184   3.003  14.486  0.8912  0.7440 -1.1276
 4962TIP3   OH236300   1.021   2.730   3.870  0.0949  0.3953 -0.1612
 4962TIP3    H136301   0.975   2.647   3.881 -0.5949  1.1374  2.8666
 4962TIP3    H236302   0.961   2.785   3.820 -0.1861 -0.3092 -0.6114
 4963TIP3   OH236303   6.390   6.207   4.535 -0.4051  0.1129  0.5040
 4963TIP3    H136304   6.342   6.247   4.463 -0.4194 -1.9575 -0.6683
 4963TIP3    H236305   6.365   6.258   4.612 -1.0960  1.7719 -0.7994
 4964TIP3   OH236306   4.028   4.715  15.881  0.0800  0.4124 -0.3696
 4964TIP3    H136307   4.090   4.777  15.918 -0.8286  1.2835 -0.2808
 4964TIP3    H236308   3.942   4.752  15.900 -0.4705 -0.6436 -0.7162
 4965TIP3   OH236309   4.803   2.128   0.272 -0.1870 -0.2254 -0.0937
 4965TIP3    H136310   4.785   2.035   0.284  0.7930 -0.3177  0.7455
 4965TIP3    H236311   4.863   2.132   0.198  0.9565 -0.3826  0.8213
 4966TIP3   OH236312   3.415   5.653   3.132  0.4597  0.4675 -0.1684
 4966TIP3    H136313   3.386   5.640   3.041 -0.3730  1.2663 -0.0176
 4966TIP3    H236314   3.463   5.735   3.130 -0.2452  0.8927  0.2747
 4967TIP3   OH236315   0.362   0.422  12.816  0.1820  0.5295 -0.1787
 4967TIP3    H136316   0.364   0.328  12.835 -1.7569  0.3865 -0.5515
 4967TIP3    H236317   0.440   0.457  12.859  2.0461 -1.5552 -1.7068
 4968TIP3   OH236318   4.003   2.758   4.423 -0.1584  0.5183  0.0915
 4968TIP3    H136319   4.074   2.771   4.359  0.0368  1.0791  0.4267
 4968TIP3    H236320   4.033   2.685   4.477 -0.1049  0.3612 -0.1500
 4969TIP3   OH236321   0.282   1.946  10.678  0.4339 -0.2472 -0.5455
 4969TIP3    H136322   0.276   1.855  10.708  0.0221 -0.3327 -0.8860
 4969TIP3    H236323   0.363   1.948  10.626  1.1646 -0.0916  0.5695
 4970TIP3   OH236324   2.549   3.438   6.299 -0.7064  0.0305 -0.5211
 4970TIP3    H136325   2.524   3.389   6.221  1.0920  0.4626 -1.4007
 4970TIP3    H236326   2.578   3.523   6.266 -0.4620  0.4234  0.6687
 4971TIP3   OH236327   2.452   6.114  16.106  0.8884  0.4338  0.4932
 4971TIP3    H136328   2.507   6.068  16.169  1.7984 -0.8676 -1.2284
 4971TIP3    H236329   2.514   6.164  16.053  0.3084 -0.0280 -0.6265
 4972TIP3   OH236330   5.414   2.817   2.312  0.1183 -0.5817  0.3495
 4972TIP3    H136331   5.475   2.890   2.321 -1.2773  0.5776  0.7161
 4972TIP3    H236332   5.329   2.859   2.296 -0.2249 -2.1755 -2.3774
 4973TIP3   OH236333   1.551   5.578   4.171  0.6739  0.3254 -0.4059
 4973TIP3    H136334   1.476   5.593   4.229  1.3441  1.1276  0.2641
 4973TIP3    H236335   1.523   5.507   4.113  0.0195 -0.5334  0.9430
 4974TIP3   OH236336   3.036   0.469   2.048  0.0578 -0.3910  0.4710
 4974TIP3    H136337   3.000   0.510   1.969  0.3949 -0.2073  0.4151
 4974TIP3    H236338   2.997   0.381   2.049 -2.4936  0.7042  1.8383
 4975TIP3   OH236339   6.730   3.295  16.743  0.0965  0.0498  0.6396
 4975TIP3    H136340   6.769   3.209  16.728  0.6585  0.2397  1.0109
 4975TIP3    H236341   6.801   3.349  16.779 -0.1545  0.7712  0.0745
 4976TIP3   OH236342   4.296   1.541   1.672  0.8573  0.6859  0.2485
 4976TIP3    H136343   4.385   1.511   1.653 -0.1873 -1.0743 -2.1515
 4976TIP3    H236344   4.282   1.615   1.614  0.5602  0.5643  0.1593
 4977TIP3   OH236345   5.382   4.365  14.063  1.0197  0.1721 -0.3466
 4977TIP3    H136346   5.468   4.384  14.100  0.1277  0.2106  1.7833
 4977TIP3    H236347   5.337   4.450  14.063  1.0598  0.1947 -1.6645
 4978TIP3   OH236348   4.305   1.725  13.335  0.2270 -0.3401  0.6791
 4978TIP3    H136349   4.388   1.701  13.377 -0.1976 -1.9339  0.6392
 4978TIP3    H236350   4.273   1.643  13.297 -1.4077  0.2562  0.7542
 4979TIP3   OH236351   1.711   1.618  14.170 -0.3575 -0.1706 -0.3298
 4979TIP3    H136352   1.721   1.633  14.076 -1.0237 -0.3584 -0.4351
 4979TIP3    H236353   1.766   1.686  14.211 -1.0587  0.7171 -0.8391
 4980TIP3   OH236354   2.093   6.061   4.156  0.4018  0.1894  0.6561
 4980TIP3    H136355   2.086   6.098   4.244 -0.1456  0.5390  0.4708
 4980TIP3    H236356   2.185   6.038   4.146  0.5180  0.4181  1.2147
 4981TIP3   OH236357   1.779   5.056   6.091  0.5242 -0.9726 -0.4805
 4981TIP3    H136358   1.737   4.991   6.148 -1.2938  1.0115  0.5298
 4981TIP3    H236359   1.795   5.131   6.149 -1.1021  0.9676 -2.4689
 4982TIP3   OH236360   3.423   6.122   0.578 -0.3096  0.1161 -0.4448
 4982TIP3    H136361   3.489   6.135   0.646 -0.5327 -0.8387 -0.0299
 4982TIP3    H236362   3.464   6.062   0.517 -0.4304  0.2945 -0.7004
 4983TIP3   OH236363   1.973   1.380  14.085 -0.2047 -0.4295 -0.0183
 4983TIP3    H136364   2.064   1.409  14.087 -0.3078 -0.0958 -0.1256
 4983TIP3    H236365   1.972   1.299  14.137 -0.1584  0.4290  1.3362
 4984TIP3   OH236366   1.209   0.685   5.342 -0.1396 -0.4367 -0.3285
 4984TIP3    H136367   1.172   0.659   5.426  2.4962 -1.8306  0.4705
 4984TIP3    H236368   1.151   0.754   5.310 -2.4115 -1.3899  1.5980
 4985TIP3   OH236369   1.643   3.061   0.078 -0.1493  0.1796  0.3701
 4985TIP3    H136370   1.570   3.078   0.138  0.9985 -1.0122  2.1504
 4985TIP3    H236371   1.689   3.145   0.072  0.5889 -0.0596  2.3774
 4986TIP3   OH236372   1.054   4.603  10.517 -0.2004  0.3629 -0.4922
 4986TIP3    H136373   1.106   4.575  10.441  0.6088  1.2343 -0.2653
 4986TIP3    H236374   0.974   4.638  10.479  0.1426  0.6711 -0.9435
 4987TIP3   OH236375   6.182   1.948   2.523  0.7195  0.0856  0.0331
 4987TIP3    H136376   6.174   1.900   2.605 -1.4290  1.4929  0.6874
 4987TIP3    H236377   6.112   2.014   2.526  1.7720  1.3686 -2.1071
 4988TIP3   OH236378   5.747   0.052   0.191 -0.1913 -0.0340  0.2466
 4988TIP3    H136379   5.708  -0.010   0.130  1.4378  2.4420 -3.4831
 4988TIP3    H236380   5.672   0.102   0.225 -0.9868 -0.3102 -1.0786
 4989TIP3   OH236381   3.239   0.594  14.426  0.0756  0.4321 -0.0032
 4989TIP3    H136382   3.250   0.687  14.410 -0.1402  0.3592 -0.6138
 4989TIP3    H236383   3.314   0.553  14.381  0.3823  0.3406  0.5913
 4990TIP3   OH236384   0.511   3.022   0.873 -0.0336  0.4104 -0.2432
 4990TIP3    H136385   0.489   3.085   0.804  0.3862  1.5188  0.6017
 4990TIP3    H236386   0.428   2.980   0.895 -0.1472 -0.0125 -1.4847
 4991TIP3   OH236387   5.013   3.124  10.614  0.0286 -0.1682  0.0612
 4991TIP3    H136388   5.087   3.115  10.675  0.4249  0.0044 -0.3919
 4991TIP3    H236389   4.982   3.035  10.601  1.3161 -0.4551 -1.1730
 4992TIP3   OH236390   2.785   5.460   4.904 -0.1449 -0.9179  0.1527
 4992TIP3    H136391   2.821   5.371   4.901  1.1359 -0.3829 -0.7959
 4992TIP3    H236392   2.847   5.512   4.854 -0.6538  0.6047  1.0931
 4993TIP3   OH236393   6.367   1.492   0.154  0.0763  0.1632  0.0909
 4993TIP3    H136394   6.387   1.579   0.120 -0.3337  0.0228 -0.5106
 4993TIP3    H236395   6.272   1.483   0.146 -0.0396  0.1430  1.3135
 4994TIP3   OH236396   5.628   1.586   2.045  0.2021 -0.3309 -0.3755
 4994TIP3    H136397   5.554   1.530   2.064 -1.2122  1.3206 -0.8934
 4994TIP3    H236398   5.684   1.579   2.123  0.1383 -2.5383 -0.5067
 4995TIP3   OH236399   1.681   4.951  11.273  0.1818  0.3250  0.2437
 4995TIP3    H136400   1.656   4.860  11.255  0.4061  0.1145  1.0023
 4995TIP3    H236401   1.678   4.994  11.187  0.2751 -0.4444 -0.1463
 4996TIP3   OH236402   5.582   1.947   4.937  0.2351 -0.1630  0.4079
 4996TIP3    H136403   5.503   1.938   4.883  1.1854 -0.8413 -0.9042
 4996TIP3    H236404   5.550   1.970   5.024 -1.4180 -0.6988 -0.0525
 4997TIP3   OH236405   2.168   3.445   5.782 -0.2724 -0.3564  0.8164
 4997TIP3    H136406   2.147   3.357   5.751  2.3672 -0.5397 -0.5294
 4997TIP3    H236407   2.102   3.501   5.740 -0.5900 -1.3963 -0.0887
 4998TIP3   OH236408   4.635   6.088  11.891 -0.4176  0.4864  0.2705
 4998TIP3    H136409   4.616   6.155  11.824 -1.4184  0.9103  0.9622
 4998TIP3    H236410   4.657   6.010  11.840  1.1700  1.4327 -0.5513
 4999TIP3   OH236411   3.626   3.976  13.494  0.7499 -0.6341 -0.6629
 4999TIP3    H136412   3.539   4.003  13.522  0.2767 -3.3493  0.5772
 4999TIP3    H236413   3.639   4.021  13.410 -0.5736  2.1856  0.5646
 5000TIP3   OH236414   0.578   3.583  14.773  0.2364 -0.2382  0.2974
 5000TIP3    H136415   0.485   3.597  14.756  0.1366  0.0183  1.0209
 5000TIP3    H236416   0.621   3.602  14.690 -0.2304  0.9768  0.3296
 5001TIP3   OH236417   3.646   2.400   2.780  0.2691 -0.4298  0.0968
 5001TIP3    H136418   3.703   2.473   2.756  1.0860 -0.8563  0.7055
 5001TIP3    H236419   3.630   2.354   2.697  3.0016 -1.8460  0.2728
 5002TIP3   OH236420   0.658   4.593   2.979 -0.2062 -0.2746 -0.0117
 5002TIP3    H136421   0.667   4.662   2.914 -2.1819 -0.7081 -0.7782
 5002TIP3    H236422   0.686   4.633   3.061 -1.2808  1.4159 -0.4504
 5003TIP3   OH236423   1.869   2.252   5.930 -0.8228  0.1312  0.0398
 5003TIP3    H136424   1.866   2.229   6.023 -1.9024  1.2162  0.2847
 5003TIP3    H236425   1.778   2.256   5.903 -0.4858 -2.2958 -1.6394
 5004TIP3   OH236426   0.477   4.127   3.448  0.5912 -0.2188  0.1338
 5004TIP3    H136427   0.406   4.103   3.388  0.8070 -2.7815  0.8553
 5004TIP3    H236428   0.518   4.044   3.472  1.7555  0.9358  2.3139
 5005TIP3   OH236429   1.861   1.499   5.504 -0.3501  0.3099  0.1832
 5005TIP3    H136430   1.843   1.566   5.570  0.1114  0.5038  0.1165
 5005TIP3    H236431   1.892   1.424   5.554 -1.2833 -0.0011  0.2927
 5006TIP3   OH236432   1.605   5.277  12.027  0.7071  0.7889  0.3793
 5006TIP3    H136433   1.625   5.199  12.079 -0.7621  0.0519 -0.1524
 5006TIP3    H236434   1.638   5.256  11.939 -2.3383 -0.4362 -0.5081
 5007TIP3   OH236435   5.129   6.197  12.273  0.3720  0.0413 -0.0117
 5007TIP3    H136436   5.186   6.152  12.210  0.8898  1.0179 -0.2403
 5007TIP3    H236437   5.171   6.281  12.289 -1.2307  0.9645 -0.5181
 5008TIP3   OH236438   1.976   3.148   3.661 -0.4266 -0.1924  0.5632
 5008TIP3    H136439   1.991   3.200   3.740 -1.8852 -0.4033  1.0031
 5008TIP3    H236440   1.896   3.184   3.624  0.0792 -0.3153 -0.6490
 5009TIP3   OH236441   3.232   1.137   0.041  0.2486 -0.4192 -0.4480
 5009TIP3    H136442   3.141   1.149   0.069  0.3142 -0.4415 -0.2241
 5009TIP3    H236443   3.233   1.165  -0.050 -0.0870 -0.8668 -0.5972
 5010TIP3   OH236444   3.239   0.007  14.022  0.0117  0.5349  0.2365
 5010TIP3    H136445   3.182  -0.070  14.017  1.3759 -0.5141  0.3868
 5010TIP3    H236446   3.192   0.076  13.976 -0.8198 -0.6570 -0.7043
 5011TIP3   OH236447   4.297   5.425  11.518  0.2229  0.4783 -0.0006
 5011TIP3    H136448   4.214   5.454  11.480 -0.7584 -1.4458  0.5807
 5011TIP3    H236449   4.363   5.447  11.453 -0.9074  0.8867 -1.0255
 5012TIP3   OH236450   0.821   1.826  13.290  0.0597  0.4623  0.3951
 5012TIP3    H136451   0.769   1.896  13.331 -1.9054 -0.8904  0.3014
 5012TIP3    H236452   0.757   1.756  13.274  1.5255 -0.4373 -1.6458
 5013TIP3   OH236453   6.708   1.767  16.229  0.3942 -0.1283 -0.2407
 5013TIP3    H136454   6.680   1.676  16.228 -0.6169  0.1524  0.5766
 5013TIP3    H236455   6.789   1.769  16.178  0.3345 -1.4457 -0.3924
 5014TIP3   OH236456   3.794   5.205  16.641 -0.0542  0.0707  0.4511
 5014TIP3    H136457   3.883   5.234  16.663 -0.1486 -0.0715  1.0295
 5014TIP3    H236458   3.799   5.183  16.548 -0.0518  2.2127 -0.0996
 5015TIP3   OH236459   1.594   5.575  15.064 -0.3592 -0.1526 -0.0875
 5015TIP3    H136460   1.665   5.514  15.085 -2.7296 -2.6532  0.9667
 5015TIP3    H236461   1.575   5.559  14.972  0.6667  0.8002 -0.4791
 5016TIP3   OH236462   4.327   0.920  17.218  0.5004  0.1820  0.3698
 5016TIP3    H136463   4.319   1.008  17.180 -0.9737  0.0761  0.3732
 5016TIP3    H236464   4.303   0.861  17.146 -1.2217 -0.0740  1.1233
 5017TIP3   OH236465   4.529   5.655  16.113 -0.0312  0.0501  0.0569
 5017TIP3    H136466   4.493   5.582  16.064 -0.8742 -0.8021  1.8800
 5017TIP3    H236467   4.455   5.714  16.127  0.4020  0.7244 -0.4771
 5018TIP3   OH236468   1.213   1.836   0.411 -0.1774 -0.3640 -0.6783
 5018TIP3    H136469   1.202   1.927   0.382 -1.7628 -0.1745  0.4589
 5018TIP3    H236470   1.288   1.839   0.471 -0.8770  0.3974  0.1791
 5019TIP3   OH236471   3.351   6.281   2.948  0.1522 -0.2830 -0.7201
 5019TIP3    H136472   3.289   6.240   2.888 -0.1618 -2.5521  1.1050
 5019TIP3    H236473   3.436   6.243   2.925  0.3148  0.1628 -0.8697
 5020TIP3   OH236474   5.568   1.765  10.961  0.3914  0.0369 -0.5776
 5020TIP3    H136475   5.534   1.697  11.019 -0.1700  1.1938  0.4580
 5020TIP3    H236476   5.611   1.827  11.019  1.9349 -0.0132 -1.6296
 5021TIP3   OH236477   0.762   6.359   5.457 -0.2713  0.2616  0.6304
 5021TIP3    H136478   0.692   6.335   5.518 -0.5960  2.0592  0.9713
 5021TIP3    H236479   0.820   6.283   5.458 -0.7614 -0.1226  2.4713
 5022TIP3   OH236480   0.754   2.079  16.236  0.4302 -0.7531 -0.2166
 5022TIP3    H136481   0.715   2.088  16.323  1.0346 -1.1554  0.1076
 5022TIP3    H236482   0.695   2.126  16.178  0.2705 -0.0663  0.4856
 5023TIP3   OH236483   5.139   1.306  13.081  0.3961 -0.2460 -0.2635
 5023TIP3    H136484   5.171   1.320  13.170  1.1894 -0.2830 -0.5358
 5023TIP3    H236485   5.160   1.388  13.035 -0.6967  0.0591 -0.2195
 5024TIP3   OH236486   3.991   6.569  14.951  0.1168 -0.1708  0.0201
 5024TIP3    H136487   3.901   6.579  14.980  0.5013 -0.6200  1.4008
 5024TIP3    H236488   4.044   6.592  15.028  1.1520 -1.2934 -0.3366
 5025TIP3   OH236489   2.969   2.270  14.261 -0.0783  0.2376 -0.1060
 5025TIP3    H136490   2.974   2.180  14.293 -0.9443 -0.2329 -1.2190
 5025TIP3    H236491   2.946   2.322  14.338 -1.0335 -0.7092  0.2705
 5026TIP3   OH236492   2.870   4.230  14.796  0.1990  0.2902  0.2486
 5026TIP3    H136493   2.856   4.198  14.706 -0.4716 -0.2692  0.5422
 5026TIP3    H236494   2.911   4.156  14.841 -0.1646  0.2998  0.5960
 5027TIP3   OH236495   5.622   4.286  12.217 -1.1548  0.0168  0.1791
 5027TIP3    H136496   5.677   4.361  12.196  0.4041 -1.2114 -0.2599
 5027TIP3    H236497   5.578   4.310  12.299 -0.1660  1.1295  0.3951
 5028TIP3   OH236498   2.202   0.415   0.703  0.3877 -0.2513 -0.8420
 5028TIP3    H136499   2.131   0.475   0.681 -0.3425 -1.2134 -1.1946
 5028TIP3    H236500   2.172   0.330   0.669  0.0244 -1.4349  2.2425
 5029TIP3   OH236501   1.156   5.098   2.358  0.1026 -0.4378  0.6036
 5029TIP3    H136502   1.163   5.153   2.280  0.7967 -1.0012  0.2570
 5029TIP3    H236503   1.062   5.093   2.375  0.0409  0.9954  0.7516
 5030TIP3   OH236504   2.860   2.591   2.922  0.0607 -0.6992  0.0372
 5030TIP3    H136505   2.938   2.628   2.882 -1.0406  1.4606 -0.2256
 5030TIP3    H236506   2.805   2.564   2.848 -1.1378  1.5118  0.0575
 5031TIP3   OH236507   3.836   5.488   4.141 -0.3974 -0.1789 -0.4822
 5031TIP3    H136508   3.807   5.476   4.051  0.4263  3.7841 -1.3401
 5031TIP3    H236509   3.932   5.493   4.135 -0.3805  0.8605  0.5280
 5032TIP3   OH236510   5.342   4.759  10.735  0.5458 -0.1956  0.0939
 5032TIP3    H136511   5.362   4.681  10.787  2.1751  0.7925  0.9947
 5032TIP3    H236512   5.292   4.815  10.793 -0.3657 -0.4362 -0.4547
 5033TIP3   OH236513   4.081   6.772  15.886 -0.1203 -0.2431  0.2126
 5033TIP3    H136514   4.161   6.726  15.859  0.4108  0.7611  0.0427
 5033TIP3    H236515   4.063   6.831  15.813 -1.4972 -1.0569 -0.1177
 5034TIP3   OH236516   6.185   2.346  16.492 -0.0507 -0.7469  0.2886
 5034TIP3    H136517   6.130   2.387  16.426 -0.0296 -2.2813 -0.7135
 5034TIP3    H236518   6.265   2.398  16.495 -0.1768 -0.5068 -0.6800
 5035TIP3   OH236519   5.816   6.011   3.059 -0.0650 -0.3548  0.1083
 5035TIP3    H136520   5.908   6.039   3.066 -0.2767  0.1782  0.8255
 5035TIP3    H236521   5.785   6.010   3.150 -0.7532 -0.5906 -0.1327
 5036TIP3   OH236522   2.043   6.567   4.913  0.1459  0.3633  0.0340
 5036TIP3    H136523   2.107   6.598   4.849  0.5835 -1.1745 -0.2868
 5036TIP3    H236524   2.072   6.604   4.996  2.1173 -1.2274  0.0929
 5037TIP3   OH236525   1.457   2.539   6.653  0.9903 -0.5693 -0.1897
 5037TIP3    H136526   1.549   2.513   6.641  1.1778 -0.6373  1.2382
 5037TIP3    H236527   1.432   2.499   6.736 -0.7276 -1.5817 -1.1827
 5038TIP3   OH236528   3.625   6.251   5.848 -0.3015  0.1144  0.5710
 5038TIP3    H136529   3.594   6.256   5.758 -0.7643 -0.8499  0.6748
 5038TIP3    H236530   3.552   6.283   5.901 -0.3013 -0.0140  0.6514
 5039TIP3   OH236531   4.272   4.686   5.971  0.3047 -0.6785 -0.1091
 5039TIP3    H136532   4.245   4.717   6.057  0.2779  2.1162 -1.0663
 5039TIP3    H236533   4.192   4.653   5.930 -0.4504  1.4748 -0.4442
 5040TIP3   OH236534   0.992   1.832   1.250 -0.3989 -0.2509 -0.1002
 5040TIP3    H136535   0.920   1.877   1.294 -0.1658  0.3576 -0.3337
 5040TIP3    H236536   1.071   1.880   1.278 -0.1275 -0.6475 -0.1812
 5041TIP3   OH236537   1.890   4.188  11.157 -0.2907 -0.5882 -0.0579
 5041TIP3    H136538   1.795   4.179  11.151 -0.1260 -1.7699 -1.0400
 5041TIP3    H236539   1.922   4.162  11.071  0.7759  2.1708 -0.5200
 5042TIP3   OH236540   4.983   0.841  11.504 -0.1157  0.5810  0.3257
 5042TIP3    H136541   4.900   0.858  11.461 -0.6434 -0.1786  1.0054
 5042TIP3    H236542   4.970   0.874  11.594  0.4605  0.8434  0.3107
 5043TIP3   OH236543   1.662   3.784  13.042  0.0859  0.0553 -0.1437
 5043TIP3    H136544   1.568   3.798  13.029  0.2473  1.0828 -0.2637
 5043TIP3    H236545   1.703   3.829  12.969  0.5974 -2.2239 -1.3077
 5044TIP3   OH236546   0.975   0.304   2.813 -0.6124  0.0936 -0.2668
 5044TIP3    H136547   0.880   0.300   2.804 -0.6613  0.8401 -0.0966
 5044TIP3    H236548   0.991   0.377   2.872  0.1379  1.2318 -1.8256
 5045TIP3   OH236549   0.130   0.816   1.159 -0.2547  0.1641 -0.0477
 5045TIP3    H136550   0.171   0.887   1.109 -2.1796  1.1094 -0.3140
 5045TIP3    H236551   0.076   0.770   1.096 -0.3815 -0.4712  0.5216
 5046TIP3   OH236552   4.309   0.729   1.326 -0.4595  0.2857 -0.4656
 5046TIP3    H136553   4.214   0.738   1.317 -0.5344  0.0492  0.0724
 5046TIP3    H236554   4.326   0.638   1.302 -0.3626  0.3309 -0.5721
 5047TIP3   OH236555   3.758   1.799  15.460 -0.6659 -0.7146 -0.4660
 5047TIP3    H136556   3.801   1.738  15.520  2.4417  1.5922 -0.1994
 5047TIP3    H236557   3.830   1.849  15.422 -3.0539  2.5843 -0.8749
 5048TIP3   OH236558   6.467   5.861  10.706 -0.3022  0.0307  0.2024
 5048TIP3    H136559   6.431   5.949  10.720 -2.8406 -0.7679 -1.0528
 5048TIP3    H236560   6.477   5.855  10.611  0.7017 -0.7385  0.3513
 5049TIP3   OH236561   1.090   0.630  17.012  0.0021 -0.2285  0.2924
 5049TIP3    H136562   1.066   0.590  17.096  0.1846  0.9225  0.9028
 5049TIP3    H236563   1.027   0.702  17.001 -2.1758 -2.3954 -2.1839
 5050TIP3   OH236564   3.754   2.882   0.840 -0.1198  0.0779  0.5815
 5050TIP3    H136565   3.792   2.853   0.923  3.5883  1.8430 -0.3997
 5050TIP3    H236566   3.796   2.827   0.774  1.7246  2.8701 -0.6401
 5051TIP3   OH236567   0.077   4.704   4.390 -0.2043  0.3719 -0.9311
 5051TIP3    H136568   0.039   4.647   4.457  2.3641 -0.4036 -0.0570
 5051TIP3    H236569   0.045   4.669   4.307 -0.7058 -0.7672 -0.2739
 5052TIP3   OH236570   0.825   2.224   1.922  0.5185  0.0717 -0.0503
 5052TIP3    H136571   0.804   2.139   1.885 -0.8943 -0.2362  1.4205
 5052TIP3    H236572   0.749   2.279   1.902  1.1019  0.7992 -0.3351
 5053TIP3   OH236573   1.543   5.175  11.524  0.4540 -0.2545  0.1203
 5053TIP3    H136574   1.456   5.213  11.514 -0.7475 -3.4573 -2.6623
 5053TIP3    H236575   1.598   5.225  11.464 -0.5069 -1.0818 -1.4846
 5054TIP3   OH236576   6.074   1.925  13.580 -0.3950 -0.4641 -0.2415
 5054TIP3    H136577   6.070   1.929  13.485 -0.1384 -2.2560 -0.3412
 5054TIP3    H236578   6.162   1.892  13.599  1.1872  4.0100  0.7847
 5055TIP3   OH236579   4.660   6.585   0.966  0.2688 -0.3652 -0.4800
 5055TIP3    H136580   4.694   6.670   0.937 -1.3191 -0.0019 -1.3108
 5055TIP3    H236581   4.728   6.522   0.940  0.2963  0.3400 -2.1581
 5056TIP3   OH236582   2.137   1.412  14.796 -0.2613  0.3439  0.1783
 5056TIP3    H136583   2.063   1.470  14.781 -1.3661 -1.1630 -0.3388
 5056TIP3    H236584   2.135   1.394  14.890 -0.1827  0.7972  0.2654
 5057TIP3   OH236585   4.192   3.723   0.074 -0.1464  0.4984 -0.3170
 5057TIP3    H136586   4.138   3.754   0.147 -1.7575 -0.8538 -0.8968
 5057TIP3    H236587   4.138   3.738  -0.003 -0.0719 -1.6653 -0.8226
 5058TIP3   OH236588   3.348   6.639   3.896  0.6004 -0.0083 -0.1753
 5058TIP3    H136589   3.323   6.730   3.883 -1.5994 -0.5134  0.3900
 5058TIP3    H236590   3.437   6.634   3.861  0.8633  2.4061  0.0391
 5059TIP3   OH236591   2.377   1.054   4.693  0.3826 -0.1409 -0.2434
 5059TIP3    H136592   2.382   1.147   4.669  0.1561 -0.3823 -1.2552
 5059TIP3    H236593   2.353   1.010   4.611 -1.4805 -0.8702  0.6611
 5060TIP3   OH236594   1.443   1.237  11.761 -0.0724 -0.3139 -0.0704
 5060TIP3    H136595   1.431   1.253  11.855 -0.4880  0.7059 -0.2951
 5060TIP3    H236596   1.410   1.316  11.719 -0.0832 -0.8580 -1.0906
 5061TIP3   OH236597   4.179   0.797   2.828 -0.3808 -0.2909  0.4131
 5061TIP3    H136598   4.189   0.738   2.753 -1.5643  0.1874 -0.1354
 5061TIP3    H236599   4.178   0.885   2.789 -1.4349 -0.0607  0.9335
 5062TIP3   OH236600   3.476   0.190  11.506  0.1600  0.2221 -0.2024
 5062TIP3    H136601   3.417   0.177  11.581 -0.2130  1.8688 -0.1817
 5062TIP3    H236602   3.467   0.110  11.455 -1.1596 -0.0743  0.4531
 5063TIP3   OH236603   2.861   5.730  14.965  0.4227 -0.0055  0.4708
 5063TIP3    H136604   2.815   5.716  14.882  1.1046  1.2438 -0.1329
 5063TIP3    H236605   2.843   5.821  14.986 -1.2101 -0.7987  2.6099
 5064TIP3   OH236606   3.443   3.234   5.184  0.5260  0.6578 -0.4755
 5064TIP3    H136607   3.478   3.218   5.272 -0.8483 -1.0532 -0.2037
 5064TIP3    H236608   3.510   3.288   5.141  0.5237  2.8257  2.1013
 5065TIP3   OH236609   4.564   2.890   4.772 -0.4514  0.1655  0.4972
 5065TIP3    H136610   4.602   2.944   4.842 -0.5095  0.5650  0.2163
 5065TIP3    H236611   4.491   2.941   4.738 -1.4250 -0.7160  1.2075
 5066TIP3   OH236612   2.296   3.837   3.058  0.1076 -0.3094 -0.1831
 5066TIP3    H136613   2.386   3.870   3.067 -0.5692  1.7146 -0.6032
 5066TIP3    H236614   2.273   3.853   2.967 -1.7152  1.9834  0.6338
 5067TIP3   OH236615   3.853   1.665  12.430 -0.1022  0.4098 -0.9800
 5067TIP3    H136616   3.825   1.701  12.514  0.5452  0.6141 -0.8473
 5067TIP3    H236617   3.772   1.643  12.384 -0.4438 -1.9914  0.6866
 5068TIP3   OH236618   2.302   3.096  12.225  0.2388  0.1169 -0.2736
 5068TIP3    H136619   2.370   3.044  12.181 -2.0314 -2.0450 -1.3378
 5068TIP3    H236620   2.320   3.186  12.198  3.1153 -0.2788  0.0718
 5069TIP3   OH236621   1.394   1.604  12.427  0.7531  0.5531  0.3347
 5069TIP3    H136622   1.422   1.544  12.496 -1.3546 -0.9750 -0.1074
 5069TIP3    H236623   1.428   1.689  12.455  1.7693 -0.4187  2.1535
 5070TIP3   OH236624   5.455   1.297   4.945 -0.6028  0.4006  0.1325
 5070TIP3    H136625   5.405   1.297   4.863 -2.0428 -1.3808  0.9792
 5070TIP3    H236626   5.505   1.379   4.942 -0.4962  0.3051 -2.5923
 5071TIP3   OH236627   3.612   6.183  16.135 -0.1422  0.1250  0.4085
 5071TIP3    H136628   3.550   6.121  16.174 -1.8186  0.6771 -1.2726
 5071TIP3    H236629   3.686   6.129  16.107 -0.4782 -0.7594  1.2089
 5072TIP3   OH236630   3.176   1.147  14.574 -0.6911  0.6375  0.4419
 5072TIP3    H136631   3.096   1.195  14.597 -1.5830 -0.2275 -0.8103
 5072TIP3    H236632   3.195   1.172  14.484 -0.6336 -0.6275  0.0925
 5073TIP3   OH236633   0.014   3.774   1.218 -0.0289 -0.2496 -0.3762
 5073TIP3    H136634  -0.022   3.844   1.274  2.7548  0.3363  0.7853
 5073TIP3    H236635   0.029   3.701   1.278 -1.5969 -1.3911 -1.3323
 5074TIP3   OH236636   1.778   1.703  15.691 -0.1974 -0.2641 -0.7904
 5074TIP3    H136637   1.797   1.728  15.782 -0.2577 -0.3265 -0.7595
 5074TIP3    H236638   1.860   1.666  15.659 -0.4306 -1.0570 -0.4847
 5075TIP3   OH236639   0.078   2.088  16.927 -0.4924  0.4317 -0.3659
 5075TIP3    H136640   0.093   2.149  16.999  2.5683  0.9449 -1.3612
 5075TIP3    H236641   0.030   2.138  16.862 -2.2862  0.2924  0.8045
 5076TIP3   OH236642   3.104   2.790  14.595 -0.0924 -0.3299  0.5013
 5076TIP3    H136643   3.054   2.755  14.521  0.8848 -1.2714  0.2637
 5076TIP3    H236644   3.076   2.881  14.602  0.9854  0.2316 -2.0547
 5077TIP3   OH236645   6.312   6.657  12.913 -0.1693  1.4689  0.0938
 5077TIP3    H136646   6.374   6.589  12.939 -0.7444  1.1075  0.5440
 5077TIP3    H236647   6.300   6.709  12.992  1.3048  2.9173 -0.6166
 5078TIP3   OH236648   3.870   3.398  15.760 -0.3179  0.6193 -0.0122
 5078TIP3    H136649   3.838   3.308  15.758 -0.3574  0.6173  0.7034
 5078TIP3    H236650   3.946   3.398  15.701  1.6882 -0.6498  2.4470
 5079TIP3   OH236651   2.361   4.838   0.138 -0.1689  0.0195 -0.2419
 5079TIP3    H136652   2.443   4.845   0.186 -1.1531  0.6494  1.3695
 5079TIP3    H236653   2.332   4.748   0.152  1.6465 -1.0982 -3.1817
 5080TIP3   OH236654   0.125   2.267  15.816  0.2036  0.3076 -0.2411
 5080TIP3    H136655   0.150   2.286  15.726  1.1733 -0.3314 -0.1181
 5080TIP3    H236656   0.193   2.207  15.848 -0.6584 -0.2311  0.6118
 5081TIP3   OH236657   2.918   6.336   1.629 -0.3147  0.0808 -0.2216
 5081TIP3    H136658   2.866   6.413   1.652 -1.8154 -1.2237  0.9303
 5081TIP3    H236659   2.889   6.269   1.691  3.0054 -0.6172  0.6812
 5082TIP3   OH236660   0.778   0.722  16.229 -0.0353  0.6065 -0.3324
 5082TIP3    H136661   0.724   0.763  16.161  0.1680  2.7551  0.7667
 5082TIP3    H236662   0.840   0.667  16.180 -2.7499 -1.4102 -1.6439
 5083TIP3   OH236663   4.798   1.833  12.114  0.2419 -0.0529  0.2441
 5083TIP3    H136664   4.849   1.762  12.153  2.3245  0.9948 -0.4931
 5083TIP3    H236665   4.853   1.911  12.126 -0.6340  0.8812 -1.6684
 5084TIP3   OH236666   2.601   4.822   4.384 -0.0417  0.0029 -0.5343
 5084TIP3    H136667   2.543   4.824   4.308  0.4814 -0.9541 -0.9631
 5084TIP3    H236668   2.555   4.876   4.450 -1.1480 -0.2776 -1.0571
 5085TIP3   OH236669   0.663   3.712   6.709 -0.0602 -0.0104 -0.0252
 5085TIP3    H136670   0.750   3.715   6.668 -0.2232  0.0248 -0.3714
 5085TIP3    H236671   0.675   3.755   6.793  0.6559 -1.4984  0.6572
 5086TIP3   OH236672   4.697   4.288   4.311 -0.0862 -0.3872  0.2776
 5086TIP3    H136673   4.686   4.200   4.347  1.5108 -1.6092 -2.0990
 5086TIP3    H236674   4.784   4.287   4.271 -0.8875  1.6191 -1.6212
 5087TIP3   OH236675   3.796   3.941   2.081 -0.6454  0.2007  0.7288
 5087TIP3    H136676   3.710   3.953   2.121  0.1324  1.0377  2.1743
 5087TIP3    H236677   3.836   4.028   2.084  0.4222 -0.2808  0.4547
 5088TIP3   OH236678   4.973   4.103  12.871  0.0832 -0.4623 -0.0880
 5088TIP3    H136679   5.033   4.176  12.860 -3.2116  2.6339  1.3529
 5088TIP3    H236680   4.943   4.110  12.962  0.0364 -3.9233  0.2332
 5089TIP3   OH236681   2.712   2.023   2.152  0.5002 -0.3184  0.1066
 5089TIP3    H136682   2.719   1.961   2.225 -1.3163 -0.0350  0.5509
 5089TIP3    H236683   2.767   1.985   2.084  0.7866 -1.5366  0.9912
 5090TIP3   OH236684   4.368   5.197  11.015  0.4257 -0.2247  0.0865
 5090TIP3    H136685   4.415   5.114  11.013  0.9294  0.0353  0.7303
 5090TIP3    H236686   4.289   5.182  10.963  0.7782 -0.9393 -0.2478
 5091TIP3   OH236687   0.881   2.018   3.538  0.0980 -0.0316 -0.1821
 5091TIP3    H136688   0.891   2.027   3.443  0.9485 -0.8212 -0.1717
 5091TIP3    H236689   0.788   1.999   3.551 -0.2639  1.2867 -0.7573
 5092TIP3   OH236690   1.560   6.581  11.315 -0.6804 -0.1629  0.0674
 5092TIP3    H136691   1.527   6.536  11.393 -0.5161  1.1984  0.9371
 5092TIP3    H236692   1.492   6.644  11.292  0.2200  0.9803  0.4434
 5093TIP3   OH236693   3.729   1.507  11.034 -0.4572 -0.3779 -0.2940
 5093TIP3    H136694   3.671   1.501  11.110  0.8228 -1.5807  0.6363
 5093TIP3    H236695   3.698   1.439  10.975  0.4204 -1.5292  0.5313
 5094TIP3   OH236696   0.306   0.145  10.925  0.2148 -0.2294  0.4011
 5094TIP3    H136697   0.263   0.136  11.009 -1.3065  0.7294 -0.2540
 5094TIP3    H236698   0.285   0.064  10.878 -0.4213 -0.0064  0.2952
 5095TIP3   OH236699   3.612   1.626   2.793 -0.3709 -0.2763  0.1203
 5095TIP3    H136700   3.641   1.713   2.766 -0.2887 -0.1646  0.5707
 5095TIP3    H236701   3.691   1.572   2.790 -0.7077 -0.7149 -1.6729
 5096TIP3   OH236702   6.328   4.233  10.962  0.0945  0.3173 -0.1158
 5096TIP3    H136703   6.297   4.143  10.958  2.3319 -0.6837  2.8308
 5096TIP3    H236704   6.422   4.227  10.945 -0.2197  2.5441 -3.0711
 5097TIP3   OH236705   5.056   6.504  12.477  0.4368 -0.0423  0.1316
 5097TIP3    H136706   5.084   6.488  12.387 -0.9087 -0.7282 -0.1787
 5097TIP3    H236707   5.080   6.424  12.524 -1.1067 -0.7103 -0.1753
 5098TIP3   OH236708   5.247   0.642  12.795 -0.0693  0.2624  0.1379
 5098TIP3    H136709   5.158   0.640  12.829 -0.5676 -0.9796 -1.2039
 5098TIP3    H236710   5.292   0.572  12.843  0.2682  1.1002  1.0444
 5099TIP3   OH236711   5.880   1.809   0.636 -0.5254  0.0232  0.3792
 5099TIP3    H136712   5.791   1.844   0.627 -0.3416  0.2807 -0.5047
 5099TIP3    H236713   5.926   1.840   0.558  0.4509  0.2101  1.0173
 5100TIP3   OH236714   1.023   1.876   4.813 -0.3417  0.2763  0.0360
 5100TIP3    H136715   1.105   1.918   4.838 -0.5550  0.8392 -0.2029
 5100TIP3    H236716   0.991   1.835   4.893  1.5514 -2.3023 -0.4754
 5101TIP3   OH236717   2.518   0.317  14.640 -0.3085 -0.1582 -0.1160
 5101TIP3    H136718   2.470   0.327  14.722  0.7206  0.7951  0.3645
 5101TIP3    H236719   2.487   0.389  14.585 -0.8546 -0.6845 -0.5156
 5102TIP3   OH236720   3.477   2.516  12.876  0.6722  0.2526  0.0379
 5102TIP3    H136721   3.519   2.599  12.903  2.2309 -0.4914 -0.0234
 5102TIP3    H236722   3.443   2.480  12.958  0.0220  0.9208  0.0735
 5103TIP3   OH236723   0.900   3.491  11.808  0.1046 -0.6093  0.1594
 5103TIP3    H136724   0.892   3.548  11.884 -0.2276 -1.6423  0.9181
 5103TIP3    H236725   0.841   3.528  11.743  1.6199  1.2242 -0.1896
 5104TIP3   OH236726   2.182   3.293   3.020  0.0764 -0.1687 -0.1712
 5104TIP3    H136727   2.214   3.236   2.950  1.1601  0.0974  0.1018
 5104TIP3    H236728   2.246   3.283   3.090 -0.7674 -0.0880  0.6145
 5105TIP3   OH236729   5.302   4.478  12.313 -0.2336  0.0141  0.0010
 5105TIP3    H136730   5.302   4.480  12.217 -2.5994  1.6798  0.0018
 5105TIP3    H236731   5.236   4.413  12.336  1.2042 -1.2988  0.5396
 5106TIP3   OH236732   3.235   0.220   2.819  0.3133  0.9457 -0.4550
 5106TIP3    H136733   3.279   0.165   2.884  0.9456  0.3756 -1.3580
 5106TIP3    H236734   3.262   0.310   2.841  0.0087  0.8156  0.4590
 5107TIP3   OH236735   0.527   1.115  13.939  0.5498  0.1839 -0.1658
 5107TIP3    H136736   0.511   1.021  13.935  1.5448  0.0898 -2.4494
 5107TIP3    H236737   0.467   1.146  14.007 -1.1549 -1.8194 -0.6926
 5108TIP3   OH236738   4.982   2.577  16.904  0.5403 -0.0782 -0.2909
 5108TIP3    H136739   5.052   2.622  16.951 -0.6752  0.7914  0.7047
 5108TIP3    H236740   4.903   2.627  16.923 -0.8720 -2.6682  0.9455
 5109TIP3   OH236741   3.153   3.293   2.531 -0.4151  0.7791 -0.2304
 5109TIP3    H136742   3.186   3.274   2.443 -1.1493 -0.4045 -0.2626
 5109TIP3    H236743   3.073   3.241   2.538  0.6899 -0.7015  1.8842
 5110TIP3   OH236744   6.718   5.268  14.102  0.5779  0.1101 -0.2158
 5110TIP3    H136745   6.730   5.196  14.040  1.4604 -0.4089  0.5517
 5110TIP3    H236746   6.671   5.335  14.052  0.1631 -0.8062 -1.0731
 5111TIP3   OH236747   1.733   6.168  14.132  0.0865  0.0370  0.5186
 5111TIP3    H136748   1.739   6.262  14.145 -0.7936  0.2486 -0.5072
 5111TIP3    H236749   1.640   6.152  14.116  0.3580 -0.8891 -0.1686
 5112TIP3   OH236750   4.263   4.684  12.329 -0.4721  0.2615 -0.0740
 5112TIP3    H136751   4.255   4.686  12.234 -0.0769  0.7202 -0.1003
 5112TIP3    H236752   4.357   4.673  12.345 -0.2344  2.4971  0.2690
 5113TIP3   OH236753   0.798   6.749   3.824 -0.2603 -0.0358 -0.0594
 5113TIP3    H136754   0.885   6.740   3.863 -0.0087 -0.6605 -0.7364
 5113TIP3    H236755   0.808   6.820   3.760  0.8939 -2.8051 -3.1214
 5114TIP3   OH236756   5.290   0.889  16.223 -0.6750  0.0281  0.0831
 5114TIP3    H136757   5.213   0.915  16.275  0.3397  0.8010  1.2418
 5114TIP3    H236758   5.312   0.967  16.173  0.5329  0.4712  1.2587
 5115TIP3   OH236759   5.444   1.177   3.587  0.3911 -0.1648 -0.1675
 5115TIP3    H136760   5.354   1.182   3.618  0.1340 -2.1933 -0.4782
 5115TIP3    H236761   5.451   1.244   3.519 -0.9843 -0.2198 -0.3637
 5116TIP3   OH236762   2.569   0.579  11.281 -0.2521  0.5080  0.2658
 5116TIP3    H136763   2.568   0.634  11.202 -1.1332  0.7492  0.4396
 5116TIP3    H236764   2.509   0.507  11.261  1.0565 -0.5148 -0.0396
 5117TIP3   OH236765   3.993   2.024   1.822 -0.0873  0.1044 -0.1514
 5117TIP3    H136766   3.954   1.939   1.801  0.7151  0.1504 -1.9319
 5117TIP3    H236767   4.070   2.029   1.764  0.7511  1.3606  1.0610
 5118TIP3   OH236768   3.147   3.694   3.308  0.0140 -0.5327  0.4777
 5118TIP3    H136769   3.217   3.759   3.322 -0.1949 -1.0281  4.4009
 5118TIP3    H236770   3.193   3.613   3.287  0.5117 -0.2096  0.3197
 5119TIP3   OH236771   3.535   5.218   0.431 -0.2275  0.0961  0.1254
 5119TIP3    H136772   3.619   5.258   0.408  0.1953 -1.4491 -1.0692
 5119TIP3    H236773   3.547   5.125   0.414 -1.7149 -0.3368  1.3806
 5120TIP3   OH236774   0.370   1.354  11.136  0.6488  0.5186 -0.5722
 5120TIP3    H136775   0.465   1.349  11.143  0.6149  2.0740  1.4329
 5120TIP3    H236776   0.338   1.277  11.184  0.8858  0.4730 -0.4886
 5121TIP3   OH236777   0.590   3.656  13.324  0.4073 -0.0598 -0.2067
 5121TIP3    H136778   0.586   3.564  13.350 -1.9040 -0.1884 -0.8910
 5121TIP3    H236779   0.505   3.692  13.350  1.5330  2.0744  0.6645
 5122TIP3   OH236780   0.297   1.233   1.818 -0.6522  0.2190 -0.2580
 5122TIP3    H136781   0.264   1.313   1.778 -2.5817  0.1377  1.1282
 5122TIP3    H236782   0.342   1.263   1.897  0.8784  0.1381 -1.0699
 5123TIP3   OH236783   5.433   1.196  12.098 -0.6263  0.2133 -0.1727
 5123TIP3    H136784   5.448   1.109  12.060 -0.0814  0.4407 -0.4866
 5123TIP3    H236785   5.379   1.179  12.176  0.0909 -0.4948  0.1836
 5124TIP3   OH236786   1.783   4.944   1.289 -0.2742 -0.1561 -0.3090
 5124TIP3    H136787   1.702   4.990   1.269 -1.7390 -1.6504  1.8178
 5124TIP3    H236788   1.823   4.996   1.359 -0.4608 -0.5296  0.0782
 5125TIP3   OH236789   6.046   1.797  12.057 -0.1952  0.4223 -0.1892
 5125TIP3    H136790   5.962   1.844  12.058  0.1065  0.9824 -0.7177
 5125TIP3    H236791   6.086   1.818  12.141 -0.5853  0.1491  0.0689
 5126TIP3   OH236792   2.873   2.501   5.231  0.5629  0.2088 -0.2999
 5126TIP3    H136793   2.967   2.521   5.235  0.2781  1.1912  3.8482
 5126TIP3    H236794   2.834   2.579   5.193  1.5992 -1.1383 -4.3280
 5127TIP3   OH236795   0.679   1.629  15.590  0.3091 -0.2905 -0.3457
 5127TIP3    H136796   0.592   1.609  15.555  0.3215  1.0029 -1.1347
 5127TIP3    H236797   0.736   1.562  15.553 -0.1831 -0.5966 -0.5520
 5128TIP3   OH236798   0.688   4.540   5.997 -0.0813  0.5717 -0.3628
 5128TIP3    H136799   0.761   4.589   5.959  0.5994 -0.6294 -0.6271
 5128TIP3    H236800   0.711   4.532   6.090  0.2612 -0.0439 -0.4990
 5129TIP3   OH236801   1.135   1.999  15.588 -0.1130  0.0437 -0.1454
 5129TIP3    H136802   1.041   1.991  15.574  0.0930 -1.1550 -0.9118
 5129TIP3    H236803   1.156   2.088  15.558 -0.8971  0.0862 -0.5869
 5130TIP3   OH236804   3.918   5.676   6.580  0.0030 -0.0224 -0.4225
 5130TIP3    H136805   3.993   5.663   6.638 -0.7069 -0.2106  0.4599
 5130TIP3    H236806   3.887   5.764   6.601 -0.0339  0.0525 -0.7862
 5131TIP3   OH236807   1.624   4.960  14.488 -0.6278  0.4771  0.3898
 5131TIP3    H136808   1.618   4.929  14.398  1.6422  2.8960 -0.6540
 5131TIP3    H236809   1.643   4.881  14.540 -1.3635 -0.8301 -1.2955
 5132TIP3   OH236810   3.092   5.023  15.444  0.2942  0.6642  0.2660
 5132TIP3    H136811   3.036   4.966  15.391  0.9260 -1.1348  1.4843
 5132TIP3    H236812   3.031   5.073  15.498 -0.2841  1.3766 -1.0307
 5133TIP3   OH236813   5.598   5.331  16.321 -0.6166  0.0400 -0.4081
 5133TIP3    H136814   5.622   5.254  16.372 -0.5251  0.7300  0.6075
 5133TIP3    H236815   5.599   5.301  16.230  1.4745 -0.6384 -0.1897
 5134TIP3   OH236816   0.789   3.495   6.098  0.0010  0.3096  0.1556
 5134TIP3    H136817   0.696   3.483   6.115  0.1166 -0.1255  0.4807
 5134TIP3    H236818   0.811   3.577   6.144 -0.5931  1.3531 -1.3631
 5135TIP3   OH236819   6.248   6.408   4.345  0.0340 -0.5609  0.7085
 5135TIP3    H136820   6.343   6.415   4.339 -0.0705  0.1370 -0.2403
 5135TIP3    H236821   6.215   6.478   4.288 -1.0512  0.6256  2.7397
 5136TIP3   OH236822   3.940   1.670  14.568  0.4118 -0.5998  0.8257
 5136TIP3    H136823   3.877   1.638  14.633 -2.2339  1.3011 -0.7052
 5136TIP3    H236824   4.007   1.714  14.620  0.2053 -2.1648  2.4726
 5137TIP3   OH236825   1.621   0.866  15.213 -0.1194 -0.2903 -0.0716
 5137TIP3    H136826   1.600   0.952  15.178 -0.0785 -0.1535  0.2430
 5137TIP3    H236827   1.608   0.874  15.307  0.0769 -0.5720 -0.0202
 5138TIP3   OH236828   2.174   1.526  13.793  0.0665 -0.2010  0.0949
 5138TIP3    H136829   2.155   1.616  13.769  1.7139 -0.1196 -0.9663
 5138TIP3    H236830   2.092   1.492  13.828 -0.5672  1.6916  0.4705
 5139TIP3   OH236831   2.960   5.968   1.166 -0.7070 -0.1908  0.0725
 5139TIP3    H136832   3.001   5.892   1.207 -0.1748  1.6453  3.0013
 5139TIP3    H236833   2.874   5.975   1.208  0.0357  1.9942  1.3076
 5140TIP3   OH236834   3.388   5.328  12.141 -0.2707  0.3970  0.0060
 5140TIP3    H136835   3.452   5.290  12.202  1.3305  2.1012 -0.5493
 5140TIP3    H236836   3.384   5.266  12.069 -0.9321 -0.8180  1.0586
 5141TIP3   OH236837   0.820   2.249   4.217 -0.8079  0.6557 -0.2011
 5141TIP3    H136838   0.892   2.239   4.156  0.4648 -0.9308  1.4915
 5141TIP3    H236839   0.828   2.339   4.250  0.7579  0.3166  0.3811
 5142TIP3   OH236840   6.451   5.270  12.667 -0.0356 -0.4409 -0.5887
 5142TIP3    H136841   6.386   5.331  12.632 -0.4224 -0.7277 -0.3730
 5142TIP3    H236842   6.514   5.258  12.596 -0.0675  0.0510 -0.7016
 5143TIP3   OH236843   2.311   1.448  13.202 -0.7071 -0.3811  0.0682
 5143TIP3    H136844   2.282   1.373  13.151  0.2844 -0.8741  0.2288
 5143TIP3    H236845   2.388   1.418  13.249 -0.3124  0.7181  0.1576
 5144TIP3   OH236846   2.351   2.808  12.357 -0.1717  0.0643 -0.4866
 5144TIP3    H136847   2.378   2.882  12.301  0.2355  0.2568 -0.0432
 5144TIP3    H236848   2.431   2.756  12.367 -0.0571  0.4418  0.5477
 5145TIP3   OH236849   2.802   6.144  13.687 -0.2190 -0.4871 -0.0842
 5145TIP3    H136850   2.846   6.066  13.654 -1.7477 -1.2422 -0.3953
 5145TIP3    H236851   2.780   6.194  13.609  0.5430  0.1447  0.0992
 5146TIP3   OH236852   5.567   2.285  13.715 -0.2152  0.6012  0.4034
 5146TIP3    H136853   5.613   2.230  13.779  2.6126  3.1124  0.6648
 5146TIP3    H236854   5.604   2.259  13.631 -2.4524 -1.2603 -0.0587
 5147TIP3   OH236855   1.534   6.676   2.113 -0.1473 -0.0822  0.2102
 5147TIP3    H136856   1.473   6.738   2.154  0.4782  0.3867  0.4394
 5147TIP3    H236857   1.482   6.632   2.046 -0.1081  2.0394 -1.2461
 5148TIP3   OH236858   4.413   0.855   2.147 -0.6674  0.3070 -0.0835
 5148TIP3    H136859   4.340   0.847   2.209  0.0774 -0.9020  0.6558
 5148TIP3    H236860   4.401   0.782   2.087  1.0023 -1.0365  1.1911
 5149TIP3   OH236861   6.537   6.125   1.735  0.3556  0.1025  0.7350
 5149TIP3    H136862   6.609   6.181   1.762  0.5276  0.2995 -0.1327
 5149TIP3    H236863   6.461   6.161   1.781 -0.0447  2.6828 -1.8262
 5150TIP3   OH236864   1.195   0.211  10.922  0.1694  0.9622 -0.2637
 5150TIP3    H136865   1.115   0.178  10.962  0.7098 -0.8188 -0.6117
 5150TIP3    H236866   1.167   0.288  10.873 -1.3322  0.3820 -0.3478
 5151TIP3   OH236867   0.707   0.837   0.103 -0.3924 -0.0836  0.6766
 5151TIP3    H136868   0.694   0.888   0.023 -0.3277  0.3430  0.9429
 5151TIP3    H236869   0.710   0.901   0.173  2.3770 -0.2047  0.7426
 5152TIP3   OH236870   0.331   0.498   4.697  0.4428  0.2626 -0.2499
 5152TIP3    H136871   0.275   0.458   4.631 -0.6595 -1.3315  1.5960
 5152TIP3    H236872   0.346   0.587   4.665 -0.7402 -0.2181 -2.2195
 5153TIP3   OH236873   6.330   0.650   2.093 -0.0996 -0.0283  0.0377
 5153TIP3    H136874   6.368   0.731   2.126  1.2846 -0.5193 -0.3271
 5153TIP3    H236875   6.399   0.585   2.105 -0.8998 -0.9687 -0.4531
 5154TIP3   OH236876   1.689   1.238   6.359 -0.5008  0.0274 -0.2109
 5154TIP3    H136877   1.671   1.237   6.453 -0.4519  3.0087 -0.1106
 5154TIP3    H236878   1.764   1.179   6.348 -1.0196 -0.9942  1.4832
 5155TIP3   OH236879   6.617   6.285   2.136 -0.4349 -0.0607  0.0073
 5155TIP3    H136880   6.584   6.195   2.139 -1.4138  0.1963 -2.2609
 5155TIP3    H236881   6.712   6.275   2.129 -0.4468 -0.8786  0.8099
 5156TIP3   OH236882   2.027   2.576   0.048 -0.0487 -0.0901 -0.0824
 5156TIP3    H136883   2.113   2.540   0.028  0.1191  0.2326  0.0451
 5156TIP3    H236884   1.968   2.540  -0.018  0.3975  0.5732 -0.8490
 5157TIP3   OH236885   3.550   5.681  12.108 -0.2581  0.2853 -0.2288
 5157TIP3    H136886   3.544   5.734  12.028 -2.1424 -0.6955 -0.7733
 5157TIP3    H236887   3.468   5.699  12.154 -1.3791 -2.9000 -0.9008
 5158TIP3   OH236888   3.272   5.343  13.868 -0.3865 -0.1133  0.4550
 5158TIP3    H136889   3.182   5.364  13.842 -0.3670  1.7467  1.7226
 5158TIP3    H236890   3.327   5.390  13.804 -0.3287  0.0522  0.6245
 5159TIP3   OH236891   0.845   3.690  12.039  0.6610  0.4859  0.4115
 5159TIP3    H136892   0.794   3.757  11.995 -0.7112 -0.7188  0.1312
 5159TIP3    H236893   0.791   3.663  12.114  1.2127 -0.2691  0.5445
 5160TIP3   OH236894   3.914   5.118  12.939  0.4320  0.3270 -0.0595
 5160TIP3    H136895   3.892   5.071  13.019 -0.9667 -0.3597 -0.8447
 5160TIP3    H236896   3.978   5.184  12.967  0.2346 -0.1509  1.5439
 5161TIP3   OH236897   5.498   6.078   1.350 -0.1581  0.3293  0.7335
 5161TIP3    H136898   5.454   6.143   1.295 -1.9318  0.0084  1.7130
 5161TIP3    H236899   5.541   6.019   1.289  0.1827  1.5501 -0.2123
 5162TIP3   OH236900   6.026   0.132  15.281  0.1066 -0.3495 -0.4193
 5162TIP3    H136901   6.027   0.199  15.349 -2.2310 -1.2110  0.5213
 5162TIP3    H236902   6.053   0.178  15.201 -0.4081  1.4451  0.4161
 5163TIP3   OH236903   2.532   1.068  15.502 -0.0322 -0.1544 -0.4427
 5163TIP3    H136904   2.591   1.047  15.430 -0.4838  1.4273 -1.3099
 5163TIP3    H236905   2.586   1.061  15.580  1.2284  0.9403 -1.1964
 5164TIP3   OH236906   1.153   2.391  11.012  0.2991  0.5406  0.8476
 5164TIP3    H136907   1.232   2.336  11.015  0.0481  0.1925  1.0566
 5164TIP3    H236908   1.135   2.402  10.919 -1.5952 -2.5298  0.7690
 5165TIP3   OH236909   5.710   2.514  16.035  0.0193 -0.2937  0.3587
 5165TIP3    H136910   5.634   2.484  16.085 -1.1629  2.7021  0.4541
 5165TIP3    H236911   5.765   2.559  16.099  1.0941 -0.9986 -0.0495
 5166TIP3   OH236912   1.291   4.070  12.862  0.2099  0.7159 -0.5540
 5166TIP3    H136913   1.209   4.021  12.875  1.1794 -0.8317 -0.1952
 5166TIP3    H236914   1.310   4.061  12.769  1.7267 -1.7792 -0.0372
 5167TIP3   OH236915   1.435   3.768   2.825  0.4861 -0.1045 -0.1080
 5167TIP3    H136916   1.517   3.719   2.824 -0.0034 -0.9382 -2.2298
 5167TIP3    H236917   1.444   3.832   2.755 -0.2797  0.4593  0.2994
 5168TIP3   OH236918   3.160   5.967  17.179 -0.4245  0.1497 -0.0031
 5168TIP3    H136919   3.177   5.897  17.242  0.1567  1.0313  0.8302
 5168TIP3    H236920   3.212   6.041  17.211 -1.6232  1.1977 -0.4429
 5169TIP3   OH236921   6.074   5.956   4.363 -0.0889  0.3958  0.0633
 5169TIP3    H136922   6.037   5.993   4.282  0.1530  2.7157  0.9543
 5169TIP3    H236923   5.999   5.949   4.422  0.2141  1.3918  0.5703
 5170TIP3   OH236924   3.088   5.768  15.760 -0.3638 -0.0926  0.1188
 5170TIP3    H136925   3.148   5.698  15.786 -1.3223 -0.8769  0.2492
 5170TIP3    H236926   3.005   5.723  15.742 -1.2793  1.1439  1.2068
 5171TIP3   OH236927   0.911   2.663   2.594 -0.3105 -0.8491 -0.3633
 5171TIP3    H136928   0.914   2.735   2.531 -1.2044 -0.5465 -0.0833
 5171TIP3    H236929   1.000   2.631   2.599 -0.4960 -1.8015 -2.8318
 5172TIP3   OH236930   0.328   0.495   4.327 -0.1852 -0.1540  0.2364
 5172TIP3    H136931   0.397   0.438   4.360 -0.0650  0.4819  1.0966
 5172TIP3    H236932   0.372   0.579   4.310 -0.6617  0.1450  0.4503
 5173TIP3   OH236933   2.426   3.983  11.027  0.0055  0.0726  0.0546
 5173TIP3    H136934   2.345   4.002  11.074  0.0937  1.9156 -0.5112
 5173TIP3    H236935   2.421   3.889  11.009 -2.1489  0.2083 -0.2277
 5174TIP3   OH236936   0.162   2.052   0.410 -0.5257 -0.0436 -0.1918
 5174TIP3    H136937   0.098   2.103   0.458  1.7954  1.9607  0.8712
 5174TIP3    H236938   0.164   1.967   0.455 -0.2836  0.9186  1.6447
 5175TIP3   OH236939   2.914   1.271   6.256  0.0021  0.3358  0.9074
 5175TIP3    H136940   2.827   1.292   6.289 -0.4890 -0.2244 -0.0018
 5175TIP3    H236941   2.960   1.233   6.331 -0.4870  0.7689  1.4312
 5176TIP3   OH236942   2.274   5.299   6.080 -0.0054 -0.2563  0.5244
 5176TIP3    H136943   2.190   5.282   6.038  1.0085 -0.5312 -1.4517
 5176TIP3    H236944   2.330   5.331   6.009  2.1018 -1.8871  1.3942
 5177TIP3   OH236945   1.436   5.971   1.139 -0.0489 -0.2184 -0.1519
 5177TIP3    H136946   1.514   6.009   1.182  2.0304 -0.9411 -3.1472
 5177TIP3    H236947   1.471   5.904   1.081 -3.1809 -2.3886  0.3664
 5178TIP3   OH236948   0.859   2.951  16.641  0.1885  0.1919 -0.1809
 5178TIP3    H136949   0.799   2.996  16.581  0.3835 -0.4783 -0.8888
 5178TIP3    H236950   0.806   2.882  16.680  0.4391 -0.2627 -0.6425
 5179TIP3   OH236951   4.213   4.652   3.974  0.7144  0.1241  0.2438
 5179TIP3    H136952   4.236   4.580   3.916 -0.1217 -0.9724  1.2321
 5179TIP3    H236953   4.177   4.720   3.916 -0.0519 -0.9264 -0.5284
 5180TIP3   OH236954   4.290   0.546   6.008 -0.6218  0.0652  0.2597
 5180TIP3    H136955   4.365   0.607   6.010  0.7171 -1.2616 -4.0800
 5180TIP3    H236956   4.221   0.593   6.055  0.9481  4.1509 -1.2186
 5181TIP3   OH236957   6.187   0.671  17.025 -0.0170  0.3901 -0.4595
 5181TIP3    H136958   6.246   0.686  16.952 -0.6813  0.4270 -0.9933
 5181TIP3    H236959   6.131   0.599  16.996  0.8303 -0.7594  0.6828
 5182TIP3   OH236960   5.201   0.889  14.646  0.0924 -0.5244 -0.1737
 5182TIP3    H136961   5.188   0.872  14.739 -1.2711 -0.8572 -0.4222
 5182TIP3    H236962   5.157   0.973  14.631  0.0270 -0.6332 -0.5873
 5183TIP3   OH236963   1.708   3.782  11.334 -0.1768 -0.1049  0.3421
 5183TIP3    H136964   1.731   3.792  11.241  2.5670 -0.6203  0.9254
 5183TIP3    H236965   1.625   3.829  11.343  0.7407  2.0480 -1.8615
 5184TIP3   OH236966   1.026   6.678   2.259 -0.2478 -0.0829 -0.1070
 5184TIP3    H136967   1.085   6.623   2.311 -1.0133  1.1078  2.0779
 5184TIP3    H236968   1.083   6.721   2.195  0.7470 -1.3962 -0.1297
 5185TIP3   OH236969   4.996   1.967  14.557  0.8375 -0.5848  0.2305
 5185TIP3    H136970   4.985   2.061  14.565 -4.9162 -1.2206  1.6424
 5185TIP3    H236971   5.060   1.944  14.624  0.8071  2.0581  1.2060
 5186TIP3   OH236972   4.618   2.181   0.799  0.0037 -0.7319  0.7017
 5186TIP3    H136973   4.657   2.100   0.832  3.3132  0.7710  0.5838
 5186TIP3    H236974   4.654   2.192   0.712  0.9927  1.8035  1.4038
 5187TIP3   OH236975   2.996   6.181   3.021  0.7857  0.1988 -0.7107
 5187TIP3    H136976   3.040   6.265   3.030  0.0994  0.4114  1.0011
 5187TIP3    H236977   3.063   6.116   3.040  0.6897  0.4822  0.7172
 5188TIP3   OH236978   2.767   0.911  12.124  0.2272  0.2471  0.8437
 5188TIP3    H136979   2.744   0.897  12.216 -1.1048  3.7465  1.1062
 5188TIP3    H236980   2.689   0.949  12.085  1.7577  1.6264 -0.9982
 5189TIP3   OH236981   4.400   6.091   6.223  0.1433  0.0695  0.1027
 5189TIP3    H136982   4.333   6.074   6.156 -0.2098 -0.6167  0.6165
 5189TIP3    H236983   4.477   6.045   6.191 -0.1049 -0.4852  0.2952
 5190TIP3   OH236984   0.110   3.928   4.733  0.2952 -0.4024 -0.5613
 5190TIP3    H136985   0.157   3.932   4.816  0.8925 -0.3269 -0.9014
 5190TIP3    H236986   0.145   3.851   4.689  0.4801 -0.0368 -1.0465
 5191TIP3   OH236987   5.055   2.944  15.091 -0.0458 -0.5931  0.7547
 5191TIP3    H136988   5.129   2.982  15.139 -1.1818  0.8037  1.4216
 5191TIP3    H236989   5.064   2.979  15.003  0.0141 -0.3222  0.8671
 5192TIP3   OH236990   5.475   1.891   4.639  0.5485 -0.3358  0.3833
 5192TIP3    H136991   5.445   1.813   4.593 -0.5253 -0.1125  0.7068
 5192TIP3    H236992   5.413   1.903   4.711 -0.7469  2.1761 -1.0841
 5193TIP3   OH236993   3.780   4.501   1.313  0.5034  0.6451  0.3872
 5193TIP3    H136994   3.763   4.461   1.398  1.6841  1.6189  1.0868
 5193TIP3    H236995   3.826   4.582   1.333 -0.6570  1.6923 -1.0900
 5194TIP3   OH236996   4.465   2.923  11.668  0.2923  0.0488 -0.5090
 5194TIP3    H136997   4.452   3.007  11.623 -0.5074 -0.8142 -1.9481
 5194TIP3    H236998   4.377   2.894  11.690  0.5391 -0.5891 -0.3608
 5195TIP3   OH236999   3.152   3.168  11.530  0.0585  0.2659  0.7241
 5195TIP3    H137000   3.065   3.207  11.538 -0.3694 -0.4387 -0.3297
 5195TIP3    H237001   3.213   3.239  11.551 -0.7328  1.1774 -0.0407
 5196TIP3   OH237002   6.007   3.877   1.937 -0.2036 -0.3559  0.0093
 5196TIP3    H137003   6.009   3.853   1.845  0.4357  0.0572 -0.0889
 5196TIP3    H237004   5.963   3.962   1.939  0.0940 -0.2022  0.0468
 5197TIP3   OH237005   3.016   3.056  11.268  0.3528  0.0861 -0.8444
 5197TIP3    H137006   3.075   2.981  11.278  0.1185 -0.1679 -1.3442
 5197TIP3    H237007   3.069   3.122  11.223  0.0491 -0.3916 -1.9115
 5198TIP3   OH237008   0.132   6.083  13.766 -0.0465  0.7753 -0.0433
 5198TIP3    H137009   0.099   6.114  13.850 -0.3790  1.0619 -0.2795
 5198TIP3    H237010   0.227   6.088  13.775 -0.0451 -0.4074  0.7769
 5199TIP3   OH237011   3.073   5.927  14.170 -1.0244  0.6900  0.2347
 5199TIP3    H137012   2.984   5.961  14.181 -1.5972 -0.8115  0.3284
 5199TIP3    H237013   3.076   5.849  14.224  0.5276  1.0074  0.6375
 5200TIP3   OH237014   0.849   5.914  11.622 -0.0773 -0.2855 -0.2338
 5200TIP3    H137015   0.805   5.856  11.685  0.8567 -1.1225 -0.3387
 5200TIP3    H237016   0.915   5.959  11.675 -1.5525  1.5701  0.0975
 5201TIP3   OH237017   4.660   3.732   4.285 -0.1108 -0.2671  0.1408
 5201TIP3    H137018   4.679   3.729   4.191  1.1400  0.0045  0.3800
 5201TIP3    H237019   4.723   3.671   4.324 -0.3018 -0.0161  0.8556
 5202TIP3   OH237020   4.399   0.003   1.700 -0.2551  0.3630 -0.3519
 5202TIP3    H137021   4.450  -0.060   1.649 -3.4290 -0.9050 -2.1339
 5202TIP3    H237022   4.454   0.025   1.775  1.7167 -3.0350 -0.7400
 5203TIP3   OH237023   4.867   0.870   2.499 -0.0267 -0.1675  0.4523
 5203TIP3    H137024   4.942   0.831   2.543  0.0412  0.4829  0.9121
 5203TIP3    H237025   4.857   0.819   2.419 -0.1788 -1.3996  1.2314
 5204TIP3   OH237026   4.634   2.947  12.194 -0.0522  0.0649 -0.3673
 5204TIP3    H137027   4.612   3.003  12.269  0.0650  0.8638 -0.9180
 5204TIP3    H237028   4.664   3.009  12.127 -0.5424 -0.6085 -1.2084
 5205TIP3   OH237029   3.293   5.456   4.897 -0.3480 -0.1288  0.5392
 5205TIP3    H137030   3.247   5.488   4.819  1.6517  0.3783 -0.4621
 5205TIP3    H237031   3.233   5.473   4.969 -1.2348  1.6418 -0.5891
 5206TIP3   OH237032   6.197   5.268  11.921  0.0087  0.0456 -0.3085
 5206TIP3    H137033   6.289   5.293  11.916  0.5606 -1.3740  1.9445
 5206TIP3    H237034   6.155   5.340  11.967  0.3031 -0.0451  0.1064
 5207TIP3   OH237035   5.803   4.917   0.291  0.1763 -0.1866 -0.0096
 5207TIP3    H137036   5.839   4.875   0.212 -0.9543 -1.1266 -0.0400
 5207TIP3    H237037   5.723   4.960   0.260  1.1685  1.7759  0.0850
 5208TIP3   OH237038   0.718   0.119  15.607 -0.0201  0.4366 -0.1085
 5208TIP3    H137039   0.649   0.179  15.636  0.4534  0.0111  2.0079
 5208TIP3    H237040   0.707   0.113  15.512 -1.7792  1.7451 -0.0065
 5209TIP3   OH237041   4.414   5.748   5.536  0.2263  0.3770 -0.2393
 5209TIP3    H137042   4.455   5.709   5.459 -1.7452 -0.3988 -0.9094
 5209TIP3    H237043   4.414   5.679   5.602 -1.2346 -0.0608 -0.6905
 5210TIP3   OH237044   1.910   2.923  12.553 -0.6712  0.3531  0.4866
 5210TIP3    H137045   1.905   2.831  12.528  0.2077  0.6532 -0.8402
 5210TIP3    H237046   1.974   2.961  12.493 -0.2929  1.6153  1.6721
 5211TIP3   OH237047   6.455   4.898  13.570 -0.6388 -0.0066  0.0967
 5211TIP3    H137048   6.401   4.948  13.631 -0.9744 -0.4969  0.2028
 5211TIP3    H237049   6.477   4.960  13.501 -4.4718 -0.7799 -1.9499
 5212TIP3   OH237050   2.706   1.177   0.280  0.7350  1.0361  0.0386
 5212TIP3    H137051   2.694   1.151   0.371  0.0658  3.2554  0.6094
 5212TIP3    H237052   2.799   1.199   0.273  1.2891 -1.3070 -0.4275
 5213TIP3   OH237053   0.811   4.754   2.479  0.0759 -0.1281 -0.1504
 5213TIP3    H137054   0.869   4.769   2.554  2.0563  0.2362 -1.7260
 5213TIP3    H237055   0.751   4.685   2.509  2.2665 -1.5745  1.0101
 5214TIP3   OH237056   4.919   1.621  12.255 -0.0264 -0.0339 -0.6444
 5214TIP3    H137057   4.927   1.527  12.240 -0.7923 -0.1239 -0.5073
 5214TIP3    H237058   4.876   1.628  12.340 -1.3055  0.4200 -1.3189
 5215TIP3   OH237059   6.588   1.025  12.482 -0.1222  0.0852  0.1098
 5215TIP3    H137060   6.672   0.980  12.492  0.1576  0.8786  1.3936
 5215TIP3    H237061   6.523   0.959  12.508  0.0931 -0.5182 -0.8573
 5216TIP3   OH237062   6.147   5.540  11.513  0.4059  0.2783 -0.4641
 5216TIP3    H137063   6.187   5.471  11.567  0.6962  0.9036  0.1332
 5216TIP3    H237064   6.217   5.605  11.503 -0.4629  1.3998  0.6243
 5217TIP3   OH237065   2.567   4.358   4.160 -0.3463  0.0099  0.3649
 5217TIP3    H137066   2.511   4.435   4.149 -2.3869 -1.5496 -0.6652
 5217TIP3    H237067   2.599   4.364   4.250 -1.5303  1.3981  0.7091
 5218TIP3   OH237068   5.686   2.406   6.138  0.1157 -0.8233  0.2225
 5218TIP3    H137069   5.680   2.345   6.212 -1.0256 -1.3400 -0.2834
 5218TIP3    H237070   5.624   2.372   6.074  1.8379 -0.9345 -1.3965
 5219TIP3   OH237071   5.417   1.442  15.898  0.0396  0.8192 -0.2671
 5219TIP3    H137072   5.441   1.533  15.883 -0.1060  1.1700  1.5513
 5219TIP3    H237073   5.325   1.445  15.923 -0.3259  0.0336 -1.4657
 5220TIP3   OH237074   1.651   1.604   1.750 -0.4963 -0.3608 -0.1443
 5220TIP3    H137075   1.623   1.643   1.833 -1.1015 -0.3155 -0.3681
 5220TIP3    H237076   1.640   1.510   1.764  0.5244 -0.4248  0.2355
 5221TIP3   OH237077   1.489   4.664  16.985 -0.4463  0.3170 -0.0314
 5221TIP3    H137078   1.402   4.664  16.945 -0.2808  2.0742 -0.4100
 5221TIP3    H237079   1.527   4.580  16.957 -1.1595  0.5265 -1.7257
 5222TIP3   OH237080   0.011   2.937   6.452  0.1736  0.2733  0.1792
 5222TIP3    H137081   0.068   3.003   6.492  1.4569 -0.8571  0.2337
 5222TIP3    H237082  -0.027   2.889   6.526 -1.4141  1.4548  0.1691
 5223TIP3   OH237083   2.435   0.354   5.835 -0.5855  0.0237  0.1808
 5223TIP3    H137084   2.378   0.361   5.759  0.4219  0.7422 -0.5324
 5223TIP3    H237085   2.523   0.340   5.798 -0.0547  0.6088  1.1916
 5224TIP3   OH237086   1.370   2.213   5.174 -0.5721  0.4383  0.0848
 5224TIP3    H137087   1.352   2.210   5.268  0.8294  1.9264  0.4292
 5224TIP3    H237088   1.289   2.184   5.133 -0.9333 -1.0503  1.7628
 5225TIP3   OH237089   0.740   3.896   1.959  0.1693 -0.3168  0.4965
 5225TIP3    H137090   0.690   3.928   1.884  1.8619  1.0959 -0.0513
 5225TIP3    H237091   0.699   3.938   2.034 -0.3239 -0.2475  0.1956
 5226TIP3   OH237092   6.412   3.910  11.689 -0.2176  0.1786 -0.2359
 5226TIP3    H137093   6.412   3.934  11.596  0.6758 -0.1693 -0.3286
 5226TIP3    H237094   6.445   3.820  11.691  0.4869  0.4417  0.4755
 5227TIP3   OH237095   0.800   0.281   5.899  0.3351  0.3997  0.4443
 5227TIP3    H137096   0.838   0.248   5.980 -0.4112 -0.7298  0.3453
 5227TIP3    H237097   0.786   0.375   5.916  0.3567  0.2134  1.5466
 5228TIP3   OH237098   0.436   2.192  12.227  0.3550  0.1272  0.1102
 5228TIP3    H137099   0.418   2.155  12.314  0.2867  0.2556  0.1514
 5228TIP3    H237100   0.470   2.119  12.176 -1.7523 -0.5232 -0.4299
 5229TIP3   OH237101   6.301   2.405  14.697 -0.6635  0.5864 -0.0748
 5229TIP3    H137102   6.232   2.375  14.757 -2.0600  0.9188 -1.4658
 5229TIP3    H237103   6.301   2.340  14.627  1.5658 -0.2771  0.7100
 5230TIP3   OH237104   2.408   0.669   5.843 -0.5516  0.5041 -0.1711
 5230TIP3    H137105   2.339   0.617   5.802 -1.7952  1.5311  0.5542
 5230TIP3    H237106   2.421   0.629   5.929 -0.9069  0.8806  0.0572
 5231TIP3   OH237107   5.355   2.254  14.801 -0.0416 -0.0726 -0.6327
 5231TIP3    H137108   5.382   2.309  14.728 -1.4426  2.2964  0.5654
 5231TIP3    H237109   5.421   2.270  14.868 -0.3468  0.0032 -0.3505
 5232TIP3   OH237110   6.083   5.407   0.558 -0.1155  0.2777 -0.6088
 5232TIP3    H137111   6.064   5.314   0.573  0.5315  0.3486  0.7530
 5232TIP3    H237112   6.008   5.438   0.506 -2.5513 -0.0027  2.5577
 5233TIP3   OH237113   3.307   2.029  11.956 -0.3429 -0.3510  0.0365
 5233TIP3    H137114   3.316   1.988  11.870  0.0291 -0.4433  0.1177
 5233TIP3    H237115   3.377   2.094  11.959  0.8982 -1.6971  1.0392
 5234TIP3   OH237116   2.215   4.968  16.921 -0.1824  0.3310  0.2887
 5234TIP3    H137117   2.162   5.047  16.909 -2.3420 -0.8287  1.8517
 5234TIP3    H237118   2.251   4.949  16.834 -1.4060  1.8092 -0.5543
 5235TIP3   OH237119   1.635   5.224  12.784 -0.1501 -0.2596  0.5340
 5235TIP3    H137120   1.588   5.242  12.703 -0.3317 -0.7027  0.5417
 5235TIP3    H237121   1.632   5.129  12.794  1.4637 -0.3740  0.0984
 5236TIP3   OH237122   6.554   6.752   0.485  0.1632 -0.1428 -0.0317
 5236TIP3    H137123   6.550   6.724   0.577  0.3779  0.6061  0.2139
 5236TIP3    H237124   6.472   6.797   0.470  0.2960  0.0768 -0.0936
 5237TIP3   OH237125   4.514   0.734  15.030  0.3648 -0.1485 -0.5130
 5237TIP3    H137126   4.537   0.684  15.108  0.1796 -1.1986 -1.1249
 5237TIP3    H237127   4.583   0.800  15.023 -0.6946  1.2623  1.6577
 5238TIP3   OH237128   3.573   3.211   2.902  0.2903  0.8882 -0.2012
 5238TIP3    H137129   3.554   3.230   2.810 -0.6297  0.6785 -0.0571
 5238TIP3    H237130   3.497   3.245   2.950  0.2488  0.0134  0.3753
 5239TIP3   OH237131   3.413   5.658   3.607  0.0664  0.2491  0.2493
 5239TIP3    H137132   3.393   5.596   3.677  2.1975 -0.8989 -0.1252
 5239TIP3    H237133   3.442   5.737   3.653 -0.1501  0.0769  0.6862
 5240TIP3   OH237134   0.390   4.445  13.734  0.0495 -0.1346 -0.6754
 5240TIP3    H137135   0.458   4.511  13.748 -1.0729  0.8054  0.3491
 5240TIP3    H237136   0.400   4.384  13.807  0.7167 -0.8248 -1.3179
 5241TIP3   OH237137   6.528   3.640  11.777 -0.0918  0.3260 -0.7120
 5241TIP3    H137138   6.590   3.702  11.737  1.0829 -1.1177 -1.1906
 5241TIP3    H237139   6.583   3.579  11.825 -1.3169  0.2729  0.6671
 5242TIP3   OH237140   0.670   0.377  13.407 -0.0410 -0.0999  0.1627
 5242TIP3    H137141   0.712   0.396  13.323 -1.1478  0.1836 -0.3490
 5242TIP3    H237142   0.661   0.463  13.449 -1.8710  0.1082 -0.6027
 5243TIP3   OH237143   6.028   6.273   2.973  0.3202 -0.2879 -0.3025
 5243TIP3    H137144   6.068   6.360   2.976  2.2700 -1.1787  0.0830
 5243TIP3    H237145   6.063   6.234   2.893 -0.6535 -0.6821 -0.5396
 5244TIP3   OH237146   3.195   0.154  15.398 -0.5583 -0.2242  0.4061
 5244TIP3    H137147   3.290   0.145  15.391 -0.3755  0.2140  2.1361
 5244TIP3    H237148   3.182   0.240  15.439 -1.6994 -0.4999  0.6433
 5245TIP3   OH237149   1.483   0.847   5.237  0.2549  0.0698  0.3342
 5245TIP3    H137150   1.495   0.917   5.301  0.5044  0.5861 -0.2654
 5245TIP3    H237151   1.404   0.801   5.266 -0.8366  1.5859 -0.1317
 5246TIP3   OH237152   1.440   5.772  13.143 -0.3107 -0.3934 -0.5581
 5246TIP3    H137153   1.479   5.770  13.056  0.0119 -2.3436 -0.4007
 5246TIP3    H237154   1.351   5.804  13.129  0.0292  0.1583 -1.4790
 5247TIP3   OH237155   1.257   0.188  11.903  0.4032  0.0823  0.3717
 5247TIP3    H137156   1.310   0.125  11.855  0.4933 -0.5211  1.2451
 5247TIP3    H237157   1.313   0.214  11.977 -0.3217 -0.1771  1.0165
 5248TIP3   OH237158   1.693   1.026   2.759 -0.1747  0.1008 -0.0988
 5248TIP3    H137159   1.643   1.009   2.679  0.2733 -2.2430  0.1101
 5248TIP3    H237160   1.772   0.973   2.750 -1.5198 -2.6544  3.2582
 5249TIP3   OH237161   1.859   4.640  13.200 -0.6615 -0.0776 -0.1546
 5249TIP3    H137162   1.819   4.623  13.115 -2.3099  1.3864  0.2841
 5249TIP3    H237163   1.819   4.722  13.229  0.7850  0.0777  1.4869
 5250TIP3   OH237164   3.536   1.500   1.492 -0.1888 -0.0363  0.5850
 5250TIP3    H137165   3.519   1.443   1.417  0.5272  0.3555  0.1215
 5250TIP3    H237166   3.622   1.538   1.474  0.0927 -0.1238  1.7184
 5251TIP3   OH237167   0.105   1.994  15.513 -0.1961 -0.3365  0.7073
 5251TIP3    H137168   0.034   2.033  15.461 -0.3427  0.0651  1.1963
 5251TIP3    H237169   0.134   1.919  15.462  1.2316  1.3765 -1.1185
 5252TIP3   OH237170   4.921   4.293   0.797 -0.0007 -0.1286 -0.4452
 5252TIP3    H137171   4.930   4.341   0.715  0.3526 -1.2111 -1.0499
 5252TIP3    H237172   4.868   4.351   0.853  0.2246  0.8529 -1.2306
 5253TIP3   OH237173   0.295   3.806  17.062 -0.2988  0.4774  0.6234
 5253TIP3    H137174   0.202   3.785  17.061 -0.2561  0.3256 -2.1243
 5253TIP3    H237175   0.337   3.727  17.095 -0.9877 -0.0310  0.2938
 5254TIP3   OH237176   4.948   4.582  11.705 -0.2282  0.0057 -0.1247
 5254TIP3    H137177   4.934   4.638  11.629 -0.8712 -0.3147 -0.2476
 5254TIP3    H237178   5.043   4.573  11.712 -0.1948 -0.7995 -1.5028
 5255TIP3   OH237179   5.352   2.638   6.116  0.5114  0.9374  0.3705
 5255TIP3    H137180   5.432   2.618   6.067 -0.0409  0.1292 -0.2157
 5255TIP3    H237181   5.372   2.719   6.162  1.0676  1.6886 -1.1416
 5256TIP3   OH237182   5.329   1.315   4.116  0.7086 -0.3239 -0.0369
 5256TIP3    H137183   5.390   1.284   4.050  0.8519  1.3801 -0.7207
 5256TIP3    H237184   5.330   1.247   4.184  2.2045 -1.0250 -0.7543
 5257TIP3   OH237185   3.129   2.650   2.618 -0.4670  0.4252 -0.4272
 5257TIP3    H137186   3.040   2.641   2.586 -0.2270 -0.7445 -0.8036
 5257TIP3    H237187   3.182   2.662   2.539 -0.0715 -0.8227 -0.3678
 5258TIP3   OH237188   0.088   4.403  12.661 -0.0580 -0.2450  0.1145
 5258TIP3    H137189   0.074   4.429  12.570  1.9922  2.7898  0.5771
 5258TIP3    H237190   0.008   4.431  12.706  0.5102  1.8549 -0.1127
 5259TIP3   OH237191   1.341   4.542  15.823  0.1335  0.4299 -0.1065
 5259TIP3    H137192   1.278   4.613  15.816 -1.3359 -0.8181  0.0372
 5259TIP3    H237193   1.390   4.560  15.903  0.8245  2.0711 -0.8842
 5260TIP3   OH237194   2.658   1.683  11.786 -0.2130  0.6766  0.0352
 5260TIP3    H137195   2.585   1.716  11.734 -0.0411  1.2315  0.1458
 5260TIP3    H237196   2.696   1.761  11.827 -0.5372  0.2154  1.2358
 5261TIP3   OH237197   2.617   2.371  12.789  0.1010  0.4328 -0.2522
 5261TIP3    H137198   2.532   2.414  12.800  0.4543  0.8086  1.1863
 5261TIP3    H237199   2.608   2.318  12.710 -1.6830 -0.0467  0.2557
 5262TIP3   OH237200   2.325   3.513   3.898 -0.0606 -0.0923 -0.2422
 5262TIP3    H137201   2.289   3.489   3.813 -1.2764  1.6309 -0.2520
 5262TIP3    H237202   2.411   3.549   3.878 -0.1341 -0.1684 -0.7031
 5263TIP3   OH237203   2.498   4.427  12.606  0.1341 -0.2513  0.2454
 5263TIP3    H137204   2.453   4.477  12.674 -0.0542  1.7132 -1.2798
 5263TIP3    H237205   2.587   4.463  12.604  0.5681 -1.2696  0.3801
 5264TIP3   OH237206   6.212   0.432  10.785 -0.2934 -0.0812  0.1682
 5264TIP3    H137207   6.293   0.398  10.824  0.3601  0.0096 -1.0659
 5264TIP3    H237208   6.193   0.511  10.835  0.9101  0.4087 -0.1356
 5265TIP3   OH237209   4.607   3.594   3.512 -0.0236 -0.2369  0.3736
 5265TIP3    H137210   4.677   3.651   3.481 -0.3070 -0.8167 -1.3934
 5265TIP3    H237211   4.528   3.628   3.469 -0.4987 -0.8155  0.7768
 5266TIP3   OH237212   4.986   6.495  13.708 -0.6469  0.1031  0.0200
 5266TIP3    H137213   5.026   6.413  13.680 -0.0529  0.5904 -0.5605
 5266TIP3    H237214   4.912   6.507  13.649 -1.1406 -0.3542  0.5386
 5267TIP3   OH237215   6.453   0.653  11.935  0.1334  0.0885 -0.1473
 5267TIP3    H137216   6.455   0.572  11.986  3.2254  0.7567  0.8717
 5267TIP3    H237217   6.455   0.624  11.844  0.7405 -1.0072  0.2049
 5268TIP3   OH237218   4.903   3.549  11.177 -0.2676 -0.2253  0.6712
 5268TIP3    H137219   4.857   3.546  11.093 -0.0622 -3.1632  0.5897
 5268TIP3    H237220   4.975   3.610  11.163 -0.4820 -0.3558 -1.1580
 5269TIP3   OH237221   0.532   5.509  15.753  0.1547 -0.4595  0.1081
 5269TIP3    H137222   0.461   5.449  15.730  0.6037 -1.3322  0.9694
 5269TIP3    H237223   0.570   5.534  15.669 -0.5085 -0.8002 -0.2979
 5270TIP3   OH237224   0.051   0.571   4.795  0.1811  0.2850  0.1756
 5270TIP3    H137225   0.133   0.558   4.842 -0.3515 -0.7144  0.8406
 5270TIP3    H237226   0.011   0.647   4.839 -0.0921 -0.3494  1.0425
 5271TIP3   OH237227   2.015   3.178   2.725 -0.1398 -0.0040  0.4677
 5271TIP3    H137228   2.059   3.169   2.641 -0.9550 -0.3841  0.0750
 5271TIP3    H237229   2.053   3.109   2.780 -0.7672 -0.8136 -0.1015
 5272TIP3   OH237230   2.636   1.890  17.092  0.6695 -0.2134  0.3491
 5272TIP3    H137231   2.643   1.886  17.187 -0.6929 -0.5782  0.4443
 5272TIP3    H237232   2.547   1.920  17.076  1.5980  2.0457 -0.7907
 5273TIP3   OH237233   5.865   3.184  11.961  1.0738  0.2998 -0.6195
 5273TIP3    H137234   5.897   3.120  12.025  1.1922  0.3487 -0.6278
 5273TIP3    H237235   5.849   3.132  11.882 -0.7787 -0.0650 -0.0219
 5274TIP3   OH237236   0.189   5.642   1.693  0.6044  0.4333  0.0747
 5274TIP3    H137237   0.183   5.690   1.610  0.7603  1.0774  0.4316
 5274TIP3    H237238   0.252   5.692   1.745  2.0502 -1.1034 -0.1642
 5275TIP3   OH237239   4.008   2.712   1.536  0.4269  0.4914  0.7158
 5275TIP3    H137240   4.066   2.768   1.486  1.6909 -2.7369 -1.5884
 5275TIP3    H237241   3.925   2.760   1.540  1.8985  3.1444  0.1846
 5276TIP3   OH237242   3.853   6.246  15.707 -0.0330 -0.1113 -0.5574
 5276TIP3    H137243   3.766   6.263  15.672 -0.7280  0.2458  1.3003
 5276TIP3    H237244   3.887   6.333  15.730 -0.1096 -0.4448  0.8449
 5277TIP3   OH237245   0.844   3.025  15.027 -0.1289  0.7497  0.6559
 5277TIP3    H137246   0.795   3.066  15.097  0.1048  0.0295  1.2497
 5277TIP3    H237247   0.923   2.992  15.069 -1.4472 -2.5189  0.7211
 5278TIP3   OH237248   1.443   3.973   0.346 -0.2287  0.4585 -0.4785
 5278TIP3    H137249   1.366   3.997   0.396 -1.8217 -1.5866 -1.8501
 5278TIP3    H237250   1.494   4.054   0.339 -1.1071  1.3196  2.3561
 5279TIP3   OH237251   6.736   3.461  12.972 -0.3601  0.0281 -0.8889
 5279TIP3    H137252   6.823   3.500  12.968  0.0664 -0.9057 -0.9091
 5279TIP3    H237253   6.679   3.532  13.001  0.2568  0.8859 -1.7347
 5280TIP3   OH237254   1.151   2.460  14.385  0.0524 -0.0218 -0.3006
 5280TIP3    H137255   1.232   2.423  14.349  0.0043  0.8779 -1.3838
 5280TIP3    H237256   1.145   2.547  14.345 -0.7631  0.4352  0.8037
 5281TIP3   OH237257   3.423   4.142   4.239  0.2342 -0.1019 -0.2049
 5281TIP3    H137258   3.391   4.227   4.271 -0.5142 -0.1149 -0.9110
 5281TIP3    H237259   3.504   4.163   4.194  1.5848 -0.1399  2.1125
 5282TIP3   OH237260   1.462   4.981   6.773 -0.2334 -0.0024 -0.1606
 5282TIP3    H137261   1.541   4.939   6.740 -0.2516 -0.0431 -0.1526
 5282TIP3    H237262   1.391   4.922   6.747 -0.2925  0.1917 -0.4421
 5283TIP3   OH237263   6.207   0.417   2.884  0.2909 -0.2848  0.0609
 5283TIP3    H137264   6.162   0.460   2.956  1.3991 -0.9091  1.1599
 5283TIP3    H237265   6.263   0.352   2.927  2.5557  0.7667 -1.2074
 5284TIP3   OH237266   3.873   2.484   3.082  0.8151  0.8849 -0.1559
 5284TIP3    H137267   3.928   2.536   3.142  2.1878  0.0391 -0.6517
 5284TIP3    H237268   3.932   2.461   3.011 -0.3134  0.2743 -0.8981
 5285TIP3   OH237269   6.018   4.322  12.940 -0.0385 -0.1598 -0.3633
 5285TIP3    H137270   6.060   4.240  12.966 -0.5347 -0.1217  0.5866
 5285TIP3    H237271   6.083   4.389  12.962  0.3632 -0.2972 -1.1305
 5286TIP3   OH237272   0.252   4.180   4.583 -0.2142  0.1257 -0.4684
 5286TIP3    H137273   0.181   4.124   4.615  0.2248 -0.1749 -0.0166
 5286TIP3    H237274   0.296   4.211   4.662  0.1921  0.2649 -0.7446
 5287TIP3   OH237275   5.894   4.127   5.279 -0.0295 -0.1632 -0.2444
 5287TIP3    H137276   5.943   4.182   5.341  1.2936 -1.9375  0.3270
 5287TIP3    H237277   5.835   4.076   5.333  0.3961 -0.9739 -0.5362
 5288TIP3   OH237278   5.142   6.542  11.744  0.0503 -0.5723 -0.4853
 5288TIP3    H137279   5.155   6.452  11.771 -0.0914 -0.7443 -0.9739
 5288TIP3    H237280   5.077   6.536  11.673 -0.7509  0.0086  0.1950
 5289TIP3   OH237281   0.226   0.754  11.847 -0.3373 -0.4660 -0.5224
 5289TIP3    H137282   0.209   0.812  11.921  0.2671 -0.3129 -0.5007
 5289TIP3    H237283   0.315   0.777  11.818  0.3831 -2.2251  0.2509
 5290TIP3   OH237284   4.491   2.680  13.917 -0.3357  0.2221 -0.1216
 5290TIP3    H137285   4.577   2.718  13.936  0.0570 -0.9579  0.4913
 5290TIP3    H237286   4.443   2.688  14.000 -0.6573  0.4576 -0.3316
 5291TIP3   OH237287   1.856   1.324  16.219 -0.1631 -0.4157 -0.1168
 5291TIP3    H137288   1.907   1.259  16.268 -1.5039 -0.9965  0.5391
 5291TIP3    H237289   1.873   1.407  16.264 -0.5785 -0.7740  0.7196
 5292TIP3   OH237290   1.579   1.996  12.587 -0.3167  0.4042  0.1367
 5292TIP3    H137291   1.576   2.073  12.531  0.6084  1.2600  1.2389
 5292TIP3    H237292   1.489   1.963  12.587 -0.1142 -0.3344 -2.8049
 5293TIP3   OH237293   3.265   2.063   1.332  0.1759  0.2285 -0.3037
 5293TIP3    H137294   3.233   2.086   1.245  1.3991 -0.0361 -0.8263
 5293TIP3    H237295   3.186   2.036   1.380 -0.4564  0.0824 -1.4101
 5294TIP3   OH237296   3.782   3.753  11.853  0.0266  0.4154 -0.4360
 5294TIP3    H137297   3.749   3.778  11.767 -0.0804 -0.3392 -0.6199
 5294TIP3    H237298   3.712   3.776  11.914 -0.0489  0.6040 -0.5956
 5295TIP3   OH237299   6.148   0.391   3.848 -0.2034 -0.2534 -0.8003
 5295TIP3    H137300   6.243   0.379   3.850  0.0505  1.3702 -1.9936
 5295TIP3    H237301   6.117   0.323   3.788  0.1257 -1.1279 -0.0034
 5296TIP3   OH237302   0.822   0.801   1.798  0.0713  0.3296  0.1261
 5296TIP3    H137303   0.879   0.751   1.740 -0.5379 -2.5350  1.8867
 5296TIP3    H237304   0.872   0.807   1.880  0.2661  2.9496 -0.1469
 5297TIP3   OH237305   2.675   5.304  14.820 -0.0388  0.4401 -0.1948
 5297TIP3    H137306   2.648   5.336  14.734 -0.6583 -0.2616 -0.2642
 5297TIP3    H237307   2.666   5.209  14.814  0.7364  0.3274  0.3667
 5298TIP3   OH237308   3.841   4.547   5.496  0.3643 -0.3648  0.2885
 5298TIP3    H137309   3.837   4.455   5.523 -0.9266  0.1180  1.7868
 5298TIP3    H237310   3.760   4.562   5.449  0.1021  0.2768  0.9358
 5299TIP3   OH237311   3.602   2.544  13.759 -0.0985 -0.1398 -0.1647
 5299TIP3    H137312   3.649   2.461  13.763 -1.3497 -0.9435 -1.6990
 5299TIP3    H237313   3.609   2.571  13.668 -1.3589  0.4754 -0.0882
 5300TIP3   OH237314   0.877   3.357  16.513  0.2026 -0.1123 -0.0091
 5300TIP3    H137315   0.953   3.331  16.461 -0.8725 -0.0503 -1.6525
 5300TIP3    H237316   0.802   3.337  16.458 -0.9272  0.9872  1.0791
 5301TIP3   OH237317   0.222   1.183  12.690  0.6939  0.2684  0.1225
 5301TIP3    H137318   0.297   1.240  12.673 -0.1556  1.4423  0.2419
 5301TIP3    H237319   0.197   1.151  12.603  0.2350  1.3015 -0.1406
 5302TIP3   OH237320   4.297   5.388  14.653 -0.3077 -1.1578 -0.0335
 5302TIP3    H137321   4.224   5.451  14.658  0.7566  0.3668 -2.8212
 5302TIP3    H237322   4.268   5.323  14.589  0.3926 -1.0658 -0.4434
 5303TIP3   OH237323   0.731   2.644   4.742 -0.3200 -0.4078  0.2656
 5303TIP3    H137324   0.691   2.727   4.714  0.3217 -0.4360 -0.7512
 5303TIP3    H237325   0.659   2.596   4.783 -0.3791  1.2763  2.2759
 5304TIP3   OH237326   4.482   2.757  12.027 -0.3218  0.1135 -0.6960
 5304TIP3    H137327   4.464   2.681  12.083  1.3804 -0.3955 -0.8142
 5304TIP3    H237328   4.527   2.819  12.084 -0.0747  0.2821 -1.0721
 5305TIP3   OH237329   3.512   4.447   3.005  0.1054  0.0401  0.4443
 5305TIP3    H137330   3.560   4.495   3.073 -0.4001 -1.1847  1.6882
 5305TIP3    H237331   3.527   4.355   3.026 -0.5236 -0.3452 -0.7798
 5306TIP3   OH237332   0.983   6.306  12.428  0.2448 -0.1101 -0.4760
 5306TIP3    H137333   1.048   6.375  12.419 -0.5290  0.7885  0.6241
 5306TIP3    H237334   0.992   6.277  12.518 -0.5285 -0.3279 -0.4664
 5307TIP3   OH237335   2.436   3.720  14.829 -0.2432  0.2874  0.0905
 5307TIP3    H137336   2.346   3.751  14.821  0.5508  2.3860 -1.1374
 5307TIP3    H237337   2.465   3.752  14.914 -0.4722  0.1195  0.2317
 5308TIP3   OH237338   5.136   5.185  15.864  0.6446 -0.3735  0.0423
 5308TIP3    H137339   5.098   5.171  15.778 -0.8195 -1.5937  0.8529
 5308TIP3    H237340   5.230   5.192  15.849  0.2369  1.5974 -1.8824
 5309TIP3   OH237341   5.211   6.262   0.759 -0.1641 -0.3127  0.4667
 5309TIP3    H137342   5.206   6.345   0.805  1.6708 -0.0981  0.3123
 5309TIP3    H237343   5.190   6.196   0.826  1.3643  0.0719  1.3334
 5310TIP3   OH237344   6.536   2.553   1.495  0.3336 -0.3203  0.6383
 5310TIP3    H137345   6.631   2.547   1.504  0.3486 -0.7360  0.2638
 5310TIP3    H237346   6.504   2.568   1.584  0.8113  0.7409  0.6379
 5311TIP3   OH237347   5.304   5.718  12.046 -0.7209  0.1759  0.2069
 5311TIP3    H137348   5.304   5.778  11.971 -0.8000 -2.2516 -1.7934
 5311TIP3    H237349   5.227   5.663  12.033 -0.5105 -0.5429  1.8861
 5312TIP3   OH237350   1.077   4.357  13.864 -0.1647  0.0409  0.2648
 5312TIP3    H137351   1.098   4.340  13.955 -2.0334 -0.0349  0.7043
 5312TIP3    H237352   1.068   4.270  13.824  0.6237  0.0733  0.0105
 5313TIP3   OH237353   3.820   2.321  12.094  0.5840  0.2828 -0.0778
 5313TIP3    H137354   3.728   2.333  12.070  0.2579  0.6757  1.3134
 5313TIP3    H237355   3.831   2.373  12.174  1.8174 -0.4062  0.2190
 5314TIP3   OH237356   4.151   4.909  15.502  0.1003 -0.0026 -0.5950
 5314TIP3    H137357   4.090   4.971  15.543 -0.4775 -1.3680  0.6528
 5314TIP3    H237358   4.199   4.870  15.575 -0.4373 -1.9446 -1.2390
 5315TIP3   OH237359   6.336   1.141   2.701  0.0263  0.5293  0.0901
 5315TIP3    H137360   6.319   1.230   2.731  1.2007  0.4306  1.0873
 5315TIP3    H237361   6.431   1.137   2.691  0.0193 -0.7348  0.4514
 5316TIP3   OH237362   5.443   0.840  10.899  0.2420 -0.5163  0.2645
 5316TIP3    H137363   5.508   0.824  10.831  0.0104 -0.5614  0.0532
 5316TIP3    H237364   5.477   0.916  10.947 -0.6716  0.9170 -1.2788
 5317TIP3   OH237365   1.810   5.368  14.127 -0.1003  0.1789  0.1047
 5317TIP3    H137366   1.777   5.454  14.152  0.1788  0.1560  0.5455
 5317TIP3    H237367   1.905   5.380  14.118 -0.1969  0.2177 -1.0439
 5318TIP3   OH237368   6.196   4.893   1.254  0.1529 -0.0624  0.3532
 5318TIP3    H137369   6.235   4.976   1.283 -1.4400  0.2789  1.6135
 5318TIP3    H237370   6.203   4.836   1.330 -1.3257 -0.1496  0.4384
 5319TIP3   OH237371   2.815   6.092  12.589 -0.1388  0.2762  0.4080
 5319TIP3    H137372   2.879   6.161  12.607 -0.2252  0.2656  0.7465
 5319TIP3    H237373   2.851   6.014  12.631 -0.2898  0.2291  0.4488
 5320TIP3   OH237374   3.427   4.986  14.031  0.2457 -0.2145  0.2473
 5320TIP3    H137375   3.385   4.966  13.947  0.0755  0.0033  0.2791
 5320TIP3    H237376   3.419   5.081  14.039 -1.1947 -0.4106  1.2716
 5321TIP3   OH237377   4.581   4.965   2.835 -0.0196  0.1672 -0.2795
 5321TIP3    H137378   4.486   4.971   2.848  0.0061  0.4203 -0.2171
 5321TIP3    H237379   4.617   4.957   2.923  0.1802  2.2519 -0.1470
 5322TIP3   OH237380   1.926   0.607   1.619  0.3840  0.4057  0.0760
 5322TIP3    H137381   1.980   0.612   1.540  0.4813  0.1726  0.1261
 5322TIP3    H237382   1.908   0.513   1.629  2.2458  0.1787  1.5896
 5323TIP3   OH237383   5.150   2.911   2.305 -0.0074  0.2199  0.2261
 5323TIP3    H137384   5.099   2.890   2.383 -1.5283 -0.3011 -0.8815
 5323TIP3    H237385   5.098   2.977   2.259 -0.4602 -1.3702 -1.6530
 5324TIP3   OH237386   1.273   3.719   5.890  0.4978  0.0149  0.7863
 5324TIP3    H137387   1.300   3.687   5.805  0.2969 -1.2268  1.1757
 5324TIP3    H237388   1.324   3.799   5.904 -0.5339  1.0333 -1.1115
 5325TIP3   OH237389   1.797   5.391  14.520  0.2502  0.3562  0.2487
 5325TIP3    H137390   1.744   5.317  14.551  0.8661  0.1608  0.8646
 5325TIP3    H237391   1.835   5.428  14.600  2.8057 -0.8699 -0.3301
 5326TIP3   OH237392   0.186   5.812   6.582  0.3396 -0.5033  0.0873
 5326TIP3    H137393   0.172   5.877   6.514  0.3542  1.7967  2.2106
 5326TIP3    H237394   0.279   5.820   6.605 -0.0860  0.1059  1.6875
 5327TIP3   OH237395   6.211   3.087  16.554 -1.2985  0.6080 -0.1311
 5327TIP3    H137396   6.260   3.157  16.512  2.5460 -1.4409  0.7802
 5327TIP3    H237397   6.193   3.119  16.642 -1.1417  1.1561 -0.2980
 5328TIP3   OH237398   5.820   3.839   4.408  0.7587 -0.4644 -0.3844
 5328TIP3    H137399   5.726   3.826   4.398  0.4678  0.8978  0.3614
 5328TIP3    H237400   5.846   3.885   4.328  0.4021  0.9686  0.3095
 5329TIP3   OH237401   2.406   0.957   2.099 -0.7584 -0.1080 -0.1918
 5329TIP3    H137402   2.483   1.013   2.102 -1.0600  0.2717  0.9806
 5329TIP3    H237403   2.343   1.005   2.045 -0.8085  0.4211  0.3357
 5330TIP3   OH237404   0.568   2.868   1.440 -0.0712 -0.6290 -0.6001
 5330TIP3    H137405   0.510   2.854   1.516 -1.8213  1.1122 -1.5679
 5330TIP3    H237406   0.510   2.859   1.364  0.5720  2.7458 -1.5397
 5331TIP3   OH237407   5.251   1.648   4.819  0.0445  0.2065  0.0599
 5331TIP3    H137408   5.342   1.642   4.790 -0.1317  0.1468 -0.4677
 5331TIP3    H237409   5.248   1.729   4.870  0.3475  0.3007 -0.0725
 5332TIP3   OH237410   6.156   5.546   1.995  0.1518  0.0071 -0.0330
 5332TIP3    H137411   6.064   5.571   1.999  0.2160  0.2221  0.1030
 5332TIP3    H237412   6.155   5.456   1.962 -0.0536  0.3580 -1.0216
 5333TIP3   OH237413   4.858   4.158   3.580  0.1507 -0.8108 -0.7137
 5333TIP3    H137414   4.811   4.228   3.624  0.5251  0.1268 -1.7813
 5333TIP3    H237415   4.804   4.138   3.503 -0.4838 -2.4125  0.1169
 5334TIP3   OH237416   2.035   4.153  12.623 -0.0177  0.4372 -0.0859
 5334TIP3    H137417   2.113   4.202  12.596 -0.3222  0.8942 -0.1351
 5334TIP3    H237418   1.998   4.203  12.695  0.9431 -0.9348  1.3826
 5335TIP3   OH237419   0.787   0.251  16.133  0.2330 -0.6256 -0.0556
 5335TIP3    H137420   0.841   0.248  16.212 -0.0852  0.0385  0.1938
 5335TIP3    H237421   0.718   0.314  16.153  0.5094  0.0307 -1.0840
 5336TIP3   OH237422   0.255   3.851  16.495 -0.4407  0.0923 -0.1911
 5336TIP3    H137423   0.189   3.920  16.506 -0.1104  0.0491  2.3978
 5336TIP3    H237424   0.334   3.887  16.534  0.0812 -1.2720  0.0291
 5337TIP3   OH237425   2.537   1.411  11.803 -0.4939 -0.0875  0.6174
 5337TIP3    H137426   2.575   1.332  11.842 -0.8853  0.9712  3.2614
 5337TIP3    H237427   2.610   1.472  11.797 -0.8191  0.3919  1.4626
 5338TIP3   OH237428   4.163   3.974   3.557  0.0049  0.2650 -0.7764
 5338TIP3    H137429   4.147   3.989   3.464  1.0475 -1.9217 -1.3647
 5338TIP3    H237430   4.109   3.898   3.579  0.6639  0.0352  0.1000
 5339TIP3   OH237431   6.785   0.446   2.802 -1.0250  0.3745  0.4654
 5339TIP3    H137432   6.712   0.472   2.857 -1.6985 -1.7632  0.6285
 5339TIP3    H237433   6.752   0.369   2.754  1.6477 -1.7017  1.8288
 5340TIP3   OH237434   4.783   4.936   1.032 -0.6552  0.4618 -0.6399
 5340TIP3    H137435   4.857   4.879   1.053 -0.2492  0.5889 -1.6599
 5340TIP3    H237436   4.785   5.005   1.099 -0.3343  0.0237 -0.1966
 5341TIP3   OH237437   0.678   6.043  13.432 -0.0102 -0.1923 -0.5380
 5341TIP3    H137438   0.698   6.037  13.525 -0.0979 -0.7814 -0.5582
 5341TIP3    H237439   0.650   6.134  13.420 -1.0283 -0.4001  0.2165
 5342TIP3   OH237440   6.734   4.793   1.483 -0.4986 -0.1949 -0.3611
 5342TIP3    H137441   6.741   4.866   1.421  0.7210 -1.1509 -1.3670
 5342TIP3    H237442   6.687   4.725   1.435 -4.4569  1.0019  1.6217
 5343TIP3   OH237443   3.628   1.415   4.067 -0.2198  0.3395 -0.4753
 5343TIP3    H137444   3.698   1.376   4.118  0.0148 -0.8420 -1.6654
 5343TIP3    H237445   3.669   1.439   3.984 -0.7779  1.4453 -0.4362
 5344TIP3   OH237446   6.682   6.303  14.916  0.2034  0.1011  0.1965
 5344TIP3    H137447   6.638   6.378  14.876  2.0290  0.8202 -0.4853
 5344TIP3    H237448   6.685   6.325  15.010 -0.1484  0.4263  0.1341
 5345TIP3   OH237449   5.124   0.619   4.984  0.6203  0.2689 -0.1822
 5345TIP3    H137450   5.196   0.645   5.041 -0.7453  1.2878  1.1130
 5345TIP3    H237451   5.116   0.691   4.921 -0.0415  0.7528  0.4390
 5346TIP3   OH237452   1.891   1.281   4.606  0.3570 -0.3290 -0.0874
 5346TIP3    H137453   1.927   1.336   4.676 -1.7084 -0.1094  0.8302
 5346TIP3    H237454   1.873   1.342   4.534  0.9373 -0.3013 -0.2142
 5347TIP3   OH237455   5.992   4.460  15.398 -0.2389  0.0642  0.3008
 5347TIP3    H137456   5.964   4.440  15.488 -1.1498  0.9298  0.2225
 5347TIP3    H237457   5.995   4.375  15.355  2.5130 -0.6427  1.7857
 5348TIP3   OH237458   4.760   1.825   5.085  0.0403 -0.1012  0.2140
 5348TIP3    H137459   4.698   1.837   5.013 -1.6817 -2.1367  1.2957
 5348TIP3    H237460   4.829   1.769   5.049  1.5343  2.4838 -1.1080
 5349TIP3   OH237461   3.770   1.171  12.171 -0.2862 -0.2148 -0.1292
 5349TIP3    H137462   3.806   1.228  12.239  0.7491 -0.7170 -0.2397
 5349TIP3    H237463   3.683   1.206  12.154  1.2764  2.9452 -2.0630
 5350TIP3   OH237464   1.156   1.068  11.832  0.8667 -0.0488  0.0944
 5350TIP3    H137465   1.107   0.991  11.860  2.3383 -0.7593  0.7243
 5350TIP3    H237466   1.117   1.140  11.881 -1.0291 -0.2524 -1.0663
 5351TIP3   OH237467   4.284   2.897   4.008 -0.5770 -0.4920 -0.1273
 5351TIP3    H137468   4.312   2.962   4.072 -0.1162 -0.4307 -0.3923
 5351TIP3    H237469   4.363   2.877   3.958 -0.2146 -2.7188  1.2512
 5352TIP3   OH237470   2.921   3.528   1.928 -0.0169 -0.4302  0.7829
 5352TIP3    H137471   2.839   3.482   1.942 -1.7068  2.3499  0.3991
 5352TIP3    H237472   2.923   3.595   1.997 -0.3574  2.5346 -1.9587
 5353TIP3   OH237473   1.554   1.260   5.462 -0.3712 -0.3811  0.0023
 5353TIP3    H137474   1.566   1.264   5.368 -0.9366  1.5461 -0.0051
 5353TIP3    H237475   1.473   1.210   5.474 -0.2257 -0.7401 -0.5326
 5354TIP3   OH237476   5.213   2.282   1.190 -0.2155 -1.1309 -0.3144
 5354TIP3    H137477   5.295   2.318   1.223 -0.8771 -0.8654  1.0381
 5354TIP3    H237478   5.189   2.215   1.254 -0.9927 -1.3073 -0.7881
 5355TIP3   OH237479   3.966   1.490   3.633  0.2418  0.1363  0.1833
 5355TIP3    H137480   3.935   1.415   3.582 -0.3198  1.8296 -2.0228
 5355TIP3    H237481   3.886   1.536   3.658  0.5511 -0.2722  2.0462
 5356TIP3   OH237482   4.137   0.550  13.492 -0.4812 -0.4482 -0.3927
 5356TIP3    H137483   4.073   0.563  13.422 -0.5525  2.7615  0.2202
 5356TIP3    H237484   4.206   0.498  13.450 -1.0707  0.4232 -2.5422
 5357TIP3   OH237485   0.485   5.787   0.558  0.6570 -0.2770  0.0116
 5357TIP3    H137486   0.436   5.814   0.635  1.0520 -1.5601  0.7326
 5357TIP3    H237487   0.423   5.735   0.507 -0.4989  2.9526 -2.0121
 5358TIP3   OH237488   4.631   2.023  13.367 -0.2787  0.3317  0.1587
 5358TIP3    H137489   4.648   1.931  13.387 -1.5207 -0.6437 -2.8267
 5358TIP3    H237490   4.538   2.024  13.342 -0.0789  2.2545 -0.5420
 5359TIP3   OH237491   6.067   0.476  15.892 -0.1546 -0.3640  0.2614
 5359TIP3    H137492   6.040   0.387  15.871  1.6751 -1.1845  1.1894
 5359TIP3    H237493   6.162   0.477  15.878 -0.0538  1.2684  0.8277
 5360TIP3   OH237494   4.023   1.956  14.459  0.1908  0.2423  0.0681
 5360TIP3    H137495   4.011   2.042  14.419 -2.1338  0.2995  0.8456
 5360TIP3    H237496   4.086   1.912  14.402  0.7295  2.1150 -0.8424
 5361TIP3   OH237497   1.073   4.102   5.000  0.6604  0.1443  0.3167
 5361TIP3    H137498   1.095   4.173   4.940 -0.7648  0.8674  0.6261
 5361TIP3    H237499   1.037   4.033   4.943 -0.4312  0.7198  0.2941
 5362TIP3   OH237500   3.733   6.306   4.656  0.5366 -0.0918  0.5656
 5362TIP3    H137501   3.708   6.396   4.677  1.9890  0.3595  0.4104
 5362TIP3    H237502   3.828   6.309   4.648  0.4346 -1.2481 -1.3468
 5363TIP3   OH237503   2.956   4.757  11.205 -0.6789 -0.1442 -1.2627
 5363TIP3    H137504   2.942   4.790  11.293  0.3170 -2.8106 -0.0606
 5363TIP3    H237505   2.893   4.805  11.151 -1.2753  1.5215  0.8851
 5364TIP3   OH237506   4.679   2.675  12.874  0.3232 -0.5855  0.2581
 5364TIP3    H137507   4.613   2.612  12.847 -1.0434  0.7943  0.3057
 5364TIP3    H237508   4.679   2.741  12.805  3.4287 -1.8049 -0.9975
 5365TIP3   OH237509   2.250   0.993  16.713  0.2912 -0.0874  0.0321
 5365TIP3    H137510   2.274   1.082  16.687 -0.6518 -0.0765 -0.8250
 5365TIP3    H237511   2.238   0.946  16.630  2.2504 -1.4231  0.4832
 5366TIP3   OH237512   1.678   5.650   1.572  0.7441  0.9338  0.2650
 5366TIP3    H137513   1.753   5.602   1.608  0.3714  0.6641  0.6892
 5366TIP3    H237514   1.687   5.738   1.607  0.2517  0.6107  1.2304
 5367TIP3   OH237515   1.795   3.470   1.333  0.2633  0.2593  0.1082
 5367TIP3    H137516   1.729   3.539   1.320  0.6394  0.6852  0.4524
 5367TIP3    H237517   1.860   3.510   1.390  1.3079  0.1539 -0.9863
 5368TIP3   OH237518   0.308   1.408   5.594 -0.0669 -0.4570 -0.1323
 5368TIP3    H137519   0.320   1.503   5.601  1.1574 -0.6265  0.0850
 5368TIP3    H237520   0.321   1.376   5.683 -1.3795 -0.7445 -0.0262
 5369TIP3   OH237521   0.717   6.525  11.096 -0.2971  0.5867 -0.4108
 5369TIP3    H137522   0.798   6.489  11.060 -0.8419 -0.2781 -0.7702
 5369TIP3    H237523   0.682   6.580  11.026 -0.0710  0.8901 -0.2864
 5370TIP3   OH237524   0.447   4.565   4.606  0.4427  0.2388  0.3191
 5370TIP3    H137525   0.449   4.475   4.639  0.2152  0.1764  0.1639
 5370TIP3    H237526   0.537   4.595   4.613  0.4976  0.0373  0.4811
 5371TIP3   OH237527   0.076   5.437  15.767 -0.0999  0.4367 -0.3649
 5371TIP3    H137528   0.120   5.391  15.839 -1.4027 -2.6555 -1.4475
 5371TIP3    H237529   0.001   5.480  15.808 -0.7933 -1.2477  0.1711
 5372TIP3   OH237530   0.348   0.913  13.085 -0.4376 -0.8502  0.2614
 5372TIP3    H137531   0.399   0.980  13.039 -0.2484 -2.1110 -1.3765
 5372TIP3    H237532   0.273   0.961  13.120  0.3985  0.4807  0.2763
 5373TIP3   OH237533   0.889   0.478   1.004  0.3892 -0.5124 -0.0712
 5373TIP3    H137534   0.967   0.450   1.052  1.9850  0.3914 -2.0604
 5373TIP3    H237535   0.886   0.420   0.928  1.0199  1.5831 -1.7205
 5374TIP3   OH237536   5.511   1.646  11.688  0.2581  0.4165 -0.1978
 5374TIP3    H137537   5.551   1.599  11.615  1.0440 -1.2673  1.2811
 5374TIP3    H237538   5.578   1.647  11.756 -1.3503 -0.3878  1.4734
 5375TIP3   OH237539   0.575   2.659  15.613  0.4983  0.6903 -0.7732
 5375TIP3    H137540   0.591   2.678  15.706 -0.3369 -1.9078 -0.0681
 5375TIP3    H237541   0.660   2.628  15.581  0.2146 -0.6252 -0.2811
 5376TIP3   OH237542   1.620   4.388  13.152 -0.2758 -0.1826 -0.0497
 5376TIP3    H137543   1.534   4.430  13.160 -0.1439  0.2384 -0.7773
 5376TIP3    H237544   1.659   4.429  13.074 -0.2235 -1.7873 -0.8821
 5377TIP3   OH237545   6.234   0.023   4.006 -0.2123 -0.1734 -0.1051
 5377TIP3    H137546   6.191   0.012   3.922 -1.5048  0.3809  0.4785
 5377TIP3    H237547   6.171   0.069   4.060  1.5868  1.8016  0.3802
 5378TIP3   OH237548   4.520   4.203   0.221  0.5861 -0.5134  0.2581
 5378TIP3    H137549   4.596   4.255   0.247  0.0930  0.4880 -0.2704
 5378TIP3    H237550   4.445   4.253   0.252 -0.0180  0.6769 -2.9543
 5379TIP3   OH237551   1.403   3.374   4.052  0.5672  0.2188  0.1106
 5379TIP3    H137552   1.448   3.293   4.073 -0.0079  0.2384  1.4216
 5379TIP3    H237553   1.315   3.363   4.087 -0.2522  0.4755 -1.7719
 5380TIP3   OH237554   5.494   1.006  14.815  0.1359 -0.5328  0.0155
 5380TIP3    H137555   5.472   0.920  14.778  1.0472 -1.1191  0.7887
 5380TIP3    H237556   5.419   1.027  14.871  0.3466 -1.3002  0.6029
 5381TIP3   OH237557   5.495   4.317   0.436  0.4017 -0.2320  0.4852
 5381TIP3    H137558   5.576   4.341   0.393 -1.0789  1.4965 -1.4482
 5381TIP3    H237559   5.502   4.355   0.524  1.2117  0.8852 -0.0498
 5382TIP3   OH237560   2.812   4.165   4.088  0.1833 -0.3884 -0.8618
 5382TIP3    H137561   2.819   4.252   4.126 -1.9522 -0.7034  0.3304
 5382TIP3    H237562   2.897   4.123   4.106 -0.7254 -0.5223  3.5876
 5383TIP3   OH237563   1.086   5.574   5.229 -0.2779  0.3104  0.4570
 5383TIP3    H137564   1.099   5.651   5.284  1.5090  0.3953 -0.0445
 5383TIP3    H237565   1.173   5.555   5.193 -0.7476 -1.7519  0.3215
 5384TIP3   OH237566   6.184   2.329   2.776 -0.3856  0.0826  0.3010
 5384TIP3    H137567   6.120   2.262   2.751  1.3413 -1.2429 -0.6551
 5384TIP3    H237568   6.147   2.368   2.856 -3.2673  0.6198 -1.2186
 5385TIP3   OH237569   3.618   2.806  15.501 -0.0397  0.2850  0.1159
 5385TIP3    H137570   3.537   2.831  15.456  0.2124 -0.0574 -0.5289
 5385TIP3    H237571   3.594   2.805  15.594 -1.0371 -0.8024 -0.1385
 5386TIP3   OH237572   5.848   6.470  13.227  0.2216  0.0817  0.1881
 5386TIP3    H137573   5.847   6.560  13.260 -0.3819  0.1842 -0.1036
 5386TIP3    H237574   5.918   6.427  13.276 -0.7171  0.2069  1.6767
 5387TIP3   OH237575   6.419   0.551   4.501  0.0753 -0.1305 -0.0318
 5387TIP3    H137576   6.342   0.608   4.501  0.6641  0.6649 -0.3056
 5387TIP3    H237577   6.461   0.568   4.586  0.7986  0.5977 -0.5229
 5388TIP3   OH237578   0.240   4.602   3.228  0.3541  0.3434  0.1163
 5388TIP3    H137579   0.151   4.591   3.262  0.3889  0.4022  0.2262
 5388TIP3    H237580   0.262   4.693   3.246  0.7187  0.1301  0.7705
 5389TIP3   OH237581   6.217   2.002   0.025 -0.4937  0.0215  0.2801
 5389TIP3    H137582   6.272   2.062   0.075 -0.1441 -1.0172  1.1569
 5389TIP3    H237583   6.213   1.923   0.078 -0.4495 -0.9562 -1.1502
 5390TIP3   OH237584   3.393   1.519  13.508 -0.0768  0.0912 -0.3839
 5390TIP3    H137585   3.477   1.549  13.474  0.9351 -1.2755  0.8575
 5390TIP3    H237586   3.331   1.537  13.438  1.2913  0.9132 -1.4041
 5391TIP3   OH237587   1.414   4.439   5.117 -0.9504  0.2344 -0.3629
 5391TIP3    H137588   1.476   4.379   5.076 -0.5116  0.0196  0.6168
 5391TIP3    H237589   1.448   4.526   5.096 -0.8646  0.1324 -0.6629
 5392TIP3   OH237590   3.505   1.259  14.270  0.4662  0.1526  0.1815
 5392TIP3    H137591   3.588   1.221  14.240 -1.0682 -2.6256 -0.7187
 5392TIP3    H237592   3.510   1.351  14.243  3.3790  0.1379  0.4864
 5393TIP3   OH237593   2.814   5.134   3.985 -0.6493 -0.2321  0.3802
 5393TIP3    H137594   2.745   5.070   4.003 -2.4123  1.5161  0.0555
 5393TIP3    H237595   2.850   5.108   3.900 -0.8271 -1.2131  0.5963
 5394TIP3   OH237596   1.420   4.478  14.342 -0.2642 -0.6244 -0.0401
 5394TIP3    H137597   1.431   4.391  14.304  1.9923  0.1339 -1.1935
 5394TIP3    H237598   1.506   4.500  14.378 -0.7623  1.2050  0.1145
 5395TIP3   OH237599   1.160   4.496   3.314  0.0484  0.2567 -0.5429
 5395TIP3    H137600   1.072   4.460   3.302  0.5185 -1.1256  0.1374
 5395TIP3    H237601   1.163   4.571   3.255 -0.6935 -1.2201 -2.4969
 5396TIP3   OH237602   2.649   3.316  11.277  0.2411  0.4033 -0.1795
 5396TIP3    H137603   2.731   3.281  11.314  0.1625 -0.5976 -0.9380
 5396TIP3    H237604   2.678   3.370  11.204  0.2768  0.7597  0.0991
 5397TIP3   OH237605   0.212   5.445  11.402  0.3148  0.2320  0.3260
 5397TIP3    H137606   0.244   5.368  11.353 -0.2210  0.6563 -0.6909
 5397TIP3    H237607   0.128   5.417  11.437 -0.2162  0.5982 -0.6497
 5398TIP3   OH237608   0.631   3.159   1.128 -0.5972 -0.6819  0.0015
 5398TIP3    H137609   0.599   3.209   1.202 -2.2170 -1.5101 -0.1368
 5398TIP3    H237610   0.593   3.202   1.051  1.6191  0.6009 -0.4505
 5399TIP3   OH237611   4.937   0.685  15.020 -0.0457 -0.6838  0.3400
 5399TIP3    H137612   5.013   0.734  14.988 -0.2927 -1.0765 -0.8681
 5399TIP3    H237613   4.959   0.663  15.111  1.3801 -0.9793 -0.0607
 5400TIP3   OH237614   3.249   2.235  13.390  0.0680  0.4760 -0.0949
 5400TIP3    H137615   3.331   2.210  13.432 -0.6843  0.4752  1.3859
 5400TIP3    H237616   3.259   2.327  13.369  1.4542 -0.1328 -2.3082
 5401TIP3   OH237617   3.415   3.113  15.994  0.0539 -0.0159  0.4155
 5401TIP3    H137618   3.406   3.080  15.904  1.5160 -0.4157  0.4051
 5401TIP3    H237619   3.443   3.037  16.045  1.0931  0.6409  0.8419
 5402TIP3   OH237620   0.338   0.463  16.460  0.1371 -0.7085 -0.3520
 5402TIP3    H137621   0.269   0.400  16.483 -0.0469 -0.3551  0.0684
 5402TIP3    H237622   0.296   0.524  16.399  0.2111 -0.7735 -0.4687
 5403TIP3   OH237623   5.429   4.362  15.828  0.0717  0.3822 -0.3962
 5403TIP3    H137624   5.339   4.336  15.808  0.6349 -1.1669 -0.9346
 5403TIP3    H237625   5.421   4.410  15.911 -1.0913 -0.8452  0.2376
 5404TIP3   OH237626   4.260   4.647  12.061  0.0328  0.1131 -0.7472
 5404TIP3    H137627   4.356   4.640  12.063  0.2897  2.9147  0.7167
 5404TIP3    H237628   4.240   4.680  11.973  0.4439 -0.2980 -0.9935
 5405TIP3   OH237629   4.627   3.231   1.742  0.3715  0.2680 -0.2750
 5405TIP3    H137630   4.537   3.226   1.707  0.6360 -1.8505 -0.6999
 5405TIP3    H237631   4.665   3.146   1.721  2.4173  1.0755  0.1240
 5406TIP3   OH237632   1.360   2.584  13.809  0.4490  0.4015 -0.7665
 5406TIP3    H137633   1.394   2.669  13.779  0.2048  0.4821 -0.8178
 5406TIP3    H237634   1.269   2.603  13.835  1.3885  0.8514  2.3387
 5407TIP3   OH237635   3.402   6.089   1.137 -0.0139  0.0161  0.0373
 5407TIP3    H137636   3.406   6.176   1.177  1.3148 -0.7922  1.7528
 5407TIP3    H237637   3.374   6.032   1.208 -0.3711 -1.0300 -0.9373
 5408TIP3   OH237638   1.083   3.803   0.419  0.0916 -0.0416 -0.4117
 5408TIP3    H137639   1.088   3.887   0.373  1.9797 -0.3269 -0.7400
 5408TIP3    H237640   1.002   3.809   0.469 -0.1597  1.6992 -0.9802
 5409TIP3   OH237641   0.337   5.728  13.855  0.1995  0.8196  0.4692
 5409TIP3    H137642   0.358   5.731  13.761 -1.2611  0.1126  0.1126
 5409TIP3    H237643   0.249   5.763  13.861 -0.1022 -0.0847  1.4482
 5410TIP3   OH237644   2.493   2.584  14.361 -0.1032 -0.5604 -0.6788
 5410TIP3    H137645   2.421   2.536  14.401 -0.2791 -0.0555 -0.3778
 5410TIP3    H237646   2.551   2.517  14.326 -1.0757 -0.9543 -1.5423
 5411TIP3   OH237647   0.812   6.550  16.418  0.0109 -0.3050  0.0949
 5411TIP3    H137648   0.791   6.599  16.497  0.9238 -1.8654  1.3167
 5411TIP3    H237649   0.777   6.604  16.347 -2.5185  0.1704  1.6545
 5412TIP3   OH237650   4.312   0.728   1.661 -0.7170  0.3394  0.1891
 5412TIP3    H137651   4.403   0.739   1.635 -0.7024  4.1230  1.5716
 5412TIP3    H237652   4.262   0.740   1.580 -0.1792  2.5298  0.1579
 5413TIP3   OH237653   5.430   6.635   2.259  0.2855 -0.1648 -0.5032
 5413TIP3    H137654   5.351   6.593   2.224 -0.3468 -0.0665  0.7699
 5413TIP3    H237655   5.475   6.670   2.182  0.1923 -2.0893 -1.4449
 5414TIP3   OH237656   3.346   4.058   0.336  0.1743  0.1567  0.1148
 5414TIP3    H137657   3.406   4.059   0.410  0.8278 -0.5000 -0.3912
 5414TIP3    H237658   3.395   4.015   0.266  0.0729  2.0376 -1.1407
 5415TIP3   OH237659   2.422   2.873  11.576 -0.0746  0.0986 -0.0927
 5415TIP3    H137660   2.340   2.918  11.555 -0.8894 -1.3139  0.0309
 5415TIP3    H237661   2.480   2.895  11.503 -1.1241 -0.3076 -1.0769
 5416TIP3   OH237662   2.239   0.555  16.867  0.3982  0.0754  0.0381
 5416TIP3    H137663   2.180   0.625  16.837 -0.4226 -1.4641 -2.0742
 5416TIP3    H237664   2.198   0.474  16.836  2.4027 -1.2027  0.6119
 5417TIP3   OH237665   0.312   0.803  14.868  0.4127  0.1897  0.9820
 5417TIP3    H137666   0.352   0.890  14.877  0.9327  0.0789 -0.1401
 5417TIP3    H237667   0.361   0.748  14.929  0.4763  0.5470  1.2603
 5418TIP3   OH237668   0.314   4.672  16.837  0.3572  0.0329  0.7111
 5418TIP3    H137669   0.359   4.755  16.854  1.7624 -0.7091  0.6800
 5418TIP3    H237670   0.308   4.630  16.923 -1.5282  0.7099  0.9543
 5419TIP3   OH237671   1.722   5.276  13.812 -0.4653  0.2718 -0.0728
 5419TIP3    H137672   1.691   5.353  13.765 -1.1208 -0.5641 -1.0200
 5419TIP3    H237673   1.699   5.202  13.755  0.2644 -0.6102  0.7671
 5420TIP3   OH237674   5.752   2.652   6.023  0.3962  0.2283  0.0446
 5420TIP3    H137675   5.700   2.575   6.046  1.0554 -0.2671 -0.0737
 5420TIP3    H237676   5.717   2.680   5.938  0.9423 -0.6790 -0.4913
 5421TIP3   OH237677   5.453   6.345   1.023  0.8037 -0.2180  0.5830
 5421TIP3    H137678   5.442   6.337   1.118 -2.2996  0.8093  0.3789
 5421TIP3    H237679   5.424   6.434   1.004  1.8233 -0.2738 -1.2934
 5422TIP3   OH237680   0.704   1.608   3.561  0.5771  0.0908  0.0001
 5422TIP3    H137681   0.737   1.657   3.636  1.4026  0.0728 -0.3448
 5422TIP3    H237682   0.700   1.672   3.490 -2.1591  0.5980  0.5710
 5423TIP3   OH237683   1.422   4.205  14.200 -0.2409  0.1093  0.0567
 5423TIP3    H137684   1.396   4.141  14.134  1.1024 -0.7455  0.3593
 5423TIP3    H237685   1.425   4.156  14.282  2.7144  0.1015 -0.0317
 5424TIP3   OH237686   0.399   5.410   3.810  0.4090  0.1310  0.0929
 5424TIP3    H137687   0.338   5.475   3.845  1.4765  0.2616  1.7498
 5424TIP3    H237688   0.442   5.373   3.887  0.2232 -2.1411 -0.8733
 5425TIP3   OH237689   0.997   1.089   4.489 -0.4955  0.1409 -0.1043
 5425TIP3    H137690   1.068   1.152   4.506  0.9294 -1.0778 -1.3775
 5425TIP3    H237691   0.984   1.046   4.573 -1.2947  1.9190  0.7153
 5426TIP3   OH237692   3.667   5.553  16.068  0.8599  0.3561 -0.0177
 5426TIP3    H137693   3.609   5.488  16.028  0.4761 -0.2210  1.4196
 5426TIP3    H237694   3.723   5.583  15.997 -1.3142  1.0667 -1.5167
 5427TIP3   OH237695   1.281   6.276  13.593  0.5015  0.0383 -1.1073
 5427TIP3    H137696   1.251   6.343  13.655 -1.6304 -0.6820 -1.2932
 5427TIP3    H237697   1.376   6.273  13.604  0.2988  0.8871  1.1528
 5428TIP3   OH237698   3.538   0.786   1.382  0.5302 -0.0890 -0.4675
 5428TIP3    H137699   3.555   0.719   1.316 -1.1820  0.6430 -1.6666
 5428TIP3    H237700   3.446   0.773   1.406  0.8211  0.3904  0.9400
 5429TIP3   OH237701   6.781   5.959  10.619 -0.0744  0.5779  0.3618
 5429TIP3    H137702   6.816   6.031  10.672 -0.4965  1.7690 -0.9406
 5429TIP3    H237703   6.829   5.882  10.649 -1.5163  0.8559  3.7155
 5430TIP3   OH237704   0.336   5.362  15.614 -0.0179 -0.1273 -0.0523
 5430TIP3    H137705   0.247   5.391  15.633 -0.2244 -0.1807 -0.9446
 5430TIP3    H237706   0.360   5.408  15.534  0.2634 -1.1311 -0.5548
 5431TIP3   OH237707   5.099   6.775  11.214 -0.5119 -0.2835  0.3181
 5431TIP3    H137708   5.010   6.743  11.200 -1.4464  1.6768  1.6499
 5431TIP3    H237709   5.103   6.858  11.167 -0.0725  0.6933  2.0423
 5432TIP3   OH237710   5.491   4.774  15.066 -0.3255  0.3703 -0.0018
 5432TIP3    H137711   5.472   4.705  15.003  0.2336  0.4213 -0.2236
 5432TIP3    H237712   5.584   4.766  15.084 -0.2970  0.9417  0.1148
 5433TIP3   OH237713   4.845   1.794   1.460 -0.4557  0.6676  0.1218
 5433TIP3    H137714   4.784   1.757   1.523  0.8804  0.2374  1.1783
 5433TIP3    H237715   4.818   1.886   1.452 -1.4094  0.4123  0.3525
 5434TIP3   OH237716   5.148   6.089  14.556 -0.2069 -0.0594 -0.3414
 5434TIP3    H137717   5.107   6.162  14.509  0.7657 -0.5168 -1.9394
 5434TIP3    H237718   5.078   6.024  14.565 -1.0473  1.0126  0.9964
 5435TIP3   OH237719   0.571   2.236  13.993 -0.1292 -0.2547 -0.3652
 5435TIP3    H137720   0.486   2.277  14.009  0.7784  0.6142  2.5646
 5435TIP3    H237721   0.557   2.144  14.014 -0.4157 -0.1548 -0.1130
 5436TIP3   OH237722   1.198   2.676  14.219  0.2755 -0.2635  0.2314
 5436TIP3    H137723   1.282   2.630  14.208 -0.3161 -0.8951 -2.0127
 5436TIP3    H237724   1.221   2.769  14.216  0.7722 -0.4280 -1.7696
 5437TIP3   OH237725   5.713   2.553  17.048 -0.3003 -0.2483 -0.1729
 5437TIP3    H137726   5.785   2.562  17.111 -1.4601  0.3457  1.1031
 5437TIP3    H237727   5.647   2.615  17.079 -2.5915 -2.8810  0.3844
 5438TIP3   OH237728   1.687   4.986  16.865 -0.1175 -0.4395 -0.5205
 5438TIP3    H137729   1.753   4.971  16.933 -0.3246 -0.3748 -0.3046
 5438TIP3    H237730   1.673   5.080  16.865 -1.7694 -0.6821  0.8971
 5439TIP3   OH237731   5.424   0.236  14.065 -0.5382  0.2363  0.0448
 5439TIP3    H137732   5.415   0.330  14.082  0.6591  0.1349  1.3524
 5439TIP3    H237733   5.356   0.217  14.000 -1.8346  1.6899  0.9367
 5440TIP3   OH237734   0.187   6.671  12.490 -0.0415  0.3996  0.3146
 5440TIP3    H137735   0.218   6.619  12.415 -0.5149 -1.2115  1.2079
 5440TIP3    H237736   0.227   6.757  12.477  0.6745 -0.1418 -1.2722
 5441TIP3   OH237737   6.117   3.269  11.610 -0.0085 -0.1120 -0.0555
 5441TIP3    H137738   6.083   3.215  11.682  1.1201  1.5013  1.7499
 5441TIP3    H237739   6.158   3.344  11.654 -1.7092  2.3501 -2.4836
 5442TIP3   OH237740   1.243   6.741  13.019 -0.3364  0.2532  0.0356
 5442TIP3    H137741   1.241   6.701  12.932 -2.0105  1.1703 -0.3868
 5442TIP3    H237742   1.241   6.667  13.079  2.7248 -0.4497 -0.6707
 5443TIP3   OH237743   4.992   0.174   5.869  0.1137  0.0368 -0.0879
 5443TIP3    H137744   4.949   0.185   5.954  0.3418  0.9058 -0.0818
 5443TIP3    H237745   4.927   0.128   5.816  0.1661 -0.9596  0.7069
 5444TIP3   OH237746   6.133   3.856  17.142 -0.4612 -0.3098 -0.1596
 5444TIP3    H137747   6.079   3.887  17.069 -1.2494 -0.0989  0.5107
 5444TIP3    H237748   6.219   3.841  17.103 -0.7089  0.4227 -1.0032
 5445TIP3   OH237749   0.546   4.884  11.105  0.3381  0.2609 -0.4830
 5445TIP3    H137750   0.610   4.852  11.041  0.9906  0.1857  0.2007
 5445TIP3    H237751   0.567   4.976  11.117 -1.1138  0.8033 -1.9394
 5446TIP3   OH237752   5.727   4.097  16.928 -0.3822 -0.0837 -0.3241
 5446TIP3    H137753   5.744   4.037  17.001 -0.5081  0.4927  0.1843
 5446TIP3    H237754   5.632   4.096  16.917 -0.6070  1.8036  1.2290
 5447TIP3   OH237755   1.195   3.684  13.850 -0.7145 -0.7854 -0.2562
 5447TIP3    H137756   1.161   3.689  13.760 -1.1837  3.5132  0.0924
 5447TIP3    H237757   1.119   3.696  13.905  0.4417  2.9848  0.6064
 5448TIP3   OH237758   0.518   5.106   3.273 -0.4194 -0.0305  0.0215
 5448TIP3    H137759   0.533   5.024   3.225  0.2657 -0.0056  0.1956
 5448TIP3    H237760   0.524   5.080   3.365  1.8845  0.6018  0.0763
 5449TIP3   OH237761   1.244   0.366   3.745  0.7041  0.2671 -0.3159
 5449TIP3    H137762   1.250   0.425   3.670  1.2606 -1.5520 -1.7300
 5449TIP3    H237763   1.152   0.341   3.748  0.9745 -0.8806 -1.3626
 5450TIP3   OH237764   1.700   4.593  11.546  0.0243 -0.2976 -0.0770
 5450TIP3    H137765   1.710   4.551  11.631 -1.1722  1.5209  1.0131
 5450TIP3    H237766   1.745   4.677  11.556 -0.0814 -0.0911 -1.2545
 5451TIP3   OH237767   5.963   6.133   2.186 -0.3508  0.6527 -0.0956
 5451TIP3    H137768   5.895   6.196   2.209 -1.3910 -0.4410 -0.1401
 5451TIP3    H237769   6.038   6.157   2.240 -0.9211  1.5816  0.2877
 5452TIP3   OH237770   1.085   6.250   2.248 -0.3217  0.3691 -0.4735
 5452TIP3    H137771   1.037   6.291   2.175 -3.5445  1.0957  1.9432
 5452TIP3    H237772   1.039   6.168   2.263 -0.5536  0.8373  1.5619
 5453TIP3   OH237773   3.005   5.536  12.170  0.1951 -0.1887  0.4584
 5453TIP3    H137774   2.925   5.499  12.135 -0.1222  1.0310 -0.1382
 5453TIP3    H237775   2.992   5.538  12.265 -1.1087  1.4035  0.2617
 5454TIP3   OH237776   2.011   6.560  15.766  0.4038  0.2369 -0.2060
 5454TIP3    H137777   2.101   6.533  15.788 -0.1898 -0.8301  0.9768
 5454TIP3    H237778   1.970   6.579  15.850 -0.1010  2.0194 -0.8282
 5455TIP3   OH237779   5.107   2.005   0.306 -0.4488 -0.1865 -0.4075
 5455TIP3    H137780   5.146   1.953   0.376  0.3090  1.8246  0.6978
 5455TIP3    H237781   5.052   1.943   0.258 -0.2161 -1.8106  1.3623
 5456TIP3   OH237782   3.019   3.660   4.417 -0.0031  0.0692 -0.2993
 5456TIP3    H137783   3.112   3.661   4.394 -0.2582 -0.7417 -1.4240
 5456TIP3    H237784   3.017   3.680   4.510  1.6697 -4.3207  0.8096
 5457TIP3   OH237785   5.085   5.371  12.544  0.2199  0.6275  0.0587
 5457TIP3    H137786   5.093   5.354  12.450 -0.5685  0.5096  0.0071
 5457TIP3    H237787   5.056   5.462  12.550 -1.3895  0.1319  0.1142
 5458TIP3   OH237788   3.602   5.993   0.409  0.3033 -0.8588 -0.2321
 5458TIP3    H137789   3.688   5.951   0.405  1.3461  1.2798 -0.6677
 5458TIP3    H237790   3.595   6.041   0.326 -0.9839 -0.3845  0.1395
 5459TIP3   OH237791   2.112   3.986   6.816  0.3599  0.4173  0.7169
 5459TIP3    H137792   2.040   3.934   6.781  1.1372  0.4365 -0.9537
 5459TIP3    H237793   2.184   3.972   6.754  1.0544  2.2413  1.0875
 5460TIP3   OH237794   1.247   0.223   4.885  0.2105 -0.3711 -0.4553
 5460TIP3    H137795   1.313   0.243   4.951  0.9836 -0.2632 -1.2580
 5460TIP3    H237796   1.223   0.309   4.848  0.3015 -0.5007 -0.8156
 5461TIP3   OH237797   3.170   2.422   0.453  0.2512 -0.0119  0.5471
 5461TIP3    H137798   3.249   2.370   0.440 -0.6800 -1.6123  1.1626
 5461TIP3    H237799   3.175   2.451   0.544  0.7459  0.9462  0.2184
 5462TIP3   OH237800   0.584   3.520  14.375  0.1603 -0.3248  0.3432
 5462TIP3    H137801   0.579   3.437  14.424  1.2759 -0.0969  0.8532
 5462TIP3    H237802   0.578   3.588  14.443 -0.5211  0.0164 -0.0547
 5463TIP3   OH237803   2.507   2.707   1.594  0.4766 -0.3059 -0.2010
 5463TIP3    H137804   2.514   2.801   1.605 -1.4101  0.0557 -1.7937
 5463TIP3    H237805   2.575   2.684   1.531  1.2608 -0.0803  0.5685
 5464TIP3   OH237806   0.030   5.085  13.877 -0.7114 -0.9408  0.2817
 5464TIP3    H137807   0.041   4.990  13.884 -0.6756 -0.9131  0.6526
 5464TIP3    H237808   0.051   5.105  13.786  0.1864 -1.1793  0.4222
 5465TIP3   OH237809   1.853   5.448   1.678 -0.0069 -0.4675 -0.3373
 5465TIP3    H137810   1.838   5.362   1.718 -0.2756 -0.1689  0.2218
 5465TIP3    H237811   1.840   5.434   1.585 -0.2871 -0.9810 -0.2244
 5466TIP3   OH237812   3.116   0.062   1.659 -0.1918 -0.4696  0.3801
 5466TIP3    H137813   3.142   0.128   1.723 -0.7128 -0.4756  0.6022
 5466TIP3    H237814   3.043   0.016   1.700 -0.2530 -0.7539 -0.0435
 5467TIP3   OH237815   0.680   5.827   5.382  0.0080  0.3007  0.1933
 5467TIP3    H137816   0.599   5.778   5.372 -0.1765  0.3017  1.5324
 5467TIP3    H237817   0.740   5.788   5.319 -0.7243 -0.3827 -0.0889
 5468TIP3   OH237818   3.719   6.609   1.309 -0.5668  0.2994 -0.2740
 5468TIP3    H137819   3.715   6.536   1.371 -2.3674  0.3608 -0.2917
 5468TIP3    H237820   3.660   6.583   1.238 -1.9446  2.1339  0.1448
 5469TIP3   OH237821   5.793   6.031  13.806 -0.4635  0.3227 -0.4802
 5469TIP3    H137822   5.806   6.042  13.900  1.6316  1.8558 -0.9181
 5469TIP3    H237823   5.879   6.049  13.767 -1.0753 -1.1769 -2.6311
 5470TIP3   OH237824   5.884   3.332  12.509  0.6670  0.4467  0.3069
 5470TIP3    H137825   5.888   3.352  12.416  0.6574  0.4175  0.3012
 5470TIP3    H237826   5.800   3.366  12.538  0.1303 -0.6317  0.0559
 5471TIP3   OH237827   5.200   6.753   3.771  0.7675 -0.3190  0.4349
 5471TIP3    H137828   5.170   6.703   3.847 -1.4725  1.1137  0.5588
 5471TIP3    H237829   5.138   6.826   3.764  0.0624 -1.1561 -3.6052
 5472TIP3   OH237830   4.676   0.947  16.840 -0.4594 -0.5815 -0.1947
 5472TIP3    H137831   4.715   0.944  16.927 -0.0890  1.2424 -0.2872
 5472TIP3    H237832   4.605   0.882  16.844  0.6541 -1.7751  0.8948
 5473TIP3   OH237833   3.798   5.446   3.471  0.3840  0.1743  0.1315
 5473TIP3    H137834   3.841   5.384   3.531  0.8741  0.3899  0.0047
 5473TIP3    H237835   3.770   5.518   3.527  2.8862  1.4779 -0.2026
 5474TIP3   OH237836   2.291   0.927  12.446 -0.2710  0.2809 -0.6506
 5474TIP3    H137837   2.272   0.861  12.379 -2.1660  0.7539 -0.5945
 5474TIP3    H237838   2.226   0.911  12.515  0.3429  1.1243  0.1356
 5475TIP3   OH237839   4.440   6.533   2.023 -0.0519  0.0658 -0.9362
 5475TIP3    H137840   4.502   6.605   2.019 -0.6041  0.4293 -3.4297
 5475TIP3    H237841   4.494   6.454   2.010 -0.0292  0.3402 -2.5347
 5476TIP3   OH237842   3.577   3.153   0.971 -0.1360 -0.3069  0.3768
 5476TIP3    H137843   3.642   3.088   0.997  0.0927 -0.0793  0.3827
 5476TIP3    H237844   3.617   3.237   0.995  0.0807 -0.0963 -0.7163
 5477TIP3   OH237845   2.771   4.105  12.362  0.4487 -0.5518  0.5735
 5477TIP3    H137846   2.715   4.043  12.315 -0.2117  0.6057 -0.1956
 5477TIP3    H237847   2.716   4.181  12.377  1.9591  0.8253 -0.6777
 5478TIP3   OH237848   2.536   5.503   3.258 -0.5962  0.6811  0.4177
 5478TIP3    H137849   2.464   5.455   3.217 -1.2262 -0.6474  2.9320
 5478TIP3    H237850   2.615   5.455   3.233 -0.9767 -0.1699  0.8555
 5479TIP3   OH237851   2.603   2.277  13.464 -0.0721  0.6447 -0.3578
 5479TIP3    H137852   2.522   2.233  13.438  0.1494 -0.5944  0.9624
 5479TIP3    H237853   2.653   2.285  13.383  0.0985 -2.0333 -0.5605
 5480TIP3   OH237854   1.928   5.354  10.863  0.0124  0.8251  0.3262
 5480TIP3    H137855   1.983   5.419  10.906 -0.2853  1.1248  0.2586
 5480TIP3    H237856   1.915   5.389  10.775 -2.6786  2.2011  1.2302
 5481TIP3   OH237857   1.359   1.886  12.464 -0.0627 -0.0814 -0.2670
 5481TIP3    H137858   1.314   1.959  12.424 -0.3460  0.6793  1.3848
 5481TIP3    H237859   1.290   1.835  12.506  0.3476 -0.1672  0.3182
 5482TIP3   OH237860   1.090   1.610  17.080  0.2598  0.1023  0.1248
 5482TIP3    H137861   1.053   1.528  17.046 -0.5996  0.2507  0.6822
 5482TIP3    H237862   1.183   1.606  17.055 -0.1867 -0.1328 -1.5728
 5483TIP3   OH237863   1.688   5.213  16.171  0.3014 -0.4411 -0.3549
 5483TIP3    H137864   1.671   5.119  16.171  1.2438 -0.6178  0.2785
 5483TIP3    H237865   1.684   5.239  16.263  0.2221  0.1080 -0.5081
 5484TIP3   OH237866   1.004   6.714   1.655  0.4578 -0.3396 -0.0694
 5484TIP3    H137867   0.911   6.738   1.658  0.6235  0.0893  2.3448
 5484TIP3    H237868   1.048   6.793   1.623  0.2704  0.3811  1.4174
 5485TIP3   OH237869   4.198   6.352   5.843 -0.6798 -0.3571 -0.8053
 5485TIP3    H137870   4.276   6.307   5.809 -1.2872 -1.9600 -0.1551
 5485TIP3    H237871   4.231   6.433   5.880  0.9649 -1.8306  1.0792
 5486TIP3   OH237872   4.998   4.753  10.755  0.1925  0.4643  0.1559
 5486TIP3    H137873   4.919   4.699  10.750 -0.6425  1.5438  1.3700
 5486TIP3    H237874   5.037   4.731  10.839  0.1855  1.2719  0.3756
 5487TIP3   OH237875   2.137   2.149  17.191  0.3217 -0.1839  0.6561
 5487TIP3    H137876   2.048   2.114  17.201  0.5194 -0.6124  0.9257
 5487TIP3    H237877   2.124   2.238  17.159 -0.2539  0.1620  1.8059
 5488TIP3   OH237878   2.044   6.685   0.431 -0.0041 -0.2405  0.1412
 5488TIP3    H137879   1.967   6.722   0.475 -0.0488  0.7324 -0.7376
 5488TIP3    H237880   2.012   6.605   0.390 -0.6549  0.3598 -0.5497
 5489TIP3   OH237881   2.000   1.201  10.729  0.1358  0.0717 -0.5128
 5489TIP3    H137882   1.924   1.258  10.727 -0.6054 -0.8994 -0.5879
 5489TIP3    H237883   1.967   1.116  10.699  0.5504 -1.1972  2.4664
 5490TIP3   OH237884   1.206   4.609  10.768  0.1008 -0.1104  0.0941
 5490TIP3    H137885   1.199   4.598  10.673 -0.6972 -0.9636  0.2439
 5490TIP3    H237886   1.121   4.643  10.794  0.6026  0.9286  0.4070
 5491TIP3   OH237887   5.409   4.036   2.431  0.0226 -1.1289  0.4463
 5491TIP3    H137888   5.346   3.990   2.377  0.2255 -0.6629 -0.1971
 5491TIP3    H237889   5.469   4.077   2.368  0.9032 -1.4826  1.0384
 5492TIP3   OH237890   1.385   1.901  16.973  0.4384 -0.1676  0.2403
 5492TIP3    H137891   1.428   1.895  16.888 -0.2612 -3.3146  0.0675
 5492TIP3    H237892   1.294   1.875  16.956  0.3570 -1.1060  2.0114
 5493TIP3   OH237893   4.175   3.506  12.135  0.1862 -0.8613  0.5791
 5493TIP3    H137894   4.080   3.520  12.132  0.3423  0.4294  1.2401
 5493TIP3    H237895   4.199   3.482  12.046 -0.8145 -1.5459  0.4864
 5494TIP3   OH237896   1.333   0.534  15.733  0.0667  0.7534  0.3398
 5494TIP3    H137897   1.240   0.528  15.714  0.5358  0.2409 -1.8974
 5494TIP3    H237898   1.339   0.597  15.805 -1.8905  1.8344 -0.4254
 5495TIP3   OH237899   4.998   2.468   0.134  0.5479  0.0665 -0.4834
 5495TIP3    H137900   4.907   2.449   0.158 -0.9427 -0.6549 -6.0850
 5495TIP3    H237901   5.049   2.402   0.181 -1.6273  0.9398  3.3736
 5496TIP3   OH237902   2.689   1.892   3.927 -0.2373 -0.3050 -0.1748
 5496TIP3    H137903   2.655   1.840   4.000  0.5792 -0.7924 -0.1374
 5496TIP3    H237904   2.638   1.973   3.929 -1.4411 -1.0660 -0.1676
 5497TIP3   OH237905   6.007   5.394  13.037  0.7041 -0.6749  0.2062
 5497TIP3    H137906   5.992   5.355  12.951  0.9011  0.8252 -0.5304
 5497TIP3    H237907   5.931   5.368  13.089  0.3870 -1.2641 -0.5417
 5498TIP3   OH237908   3.960   6.519  15.725  0.2016  0.2956 -0.2575
 5498TIP3    H137909   3.888   6.570  15.687 -0.2845 -0.4428 -0.3454
 5498TIP3    H237910   4.007   6.580  15.781 -0.8742  0.6234  0.2921
 5499TIP3   OH237911   0.282   1.450   4.364  0.2590 -0.1841  0.0075
 5499TIP3    H137912   0.247   1.509   4.298  1.1997 -1.6170 -1.8217
 5499TIP3    H237913   0.255   1.363   4.335 -0.2564 -0.7666  2.1136
 5500TIP3   OH237914   4.517   4.560  13.283  0.5025  0.0086  0.3694
 5500TIP3    H137915   4.599   4.563  13.234  1.5348 -1.4736  1.9888
 5500TIP3    H237916   4.484   4.471  13.270  0.0923  0.0247  1.2418
 5501TIP3   OH237917   0.237   6.561  13.812  0.1768 -0.2513  0.1537
 5501TIP3    H137918   0.204   6.482  13.768  0.3000 -1.0445  1.4480
 5501TIP3    H237919   0.227   6.542  13.905 -0.4468  1.5510  0.4788
 5502TIP3   OH237920   4.349   1.765   4.500  0.0700 -0.0076 -0.8595
 5502TIP3    H137921   4.356   1.677   4.462  0.3515 -0.2418 -0.2731
 5502TIP3    H237922   4.367   1.824   4.427  0.6097 -0.4573 -1.0943
 5503TIP3   OH237923   1.214   0.411   4.112 -0.2279  0.9411 -1.0270
 5503TIP3    H137924   1.120   0.406   4.091 -0.0781  0.2958 -1.5345
 5503TIP3    H237925   1.217   0.464   4.192 -0.9994  1.2664 -1.2006
 5504TIP3   OH237926   5.475   0.899   1.751 -0.0232  0.4796  0.2727
 5504TIP3    H137927   5.545   0.857   1.801  1.4297  1.7340 -0.6327
 5504TIP3    H237928   5.489   0.869   1.661  0.0120  1.5650 -0.0936
 5505TIP3   OH237929   5.828   5.658   5.278 -0.5997 -0.0907  0.2530
 5505TIP3    H137930   5.895   5.726   5.279 -1.6536  0.9546  0.3935
 5505TIP3    H237931   5.871   5.581   5.316  0.9765  0.1127 -1.0478
 5506TIP3   OH237932   4.283   3.274  17.232 -0.2729 -0.0688 -0.2881
 5506TIP3    H137933   4.301   3.186  17.265 -1.0729 -0.2548 -0.3358
 5506TIP3    H237934   4.302   3.269  17.139 -1.5766 -0.5593 -0.5460
 5507TIP3   OH237935   3.631   5.010  12.782 -0.0871 -0.0171 -0.2544
 5507TIP3    H137936   3.713   5.054  12.802 -0.9198  1.8468 -0.8874
 5507TIP3    H237937   3.597   4.982  12.868  1.4968 -1.3891 -0.0446
 5508TIP3   OH237938   2.575   1.699  14.270 -0.0030  0.0995  0.1987
 5508TIP3    H137939   2.590   1.632  14.338 -2.3889 -0.3856  0.2881
 5508TIP3    H237940   2.577   1.782  14.317 -0.0488 -0.1239  0.5986
 5509TIP3   OH237941   5.936   2.619   3.048 -0.6310 -0.0406  0.1889
 5509TIP3    H137942   5.926   2.602   2.954 -1.2262  0.1222  0.2226
 5509TIP3    H237943   5.915   2.712   3.058  0.0970  0.1076  0.3865
 5510TIP3   OH237944   0.565   5.043   3.547 -0.3543  0.1101 -0.1716
 5510TIP3    H137945   0.519   5.017   3.627 -0.1547 -0.6267 -0.2951
 5510TIP3    H237946   0.588   5.135   3.562 -1.0853  0.2295  0.2557
 5511TIP3   OH237947   2.331   6.735  11.036  0.2752 -0.6251  0.3239
 5511TIP3    H137948   2.421   6.720  11.008  0.5180  2.1309 -0.5373
 5511TIP3    H237949   2.277   6.700  10.966  0.6941 -1.5437  0.4607
 5512TIP3   OH237950   5.094   2.321  14.806 -0.1132 -0.1741  0.6988
 5512TIP3    H137951   5.063   2.328  14.716  0.8010  0.0588  0.3885
 5512TIP3    H237952   5.173   2.268  14.799  0.3772  0.4707  1.2578
 5513TIP3   OH237953   6.181   4.786   5.324  0.4553  0.7236  0.6906
 5513TIP3    H137954   6.113   4.719   5.316  0.9676  0.2772  0.0242
 5513TIP3    H237955   6.166   4.845   5.250  1.0309  0.4132  0.3303
 5514TIP3   OH237956   5.476   1.978   5.181 -0.1051 -0.6006 -0.6138
 5514TIP3    H137957   5.512   1.927   5.254 -0.9951 -1.6956 -0.9274
 5514TIP3    H237958   5.413   2.037   5.222  0.9213  0.2483 -0.2494
 5515TIP3   OH237959   2.767   5.877   6.075 -0.0721  0.1681  0.3206
 5515TIP3    H137960   2.705   5.840   6.012 -0.6360  0.7773  0.5012
 5515TIP3    H237961   2.790   5.804   6.131  2.3498 -0.9858 -2.0688
 5516TIP3   OH237962   5.890   6.175  15.761  0.1861 -0.6610  0.6968
 5516TIP3    H137963   5.895   6.079  15.761 -0.7785 -0.7188  0.5839
 5516TIP3    H237964   5.817   6.195  15.703  0.4861  0.1531  0.5928
 5517TIP3   OH237965   3.479   1.769   3.871 -0.2810  0.2174 -0.4438
 5517TIP3    H137966   3.517   1.804   3.790  0.8106  0.4449  0.1529
 5517TIP3    H237967   3.539   1.798   3.940 -2.0447  1.3628  0.6334
 5518TIP3   OH237968   6.579   2.838   1.328  0.1067  0.3282 -0.3873
 5518TIP3    H137969   6.491   2.815   1.360  0.3279 -0.5572 -0.3914
 5518TIP3    H237970   6.587   2.932   1.346 -0.4904  0.2288  0.4527
 5519TIP3   OH237971   0.317   3.293  15.595  0.0681 -0.0092 -0.4729
 5519TIP3    H137972   0.352   3.266  15.510  0.1462 -0.1686 -0.3891
 5519TIP3    H237973   0.322   3.215  15.649 -1.7635 -0.4370 -0.8744
 5520TIP3   OH237974   4.282   4.647  13.218  0.5988  1.1815 -0.6378
 5520TIP3    H137975   4.374   4.622  13.229  0.2175 -0.1451 -0.3972
 5520TIP3    H237976   4.263   4.628  13.127  0.1390 -0.0406 -0.3048
 5521TIP3   OH237977   3.491   3.023   1.234 -0.3481 -0.1160 -0.0820
 5521TIP3    H137978   3.445   3.063   1.160 -0.5248 -2.4846 -1.2922
 5521TIP3    H237979   3.423   2.979   1.285 -0.2353  1.5368  1.5586
 5522TIP3   OH237980   3.461   2.001  10.571 -0.0356  0.0984  0.0254
 5522TIP3    H137981   3.427   1.919  10.534  2.2637 -0.4075 -1.0767
 5522TIP3    H237982   3.526   2.031  10.507  1.5819  1.0131  2.0151
 5523TIP3   OH237983   1.847   4.857  11.597 -0.0841  0.2201 -0.0045
 5523TIP3    H137984   1.872   4.932  11.543 -2.2219  1.8484  1.2180
 5523TIP3    H237985   1.784   4.892  11.660  2.3970 -1.5943  3.6460
 5524TIP3   OH237986   4.641   0.072   6.688  0.0530 -0.1710  0.0118
 5524TIP3    H137987   4.562   0.027   6.658 -0.0738  0.6105 -0.8837
 5524TIP3    H237988   4.701   0.065   6.614  1.1301 -1.4695  0.9909
 5525TIP3   OH237989   0.167   3.602  12.912 -0.2784  0.0224  0.0953
 5525TIP3    H137990   0.249   3.567  12.948 -0.4022 -1.6152 -1.1582
 5525TIP3    H237991   0.194   3.677  12.860  0.3481 -0.0296  0.3419
 5526TIP3   OH237992   5.936   2.489  14.569 -0.1810  0.1078 -0.5401
 5526TIP3    H137993   5.884   2.545  14.511 -1.9057  0.2767  1.1162
 5526TIP3    H237994   5.972   2.422  14.512 -0.5279  1.1833 -2.0637
 5527TIP3   OH237995   1.726   5.254  16.426 -0.1554 -0.0917  0.7521
 5527TIP3    H137996   1.725   5.344  16.461  1.2642 -0.9594  3.1133
 5527TIP3    H237997   1.817   5.227  16.433  0.1723 -0.4128 -3.5278
 5528TIP3   OH237998   4.105   3.356  12.427  0.4611 -0.2100 -0.4900
 5528TIP3    H137999   4.158   3.425  12.466 -1.8224 -0.1043  2.5689
 5528TIP3    H238000   4.031   3.402  12.388 -0.1841 -0.7770  0.0519
 5529TIP3   OH238001   4.836   0.857  13.896 -0.0118  0.2339  0.0349
 5529TIP3    H138002   4.899   0.795  13.934  0.3790 -0.0489 -1.0647
 5529TIP3    H238003   4.865   0.869  13.806 -1.6982 -0.1166 -0.5723
 5530TIP3   OH238004   5.380   4.352   5.118 -0.2454  0.1221  0.0026
 5530TIP3    H138005   5.394   4.441   5.085  0.9667  0.3269  1.0013
 5530TIP3    H238006   5.469   4.319   5.132 -0.6783 -1.5091 -1.0382
 5531TIP3   OH238007   3.608   5.171   2.257  0.4272  0.3551  0.0678
 5531TIP3    H138008   3.555   5.241   2.295 -1.2413 -1.5473  1.3604
 5531TIP3    H238009   3.678   5.156   2.321  1.1592  1.2532 -0.5118
 5532TIP3   OH238010   1.810   2.086   1.673 -0.1081  0.4084  0.1850
 5532TIP3    H138011   1.774   2.116   1.757  0.0239  1.0089  0.0302
 5532TIP3    H238012   1.777   1.997   1.664 -3.0549  1.5053 -0.7838
 5533TIP3   OH238013   3.103   3.777  15.178  0.2342  0.0190 -0.3372
 5533TIP3    H138014   3.153   3.824  15.245  0.7498 -0.6144 -0.2759
 5533TIP3    H238015   3.012   3.785  15.206  0.2726  1.3069 -0.5284
 5534TIP3   OH238016   3.225   0.410  15.187  0.3454 -0.0088  0.5223
 5534TIP3    H138017   3.301   0.383  15.238 -0.0008  0.8541  1.5076
 5534TIP3    H238018   3.167   0.453  15.250 -0.9255 -0.5658 -0.2242
 5535TIP3   OH238019   1.529   3.710   2.311 -0.3521 -0.1270 -0.2243
 5535TIP3    H138020   1.560   3.800   2.298  0.1246 -0.2991 -0.3003
 5535TIP3    H238021   1.596   3.670   2.366 -1.0276 -0.1713  0.5666
 5536TIP3   OH238022   6.571   1.097   2.945 -0.2969 -0.3732 -0.1760
 5536TIP3    H138023   6.567   1.192   2.943  1.3127 -0.2779  0.6267
 5536TIP3    H238024   6.620   1.073   2.867  0.1107 -0.4792  0.1078
 5537TIP3   OH238025   3.658   3.553   1.832 -0.6215  0.3071  0.2637
 5537TIP3    H138026   3.578   3.591   1.868 -0.4422  0.9563 -0.0168
 5537TIP3    H238027   3.709   3.628   1.803 -0.8391 -0.2191 -1.5199
 5538TIP3   OH238028   2.291   3.827   3.837 -0.5408 -0.3053 -0.0385
 5538TIP3    H138029   2.241   3.801   3.915 -1.6363 -0.5399 -0.8012
 5538TIP3    H238030   2.233   3.888   3.791 -0.2789 -0.8582 -1.1184
 5539TIP3   OH238031   1.171   6.420   1.154  0.0439 -0.7152 -0.2144
 5539TIP3    H138032   1.160   6.395   1.246  0.5768 -1.3836 -0.3337
 5539TIP3    H238033   1.206   6.342   1.112  0.1219 -0.2988 -0.9225
 5540TIP3   OH238034   5.489   1.822   1.496 -0.3588  0.6306  0.0082
 5540TIP3    H138035   5.468   1.736   1.459  1.1537 -0.1876  0.9490
 5540TIP3    H238036   5.433   1.829   1.574 -0.6116  0.5668 -0.1692
 5541TIP3   OH238037   6.740   0.049   4.886 -0.1934  0.2676 -0.0032
 5541TIP3    H138038   6.778   0.129   4.850 -0.3103 -0.3450 -1.4980
 5541TIP3    H238039   6.796  -0.021   4.854 -0.7188 -0.3585  0.4287
 5542TIP3   OH238040   6.519   6.272   6.053 -0.1357 -0.7489 -0.0338
 5542TIP3    H138041   6.486   6.359   6.029  0.7485 -1.0074 -2.3514
 5542TIP3    H238042   6.462   6.243   6.124 -1.2678  1.1725 -0.1254
 5543TIP3   OH238043   1.671   2.662   3.285  0.2475 -0.7591  0.1465
 5543TIP3    H138044   1.577   2.679   3.284  0.2237 -0.9287 -0.6568
 5543TIP3    H238045   1.694   2.657   3.378 -0.5550 -0.8144  0.3393
 5544TIP3   OH238046   3.447   4.688  14.245 -0.1035 -0.2371  0.1916
 5544TIP3    H138047   3.453   4.601  14.205 -2.1243  0.0826 -0.8982
 5544TIP3    H238048   3.397   4.674  14.325 -0.7548 -0.0469 -0.1719
 5545TIP3   OH238049   5.557   3.493  13.739  0.1687 -0.9675  0.4200
 5545TIP3    H138050   5.593   3.409  13.709  1.0392 -0.4747  0.0536
 5545TIP3    H238051   5.596   3.558  13.680 -0.8069 -0.3443  0.4508
 5546TIP3   OH238052   6.051   6.421   2.634  0.1085 -0.3913 -0.2818
 5546TIP3    H138053   6.072   6.334   2.669 -0.4477 -0.6477 -0.5784
 5546TIP3    H238054   5.993   6.403   2.561 -0.0383  0.2395 -0.3144
 5547TIP3   OH238055   4.606   5.456   5.888  0.3017  0.2523  0.0947
 5547TIP3    H138056   4.565   5.534   5.925 -0.7948  0.6552 -1.9154
 5547TIP3    H238057   4.692   5.486   5.859 -0.4576  0.9195 -1.4640
 5548TIP3   OH238058   4.751   4.948  14.857 -0.4454 -0.0197  0.4608
 5548TIP3    H138059   4.714   5.027  14.819  0.5898 -0.6224 -1.8445
 5548TIP3    H238060   4.693   4.878  14.827  0.0149 -0.4246  0.5137
 5549TIP3   OH238061   3.437   1.165  13.032 -0.0374  0.7720 -0.5959
 5549TIP3    H138062   3.497   1.182  12.960 -1.4151  3.0494 -1.2387
 5549TIP3    H238063   3.351   1.156  12.991 -0.3524 -1.3316  0.4367
 5550TIP3   OH238064   3.628   1.833   5.785 -0.3883  0.0294 -0.1036
 5550TIP3    H138065   3.583   1.760   5.827  0.2670 -2.0411 -2.8920
 5550TIP3    H238066   3.642   1.896   5.856 -4.1756 -0.9113  1.6389
 5551TIP3   OH238067   6.226   5.562   3.466  0.1008 -0.0100  0.1787
 5551TIP3    H138068   6.320   5.549   3.477  0.0975  2.3034  3.5304
 5551TIP3    H238069   6.191   5.569   3.555 -2.8969  1.5216 -1.0325
 5552TIP3   OH238070   4.115   2.102  12.198 -0.2298 -0.8054  0.0492
 5552TIP3    H138071   4.104   2.116  12.104  0.6245  1.3052  0.2366
 5552TIP3    H238072   4.210   2.100  12.212 -0.3439 -0.5623  0.9327
 5553TIP3   OH238073   4.223   4.317  15.722  0.0888  0.0053 -0.3079
 5553TIP3    H138074   4.176   4.398  15.702 -1.7337 -0.7783  0.6630
 5553TIP3    H238075   4.306   4.324  15.674 -1.2474  1.1802 -2.4940
 5554TIP3   OH238076   5.701   0.439  14.934  0.5483 -0.2594  0.1052
 5554TIP3    H138077   5.761   0.368  14.957  0.0528 -0.7969 -0.2333
 5554TIP3    H238078   5.696   0.493  15.012  0.6840 -0.7768  0.4723
 5555TIP3   OH238079   1.907   0.689   4.151 -0.8048 -0.3986 -0.3012
 5555TIP3    H138080   1.915   0.782   4.126  1.4007 -0.5514 -0.2434
 5555TIP3    H238081   1.926   0.688   4.245 -0.3746 -0.9571 -0.3942
 5556TIP3   OH238082   3.760   0.380  14.115 -0.1214 -0.3662  0.4702
 5556TIP3    H138083   3.747   0.286  14.112 -0.8394 -0.2357 -2.7258
 5556TIP3    H238084   3.688   0.416  14.062 -0.0700  1.9932  1.9376
 5557TIP3   OH238085   1.969   5.007   4.675 -0.1792 -0.2610  0.1944
 5557TIP3    H138086   2.026   5.049   4.740  2.9831  0.4928 -2.9439
 5557TIP3    H238087   1.959   5.072   4.606 -4.2666 -0.7062  0.2442
 5558TIP3   OH238088   3.149   3.806  15.831  0.3108 -0.8865 -0.0925
 5558TIP3    H138089   3.238   3.826  15.861  0.5411 -2.1784  0.1313
 5558TIP3    H238090   3.095   3.811  15.909 -0.0452  1.1729 -0.4551
 5559TIP3   OH238091   5.379   0.315  11.365  0.5752 -0.3353 -0.5735
 5559TIP3    H138092   5.353   0.247  11.427  0.7857 -0.4573 -0.6186
 5559TIP3    H238093   5.296   0.345  11.327  0.2765  0.8883  0.9503
 5560TIP3   OH238094   5.889   5.187  16.329  0.1596  0.0051 -0.0997
 5560TIP3    H138095   5.913   5.180  16.421  1.2916  0.2970 -0.3714
 5560TIP3    H238096   5.939   5.262  16.296  1.1534 -1.1985 -1.3831
 5561TIP3   OH238097   5.440   6.491   0.111  0.0182  0.0923  0.3034
 5561TIP3    H138098   5.381   6.445   0.051  0.7937 -0.2385 -0.2086
 5561TIP3    H238099   5.448   6.433   0.186 -1.6528  0.8967  1.1399
 5562TIP3   OH238100   4.219   5.951  14.391 -0.0621  0.0978 -0.1256
 5562TIP3    H138101   4.146   5.897  14.360 -1.3146  0.8431  1.4207
 5562TIP3    H238102   4.288   5.887  14.413 -0.3960 -0.6414 -1.1812
 5563TIP3   OH238103   3.230   3.129   0.342  0.4712  0.5800 -0.3448
 5563TIP3    H138104   3.180   3.051   0.318  1.0282 -0.8759  2.9503
 5563TIP3    H238105   3.164   3.198   0.351 -0.2830 -0.0205 -1.1693
 5564TIP3   OH238106   3.512   1.004  14.368  0.8579  0.7280  0.1490
 5564TIP3    H138107   3.534   0.974  14.280  1.0688  0.1411  0.3978
 5564TIP3    H238108   3.501   1.098  14.359 -1.3900  0.3786 -0.9692
 5565TIP3   OH238109   4.390   5.985   1.514  0.0433  0.2116 -0.0998
 5565TIP3    H138110   4.449   5.946   1.450  1.2172  2.0293 -0.1618
 5565TIP3    H238111   4.311   6.006   1.465  0.8976  1.4966 -0.9546
 5566TIP3   OH238112   1.599   3.288   2.492 -0.2115  0.4406  0.6454
 5566TIP3    H138113   1.589   3.360   2.555 -1.8008  0.3689  0.4878
 5566TIP3    H238114   1.546   3.217   2.528 -0.4486  0.1098 -0.3508
 5567TIP3   OH238115   5.052   3.211   1.036 -0.0150 -0.8512 -0.1005
 5567TIP3    H138116   5.089   3.174   0.956 -0.4009 -0.8599 -0.2770
 5567TIP3    H238117   4.957   3.200   1.026 -0.0587 -0.9556  0.4084
 5568TIP3   OH238118   0.169   0.956   1.752 -0.6553 -0.5060  0.3205
 5568TIP3    H138119   0.162   0.948   1.848 -1.2325 -0.8113  0.2550
 5568TIP3    H238120   0.212   1.041   1.739  0.0595 -0.7725  0.8650
 5569TIP3   OH238121   0.976   0.465   4.479  0.0904  0.3495  0.3030
 5569TIP3    H138122   1.008   0.458   4.569 -0.3803  4.9558  0.9485
 5569TIP3    H238123   1.055   0.473   4.426  0.3065  0.9439  0.7082
 5570TIP3   OH238124   2.795   0.094  11.599  0.7359 -0.3453  0.3264
 5570TIP3    H138125   2.887   0.115  11.584  1.1558 -3.0401 -1.1178
 5570TIP3    H238126   2.767   0.050  11.519 -1.1733 -1.6270  1.6528
 5571TIP3   OH238127   1.122   5.463   3.329 -0.0605  0.0637  0.9395
 5571TIP3    H138128   1.153   5.541   3.374  0.2076  0.6110 -0.1787
 5571TIP3    H238129   1.048   5.493   3.277 -1.0251 -0.7711  1.7911
 5572TIP3   OH238130   6.388   3.563  15.092  0.2779  0.0993  0.3905
 5572TIP3    H138131   6.405   3.610  15.010 -1.6627 -0.6103 -0.4537
 5572TIP3    H238132   6.435   3.480  15.083 -1.4321 -0.7671 -0.8291
 5573TIP3   OH238133   4.620   2.775   1.052 -0.2780 -0.0766 -0.0049
 5573TIP3    H138134   4.698   2.830   1.059 -0.3637  0.0116  0.2590
 5573TIP3    H238135   4.594   2.759   1.142 -0.3595 -0.4003 -0.0862
 5574TIP3   OH238136   1.071   1.602   0.451  0.4977 -0.1477 -0.1703
 5574TIP3    H138137   1.150   1.558   0.419  1.2424  1.0526  0.0027
 5574TIP3    H238138   1.095   1.694   0.459 -0.4559  0.0053  1.3220
 5575TIP3   OH238139   3.942   2.189  13.169 -0.1570 -0.2308 -0.1704
 5575TIP3    H138140   3.971   2.144  13.248 -4.0051  0.7545  1.9098
 5575TIP3    H238141   3.938   2.281  13.194 -2.1382  0.0021 -1.2328
 5576TIP3   OH238142   5.433   2.236   2.148 -0.3174 -0.3407  0.2184
 5576TIP3    H138143   5.419   2.214   2.240  0.6176 -1.0857  0.1878
 5576TIP3    H238144   5.348   2.219   2.106 -0.4451 -1.0115  0.7467
 5577TIP3   OH238145   2.009   0.473  11.818 -0.5933 -0.2354  0.3005
 5577TIP3    H138146   2.089   0.508  11.857 -0.8263 -0.8143  1.3249
 5577TIP3    H238147   2.038   0.397  11.767 -0.4797 -0.4146  0.6296
 5578TIP3   OH238148   6.698   6.321  12.537  0.4501  0.6082  0.8588
 5578TIP3    H138149   6.650   6.240  12.555 -0.7489  1.3117  0.8712
 5578TIP3    H238150   6.690   6.371  12.618  0.8484  0.9019  0.7146
 5579TIP3   OH238151   1.955   5.241  11.705  0.4433 -0.0445  0.2949
 5579TIP3    H138152   1.860   5.227  11.702  0.6220 -1.2934  0.1620
 5579TIP3    H238153   1.965   5.336  11.714 -0.8048  0.1491 -0.2629
 5580TIP3   OH238154   0.718   1.874  14.547 -0.4040  0.1796  0.2668
 5580TIP3    H138155   0.714   1.940  14.478  0.5485 -1.2762 -1.2160
 5580TIP3    H238156   0.662   1.803  14.516 -2.0121  0.5687  2.1894
 5581TIP3   OH238157   4.093   3.047  15.514  0.2246 -0.3744 -0.4487
 5581TIP3    H138158   4.051   3.021  15.596 -0.2363  0.7449 -0.3250
 5581TIP3    H238159   4.150   3.120  15.539  1.4937 -1.2334 -0.7956
 5582TIP3   OH238160   6.556   5.541  10.654 -0.4798  0.1653  0.1610
 5582TIP3    H138161   6.505   5.589  10.588  1.0848  0.4467 -0.8783
 5582TIP3    H238162   6.509   5.459  10.666 -0.3073 -0.2746 -1.9959
 5583TIP3   OH238163   5.976   3.195   3.611 -0.4109 -0.4334 -0.2976
 5583TIP3    H138164   6.008   3.285   3.617 -0.0038 -0.4822 -1.5621
 5583TIP3    H238165   6.045   3.148   3.565 -1.4287 -0.9774 -1.3068
 5584TIP3   OH238166   2.773   6.546   0.975  0.3847  0.6373  0.0429
 5584TIP3    H138167   2.762   6.467   0.922  0.2395 -0.7132  2.0127
 5584TIP3    H238168   2.761   6.619   0.913 -0.0954 -0.8733 -1.6840
 5585TIP3   OH238169   3.700   4.583  15.744  0.1141  0.3108  0.6206
 5585TIP3    H138170   3.746   4.639  15.807 -1.1433 -0.6019  2.3930
 5585TIP3    H238171   3.607   4.601  15.759 -0.2930 -2.0663  1.0735
 5586TIP3   OH238172   0.668   2.880   3.597  0.0901 -0.0275 -1.1370
 5586TIP3    H138173   0.758   2.898   3.625 -0.6339  0.5320  0.9073
 5586TIP3    H238174   0.637   2.812   3.657 -1.6617  1.5181 -0.2353
 5587TIP3   OH238175   3.731   3.527   0.178  0.2288  0.2520  0.5963
 5587TIP3    H138176   3.760   3.559   0.264  1.0329  1.5867 -0.1471
 5587TIP3    H238177   3.755   3.597   0.118 -3.5929  0.9562 -0.2560
 5588TIP3   OH238178   5.553   5.047   5.036  0.4915  0.3204  0.3524
 5588TIP3    H138179   5.648   5.060   5.036  0.7811 -1.6923  0.1895
 5588TIP3    H238180   5.517   5.135   5.048  2.3998  0.8943  2.2322
 5589TIP3   OH238181   5.420   3.711   4.133 -0.0582  0.2874  0.6937
 5589TIP3    H138182   5.376   3.795   4.127  0.0407  0.4325  1.7956
 5589TIP3    H238183   5.506   3.731   4.170 -0.1209 -0.3171  1.1843
 5590TIP3   OH238184   4.928   1.959   0.661  0.3668 -0.1716 -0.6220
 5590TIP3    H138185   5.024   1.960   0.657  0.3405  0.8469 -1.1542
 5590TIP3    H238186   4.903   1.890   0.599  0.7191  0.2747 -1.2623
 5591TIP3   OH238187   1.933   5.256   4.211 -0.3308  0.5266 -0.5670
 5591TIP3    H138188   1.969   5.345   4.214  1.0552 -0.0468  0.5312
 5591TIP3    H238189   1.880   5.255   4.131  0.0730  2.1759 -0.8907
 5592TIP3   OH238190   2.745   2.326   2.081  0.3767 -0.0810  0.6179
 5592TIP3    H138191   2.772   2.359   1.995 -0.3041 -0.8978  0.0792
 5592TIP3    H238192   2.775   2.235   2.082  0.2319 -0.1255  1.1840
 5593TIP3   OH238193   2.358   6.126   3.888  0.1264  0.1787 -0.0940
 5593TIP3    H138194   2.442   6.101   3.850  0.6328  2.1047 -0.3176
 5593TIP3    H238195   2.380   6.160   3.975 -0.4818  0.1753  0.0659
 5594TIP3   OH238196   2.009   1.727  13.247 -0.2744  0.2802 -0.5340
 5594TIP3    H138197   1.930   1.674  13.247 -0.2568  0.2165 -2.6826
 5594TIP3    H238198   1.985   1.806  13.199  0.8918  0.3599 -0.9981
 5595TIP3   OH238199   4.318   5.551   0.003  0.0923 -0.3313  0.2511
 5595TIP3    H138200   4.290   5.643  -0.001 -0.4588 -0.3617  2.7031
 5595TIP3    H238201   4.410   5.555   0.028 -0.4087 -0.4579  2.2054
 5596TIP3   OH238202   6.764   6.462  15.161 -0.4113 -0.2176  0.3571
 5596TIP3    H138203   6.735   6.547  15.194  1.7347  0.9922 -0.8384
 5596TIP3    H238204   6.766   6.406  15.239 -1.7335  0.8123  1.1598
 5597TIP3   OH238205   5.570   0.422  16.077  0.3200 -0.7208  0.4213
 5597TIP3    H138206   5.546   0.512  16.098 -0.2567 -1.6784  4.2393
 5597TIP3    H238207   5.652   0.407  16.124 -1.2413 -3.1253  2.5375
 5598TIP3   OH238208   2.153   5.438   1.124  0.1130 -0.1993 -0.2692
 5598TIP3    H138209   2.178   5.384   1.199  0.8970 -0.7281 -0.8903
 5598TIP3    H238210   2.234   5.484   1.100  0.1909 -0.9743 -1.5350
 5599TIP3   OH238211   2.415   4.101  14.812 -0.0264 -1.0685 -0.0353
 5599TIP3    H138212   2.504   4.130  14.830 -0.5614  0.3890  0.3500
 5599TIP3    H238213   2.404   4.112  14.718 -0.3956  0.5244  0.1819
 5600TIP3   OH238214   5.158   0.495  12.236 -0.0741 -0.1274 -0.0643
 5600TIP3    H138215   5.078   0.442  12.236 -1.2420  1.6028 -0.0952
 5600TIP3    H238216   5.157   0.541  12.320  1.0070 -0.2686  0.0301
 5601TIP3   OH238217   2.233   6.499   3.102 -0.2765  0.2597 -0.5365
 5601TIP3    H138218   2.276   6.584   3.107 -0.6550  0.4238 -0.0150
 5601TIP3    H238219   2.248   6.469   3.013  0.9912  0.2738 -0.3303
 5602TIP3   OH238220   5.845   0.837   0.549 -0.2907  0.1823 -0.1536
 5602TIP3    H138221   5.760   0.865   0.517 -0.4134  1.2054  1.0191
 5602TIP3    H238222   5.849   0.871   0.639  1.9812  1.4534 -0.7108
 5603TIP3   OH238223   1.642   5.421   5.551  0.0000 -0.3844 -0.5722
 5603TIP3    H138224   1.736   5.420   5.570 -0.2258 -2.6889  0.5408
 5603TIP3    H238225   1.636   5.390   5.460  0.2826 -0.7301 -0.4742
 5604TIP3   OH238226   5.293   0.024   1.496 -0.7459  0.0541 -0.4382
 5604TIP3    H138227   5.303  -0.068   1.474 -1.0230 -0.3388  0.9843
 5604TIP3    H238228   5.354   0.038   1.569 -1.5156  0.7100  0.0941
 5605TIP3   OH238229   0.270   1.350  15.947  0.7720  0.1309 -0.2095
 5605TIP3    H138230   0.318   1.417  15.996  2.6774 -0.5402 -1.1022
 5605TIP3    H238231   0.309   1.353  15.860 -1.6590  0.3801 -1.3099
 5606TIP3   OH238232   0.425   0.701   1.100 -0.4941  0.3802  0.3730
 5606TIP3    H138233   0.510   0.712   1.141  0.8040 -1.1689 -1.8038
 5606TIP3    H238234   0.424   0.765   1.028 -0.2230 -1.1133 -1.0002
 5607TIP3   OH238235   0.143   2.842  11.690  0.0885 -0.0116 -0.2461
 5607TIP3    H138236   0.132   2.793  11.772 -0.4392  0.7747  0.1566
 5607TIP3    H238237   0.120   2.779  11.622  2.1962 -1.2128  0.0911
 5608TIP3   OH238238   3.429   3.932   5.633  0.0769  0.3227  0.0815
 5608TIP3    H138239   3.348   3.939   5.683  0.5318  1.8006  0.6283
 5608TIP3    H238240   3.450   3.839   5.636 -1.2277  0.0276  0.5232
 5609TIP3   OH238241   4.165   1.865   3.569  0.6294 -0.0117  0.1904
 5609TIP3    H138242   4.231   1.799   3.550  0.4121 -0.7694  1.9909
 5609TIP3    H238243   4.089   1.839   3.517  1.5479  0.5820 -1.4972
 5610TIP3   OH238244   1.693   5.277  16.794 -0.0686 -0.1491  0.3568
 5610TIP3    H138245   1.670   5.348  16.854  2.7416 -0.4432  1.8542
 5610TIP3    H238246   1.679   5.314  16.707 -0.7632  1.4922  1.1423
 5611TIP3   OH238247   0.522   3.235  10.934 -0.2373 -0.3507  0.2857
 5611TIP3    H138248   0.530   3.140  10.924 -1.7014 -0.4223 -0.2201
 5611TIP3    H238249   0.553   3.252  11.023 -0.2037 -1.3230  0.4712
 5612TIP3   OH238250   3.569   0.035   0.604  0.0811 -0.1736 -0.2318
 5612TIP3    H138251   3.605  -0.053   0.614  0.8545  0.2165  0.4342
 5612TIP3    H238252   3.534   0.037   0.515  1.5452 -0.6127 -0.8247
 5613TIP3   OH238253   2.633   2.383   5.968 -0.3796 -0.0156  0.8692
 5613TIP3    H138254   2.607   2.344   6.052 -1.3750 -1.5235 -0.1160
 5613TIP3    H238255   2.561   2.362   5.909 -1.5717  4.4262  0.5859
 5614TIP3   OH238256   1.411   1.676  13.821  0.8984  0.0614  0.0196
 5614TIP3    H138257   1.385   1.649  13.909  1.1867  0.2309  0.1604
 5614TIP3    H238258   1.414   1.594  13.771  1.9930 -0.2162  0.5029
 5615TIP3   OH238259   3.243   2.814  14.839 -0.4662  0.4246 -0.5323
 5615TIP3    H138260   3.224   2.741  14.898 -1.5886  0.8184 -0.3786
 5615TIP3    H238261   3.195   2.794  14.759 -1.7059  1.5172 -0.0870
 5616TIP3   OH238262   2.463   4.518   2.566  0.5889  0.0640  0.4441
 5616TIP3    H138263   2.531   4.514   2.634  0.7775 -0.4614  0.2339
 5616TIP3    H238264   2.420   4.602   2.579  0.0744 -0.3863  1.7455
 5617TIP3   OH238265   5.149   6.256  13.657 -0.3268 -0.2749 -0.3694
 5617TIP3    H138266   5.227   6.267  13.602 -1.5514  1.2703 -1.8673
 5617TIP3    H238267   5.170   6.304  13.737 -0.1906  1.1874 -1.2593
 5618TIP3   OH238268   0.741   1.814  11.099 -0.3599  0.1709  0.2112
 5618TIP3    H138269   0.699   1.900  11.107 -0.0303  0.4310 -0.8566
 5618TIP3    H238270   0.760   1.805  11.006 -0.7014 -1.2121  0.2696
 5619TIP3   OH238271   3.086   1.423   4.666 -0.3321 -0.0838 -0.4429
 5619TIP3    H138272   3.093   1.351   4.604  0.1766  1.0988 -1.7948
 5619TIP3    H238273   3.035   1.388   4.739  0.7387 -2.0938 -0.6332
 5620TIP3   OH238274   0.933   1.708  14.461 -0.4654 -0.1750  0.2791
 5620TIP3    H138275   0.951   1.741  14.374 -1.6184  0.2830  0.2116
 5620TIP3    H238276   0.868   1.768  14.498 -1.9343 -1.8185  0.4733
 5621TIP3   OH238277   3.881   5.192   6.142  0.8460 -0.6417  0.8360
 5621TIP3    H138278   3.939   5.117   6.155  0.3855 -1.4214 -1.2885
 5621TIP3    H238279   3.912   5.231   6.060  0.2278  0.6700  1.2287
 5622TIP3   OH238280   3.128   2.055   6.051 -0.2286 -0.9285 -0.2815
 5622TIP3    H138281   3.103   2.103   5.972  1.6451 -1.0221 -0.9571
 5622TIP3    H238282   3.045   2.035   6.094 -1.1872  0.4128 -1.4631
 5623TIP3   OH238283   4.847   5.364   4.595 -0.2847 -0.0686  0.1998
 5623TIP3    H138284   4.922   5.407   4.553 -1.3048  1.3022 -0.2889
 5623TIP3    H238285   4.843   5.278   4.554  1.0021 -0.1391  0.2002
 5624TIP3   OH238286   0.988   6.220   3.256 -0.3509 -0.2251 -0.4991
 5624TIP3    H138287   0.920   6.191   3.194 -0.2143  0.2813 -0.8926
 5624TIP3    H238288   1.067   6.176   3.226 -0.0517  0.8477 -1.3550
 5625TIP3   OH238289   1.300   0.626   2.855  0.0246  0.1867  0.2467
 5625TIP3    H138290   1.363   0.698   2.859 -0.0053  0.1392  1.6580
 5625TIP3    H238291   1.329   0.573   2.780  2.1860 -0.3165  1.4195
 5626TIP3   OH238292   6.313   3.888  14.877  0.0115 -0.6444 -0.3299
 5626TIP3    H138293   6.268   3.932  14.948  0.5529  0.3979 -0.6246
 5626TIP3    H238294   6.406   3.899  14.896  0.2123  1.9907 -2.5714
 5627TIP3   OH238295   3.079   4.163   5.748 -0.1851  0.2972  0.0707
 5627TIP3    H138296   3.055   4.158   5.655  2.0229  0.4677 -0.5338
 5627TIP3    H238297   3.066   4.255   5.771 -2.7858 -0.1502  0.5357
 5628TIP3   OH238298   3.984   4.706   4.172 -0.5499  0.9013 -0.1792
 5628TIP3    H138299   3.954   4.658   4.249 -1.7888  0.8880 -0.6663
 5628TIP3    H238300   4.079   4.689   4.169 -0.7526 -0.3771  0.4364
 5629TIP3   OH238301   0.589   0.984   5.151 -0.2727 -0.2468  0.0545
 5629TIP3    H138302   0.547   1.067   5.131 -1.9634 -0.8600  0.9990
 5629TIP3    H238303   0.618   0.951   5.066  1.6476  1.9285 -0.1937
 5630TIP3   OH238304   2.574   5.990  15.596  0.2366  0.3035 -0.0664
 5630TIP3    H138305   2.662   5.954  15.610  0.1201 -0.0458 -0.2203
 5630TIP3    H238306   2.530   5.978  15.680  0.1616 -0.0205 -0.1510
 5631TIP3   OH238307   1.415   4.637  14.710  0.0372 -0.1925  0.4551
 5631TIP3    H138308   1.506   4.645  14.680 -0.3915 -1.3959 -1.2352
 5631TIP3    H238309   1.422   4.601  14.798  1.1490 -1.8682 -0.2927
 5632TIP3   OH238310   5.694   1.010  16.857  0.7957  0.0132  0.2565
 5632TIP3    H138311   5.687   0.988  16.949  1.7084 -0.3962  0.2306
 5632TIP3    H238312   5.619   0.966  16.816  0.2114  0.4570  0.8365
 5633TIP3   OH238313   3.860   2.237  10.866  0.5655  0.1167  0.2117
 5633TIP3    H138314   3.788   2.220  10.806  0.2016  0.4936  0.5436
 5633TIP3    H238315   3.920   2.293  10.816  0.6390 -0.2064 -0.0655
 5634TIP3   OH238316   5.416   1.051  14.527  0.0945 -0.0978 -0.5703
 5634TIP3    H138317   5.338   1.028  14.577 -0.1269 -0.2838 -0.9998
 5634TIP3    H238318   5.463   1.112  14.583  0.2372 -0.9043  0.2027
 5635TIP3   OH238319   4.948   5.064   2.994 -0.1193 -0.0228  0.0219
 5635TIP3    H138320   4.904   4.992   2.948  1.8766 -1.0852 -0.2944
 5635TIP3    H238321   5.018   5.092   2.935  1.8165 -0.6950  1.9064
 5636TIP3   OH238322   5.044   0.510   2.359  0.2109 -0.5062 -0.0227
 5636TIP3    H138323   5.063   0.584   2.416 -0.1185  0.3082 -0.9611
 5636TIP3    H238324   5.054   0.433   2.416 -0.8778  0.3200  1.3282
 5637TIP3   OH238325   6.472   6.435  12.964 -0.3037 -0.2453 -0.7368
 5637TIP3    H138326   6.506   6.401  13.047 -0.2377 -0.1473 -0.7216
 5637TIP3    H238327   6.388   6.392  12.952  0.1464 -1.0434 -1.1278
 5638TIP3   OH238328   6.649   3.875  15.515  0.3135 -0.2783  0.2908
 5638TIP3    H138329   6.666   3.795  15.466  0.8428  0.8177 -1.3379
 5638TIP3    H238330   6.623   3.844  15.602 -2.1034 -2.2792 -1.0720
 5639TIP3   OH238331   0.326   4.646   6.047 -0.6514  0.1560  0.6598
 5639TIP3    H138332   0.340   4.680   6.135  1.0770 -0.5762  0.6865
 5639TIP3    H238333   0.280   4.717   6.001  1.9907  2.1688  0.9930
 5640TIP3   OH238334   0.375   0.676   3.198  0.3278 -0.0772  0.2951
 5640TIP3    H138335   0.305   0.611   3.205  2.2171 -2.2965 -0.6725
 5640TIP3    H238336   0.351   0.745   3.259 -1.8940 -1.5539  1.1198
 5641TIP3   OH238337   5.470   0.553   3.364 -0.5375  0.3565 -0.1954
 5641TIP3    H138338   5.488   0.512   3.279  2.1372  0.7868  0.1210
 5641TIP3    H238339   5.455   0.480   3.424  2.0999 -0.1353 -0.0898
 5642TIP3   OH238340   3.648   4.876  10.951 -0.3779 -0.2568 -0.5852
 5642TIP3    H138341   3.694   4.795  10.970  0.3462  0.4893  0.8834
 5642TIP3    H238342   3.594   4.892  11.029 -0.2595  0.8458 -0.7191
 5643TIP3   OH238343   1.095   4.495  11.568  0.1330 -0.5782  0.0391
 5643TIP3    H138344   1.188   4.509  11.546 -0.6282  2.0100 -1.8445
 5643TIP3    H238345   1.068   4.421  11.514  1.4691 -2.4581  1.8440
 5644TIP3   OH238346   2.911   1.470  12.725  0.4052  0.7514 -0.5264
 5644TIP3    H138347   2.960   1.452  12.805 -1.5600 -1.4021  0.2399
 5644TIP3    H238348   2.932   1.397  12.667 -1.6022 -0.0523 -0.2888
 5645TIP3   OH238349   3.330   1.039  15.015  0.2920 -0.2417 -0.2115
 5645TIP3    H138350   3.370   0.976  14.955  0.2868  0.0774 -0.5537
 5645TIP3    H238351   3.303   1.112  14.958  3.4694  1.6773  0.6052
 5646TIP3   OH238352   0.150   0.602   1.897  0.0470  0.3516  0.4557
 5646TIP3    H138353   0.232   0.556   1.876 -0.6811 -0.9763  0.5006
 5646TIP3    H238354   0.131   0.576   1.987  0.4647  2.0231  1.0597
 5647TIP3   OH238355   5.582   3.745  14.907 -0.2439  0.3071  0.5683
 5647TIP3    H138356   5.588   3.775  14.817 -0.1225 -1.3389  0.0057
 5647TIP3    H238357   5.658   3.688  14.919 -1.2653 -0.9758  1.1136
 5648TIP3   OH238358   1.084   0.119  12.538 -0.5631  0.1347 -0.2368
 5648TIP3    H138359   1.093   0.204  12.495 -0.8435 -0.3543 -1.2655
 5648TIP3    H238360   1.009   0.078  12.495  0.2055 -1.0612 -0.4417
 5649TIP3   OH238361   1.521   2.803  15.311  0.0484  0.3109 -0.0066
 5649TIP3    H138362   1.607   2.761  15.310  0.4123  0.9962  1.2856
 5649TIP3    H238363   1.526   2.872  15.244  0.0567 -0.5073 -0.8490
 5650TIP3   OH238364   1.966   4.337   0.075 -0.4491  0.4397  0.6467
 5650TIP3    H138365   2.054   4.339   0.111  1.2078  0.5342 -3.2073
 5650TIP3    H238366   1.945   4.429   0.059 -1.2112  0.4051  1.4132
 5651TIP3   OH238367   3.070   4.989  15.116  0.0108 -0.5867  0.3599
 5651TIP3    H138368   3.087   4.990  15.022 -0.5747 -0.3137  0.2517
 5651TIP3    H238369   3.143   4.940  15.154  0.0827 -0.9674 -0.2730
 5652TIP3   OH238370   5.099   0.584  13.608  0.2910 -0.3363 -0.5329
 5652TIP3    H138371   5.162   0.654  13.589 -0.0909  0.1404 -0.0493
 5652TIP3    H238372   5.027   0.601  13.547 -0.4361  0.5373  0.5424
 5653TIP3   OH238373   1.690   4.031   6.430  0.7499 -0.3654 -0.3601
 5653TIP3    H138374   1.734   4.074   6.357 -0.6430  1.2347 -0.2958
 5653TIP3    H238375   1.638   4.101   6.471  0.6469 -1.4836  1.4813
 5654TIP3   OH238376   3.124   1.508  11.379  0.0326 -0.1131  0.3095
 5654TIP3    H138377   3.169   1.427  11.404  1.7157  1.1571  1.4906
 5654TIP3    H238378   3.139   1.517  11.285 -0.2540 -1.2024  0.1483
 5655TIP3   OH238379   2.034   4.958  15.388 -0.1540 -0.0537 -0.0607
 5655TIP3    H138380   2.056   4.956  15.481 -1.4699  0.6754  0.2795
 5655TIP3    H238381   2.115   4.986  15.345  0.2555  0.3216  0.9315
 5656TIP3   OH238382   2.549   6.394   2.599  0.0930  0.1048 -0.2668
 5656TIP3    H138383   2.484   6.433   2.541  1.9092  0.0292 -2.4375
 5656TIP3    H238384   2.606   6.467   2.623 -0.6621  0.1416  1.4925
 5657TIP3   OH238385   5.881   4.505  13.133  0.3606  0.0262 -0.4488
 5657TIP3    H138386   5.903   4.418  13.167  1.2317  0.2322 -0.4849
 5657TIP3    H238387   5.954   4.561  13.158  1.3315  0.0597 -3.1726
 5658TIP3   OH238388   0.538   1.389  15.215 -0.6777 -0.2557 -0.5893
 5658TIP3    H138389   0.497   1.417  15.133 -0.2230  0.7141 -0.5040
 5658TIP3    H238390   0.538   1.468  15.269  1.6608 -0.1026 -0.7506
 5659TIP3   OH238391   1.247   3.403  15.756  0.1106  0.5031  0.5802
 5659TIP3    H138392   1.261   3.318  15.798 -1.6938 -0.1592 -0.1042
 5659TIP3    H238393   1.240   3.465  15.829  1.1379  0.0150  1.0946
 5660TIP3   OH238394   2.746   6.778   5.855  0.1837  0.1878  0.7998
 5660TIP3    H138395   2.752   6.873   5.861  2.4424  0.2460 -1.5177
 5660TIP3    H238396   2.717   6.750   5.942  1.8419  2.8024  2.2372
 5661TIP3   OH238397   4.183   3.835  14.176  0.4029 -0.5290  0.0518
 5661TIP3    H138398   4.188   3.746  14.211  2.3989 -1.3336 -2.1965
 5661TIP3    H238399   4.103   3.836  14.124  0.5086 -1.0712 -0.1229
 5662TIP3   OH238400   3.795   5.689   4.936 -0.2053 -0.4158 -0.2499
 5662TIP3    H138401   3.852   5.613   4.934 -0.3638 -0.6261  2.3034
 5662TIP3    H238402   3.710   5.655   4.964 -0.6730  0.4539 -0.5830
 5663TIP3   OH238403   0.738   0.944  14.211  0.1438 -0.4201 -0.0612
 5663TIP3    H138404   0.809   0.968  14.270 -0.2224  2.4508 -0.7407
 5663TIP3    H238405   0.777   0.947  14.124 -0.3179 -0.7827 -0.2835
 5664TIP3   OH238406   4.000   0.799  12.901  0.2992 -0.1147  0.7419
 5664TIP3    H138407   4.081   0.779  12.853  0.4334  0.7612  0.5981
 5664TIP3    H238408   4.011   0.755  12.985  0.0752 -1.6491 -0.0172
 5665TIP3   OH238409   0.772   2.735  15.247  0.4729 -0.6183  0.1527
 5665TIP3    H138410   0.755   2.820  15.287  0.4611 -0.3395 -0.4481
 5665TIP3    H238411   0.701   2.723  15.184 -0.0799 -1.5139  0.9411
 5666TIP3   OH238412   1.550   2.610   0.542 -0.3442  0.0078  0.0054
 5666TIP3    H138413   1.483   2.644   0.602  1.7485 -0.8457  2.9175
 5666TIP3    H238414   1.543   2.515   0.550  0.6498 -0.0952 -0.3228
 5667TIP3   OH238415   0.256   4.787  11.690  0.3299 -0.2748 -0.0120
 5667TIP3    H138416   0.289   4.777  11.601 -1.0211 -0.3394 -0.5095
 5667TIP3    H238417   0.301   4.718  11.740  0.2120 -0.9848 -0.8802
 5668TIP3   OH238418   1.567   0.071   2.961 -0.1704  0.4161  0.0165
 5668TIP3    H138419   1.514   0.147   2.986 -0.1845  1.0780 -1.8980
 5668TIP3    H238420   1.617   0.102   2.885  2.6402 -0.3368  1.5027
 5669TIP3   OH238421   1.954   0.783   3.610 -0.0336  0.1956  0.3190
 5669TIP3    H138422   2.040   0.780   3.650 -0.1990 -2.0803  0.5401
 5669TIP3    H238423   1.959   0.855   3.548  1.9632  0.2016  0.4694
 5670TIP3   OH238424   3.101   6.610   1.954  0.4166  0.0607  0.0908
 5670TIP3    H138425   3.179   6.642   1.908 -0.9749  2.8329 -0.4533
 5670TIP3    H238426   3.106   6.652   2.040 -1.7075  2.2047 -0.8055
 5671TIP3   OH238427   3.151   3.670  14.502 -0.4749 -0.4189 -0.0533
 5671TIP3    H138428   3.165   3.655  14.595 -0.5830 -0.9565 -0.1256
 5671TIP3    H238429   3.056   3.670  14.491 -0.4737  0.0732 -0.0956
 5672TIP3   OH238430   1.202   1.180  16.008 -0.2024 -0.0870  0.0555
 5672TIP3    H138431   1.138   1.158  15.940  0.0884 -1.0070  0.0706
 5672TIP3    H238432   1.159   1.156  16.090 -0.0587 -0.1915  0.1023
 5673TIP3   OH238433   2.375   5.532  17.175  0.6159 -1.0034  0.5340
 5673TIP3    H138434   2.441   5.526  17.105  1.1683  0.9237  0.8521
 5673TIP3    H238435   2.297   5.567  17.130 -0.5565 -4.2147 -0.0455
 5674TIP3   OH238436   0.910   5.856   1.769 -0.7106 -0.3158 -0.4890
 5674TIP3    H138437   0.917   5.761   1.766 -0.3638 -0.3085  0.1526
 5674TIP3    H238438   0.899   5.882   1.677 -1.7714 -1.0401 -0.5732
 5675TIP3   OH238439   3.412   1.566   2.167  0.2056  0.7326  0.0484
 5675TIP3    H138440   3.382   1.654   2.146  1.0258  0.8460 -0.6781
 5675TIP3    H238441   3.442   1.530   2.083  2.6070  0.8367  0.8320
 5676TIP3   OH238442   0.678   4.826  16.228  0.1128 -0.3304  0.0444
 5676TIP3    H138443   0.649   4.798  16.141  1.3343  1.3504 -0.9305
 5676TIP3    H238444   0.719   4.748  16.266  0.5423 -0.7896 -1.3287
 5677TIP3   OH238445   3.578   0.776   0.597  0.0191  0.1532 -0.9403
 5677TIP3    H138446   3.519   0.759   0.523 -1.0007  1.2275 -0.4101
 5677TIP3    H238447   3.524   0.826   0.658  0.9892 -0.3496  0.3374
 5678TIP3   OH238448   2.988   5.255   5.153  0.3940 -0.2197 -0.1404
 5678TIP3    H138449   3.049   5.328   5.164 -0.7908  0.7137  0.3618
 5678TIP3    H238450   2.942   5.249   5.237 -1.4427  0.2511 -1.0724
 5679TIP3   OH238451   5.881   6.491   1.175  0.7799 -0.3715 -1.1751
 5679TIP3    H138452   5.866   6.407   1.219  3.1626  0.7889  2.0677
 5679TIP3    H238453   5.866   6.557   1.243 -1.4673  1.9434 -3.7584
 5680TIP3   OH238454   1.389   3.968  14.795  0.1667 -0.3741  0.2850
 5680TIP3    H138455   1.390   3.999  14.705 -2.7991 -0.4250  0.1929
 5680TIP3    H238456   1.403   4.047  14.848 -1.0197  0.1435 -0.1554
 5681TIP3   OH238457   2.224   2.845   0.749  0.0530 -0.6063  0.0593
 5681TIP3    H138458   2.164   2.771   0.749 -0.4484 -0.2173 -1.7201
 5681TIP3    H238459   2.310   2.806   0.762 -0.2801 -1.4394 -0.2024
 5682TIP3   OH238460   2.032   6.455  16.740 -0.3219  0.1622 -0.3405
 5682TIP3    H138461   1.972   6.514  16.786 -1.4371 -0.7237 -0.6338
 5682TIP3    H238462   1.989   6.438  16.656  0.8005  0.2725 -0.9535
 5683TIP3   OH238463   1.314   4.647   3.978 -0.2723 -0.1313 -0.4961
 5683TIP3    H138464   1.282   4.628   3.890  0.1046 -0.9479 -0.4614
 5683TIP3    H238465   1.362   4.568   4.004  1.0797  0.7519 -0.2372
 5684TIP3   OH238466   2.822   6.512  10.703 -0.2640 -0.0948 -0.3747
 5684TIP3    H138467   2.747   6.568  10.684  1.2172  1.9337 -0.4029
 5684TIP3    H238468   2.800   6.427  10.664 -4.0309 -0.6114  2.6096
 5685TIP3   OH238469   6.180   0.448   5.630 -0.1508  0.3626 -0.2451
 5685TIP3    H138470   6.098   0.440   5.580 -0.1571 -0.1014 -0.1609
 5685TIP3    H238471   6.159   0.412   5.716 -0.1698  1.2698  0.1300
 5686TIP3   OH238472   1.054   5.685  14.982 -0.7345  0.0680  0.0019
 5686TIP3    H138473   1.149   5.696  14.974 -0.6187 -1.3576 -0.8140
 5686TIP3    H238474   1.042   5.650  15.070 -0.6848  1.9641  0.7851
 5687TIP3   OH238475   3.190   0.390  12.776 -0.0971 -0.0115 -0.2545
 5687TIP3    H138476   3.116   0.390  12.715  0.4027 -2.2674 -0.9003
 5687TIP3    H238477   3.264   0.422  12.725  0.2720 -1.6886 -0.7850
 5688TIP3   OH238478   4.409   4.187  14.531  0.1087  0.2059 -0.2009
 5688TIP3    H138479   4.470   4.157  14.598  0.2199 -2.4738 -1.4305
 5688TIP3    H238480   4.464   4.206  14.455 -0.2784  0.7829 -0.3451
 5689TIP3   OH238481   1.314   3.013   6.858  0.3082 -0.0362 -0.2789
 5689TIP3    H138482   1.273   3.098   6.844  0.9968  0.5552  1.1500
 5689TIP3    H238483   1.252   2.950   6.823  0.0450  1.0890 -1.8642
 5690TIP3   OH238484   5.223   2.583  13.542  0.3140 -0.2976  0.2906
 5690TIP3    H138485   5.267   2.507  13.504  2.0683  0.1581  1.3905
 5690TIP3    H238486   5.148   2.547  13.588  0.8104 -1.2998  0.3125
 5691TIP3   OH238487   1.608   4.523   5.430  0.0214 -0.3392  0.1437
 5691TIP3    H138488   1.661   4.597   5.400  1.2521 -1.2332  0.0600
 5691TIP3    H238489   1.629   4.452   5.369 -3.1110 -0.0409 -1.3588
 5692TIP3   OH238490   2.830   6.088  14.089  0.2394  0.2889  0.0964
 5692TIP3    H138491   2.821   6.173  14.046 -2.9941  0.7264  1.5405
 5692TIP3    H238492   2.797   6.025  14.024  0.0343  0.4048  0.0886
 5693TIP3   OH238493   4.238   2.506   0.281  0.2713  0.6650 -0.0554
 5693TIP3    H138494   4.240   2.568   0.208  1.9867 -0.8049 -1.3091
 5693TIP3    H238495   4.263   2.422   0.242  0.7034 -0.2666  2.1296
 5694TIP3   OH238496   2.412   4.148   1.605 -0.0571  0.7040  0.5927
 5694TIP3    H138497   2.318   4.135   1.612  0.1036 -0.8967  0.0997
 5694TIP3    H238498   2.431   4.225   1.659 -1.1633 -0.9763  3.4613
 5695TIP3   OH238499   6.546   1.401   3.474 -0.1690  0.5786  0.0039
 5695TIP3    H138500   6.631   1.406   3.518  0.1366  0.9988 -0.6280
 5695TIP3    H238501   6.564   1.425   3.383 -1.1377  1.7977  0.1094
 5696TIP3   OH238502   5.096   2.336   4.881  0.1742 -0.0599 -0.5957
 5696TIP3    H138503   5.185   2.321   4.848 -0.0045 -0.6204 -0.8333
 5696TIP3    H238504   5.045   2.263   4.845 -0.0371 -0.6609  0.8975
 5697TIP3   OH238505   3.789   2.814   3.434 -0.1104  0.4200  0.2188
 5697TIP3    H138506   3.732   2.823   3.358 -1.2624 -1.2358  0.8563
 5697TIP3    H238507   3.860   2.876   3.418 -1.1573  1.2341 -1.4380
 5698TIP3   OH238508   5.381   5.293   2.849  0.2076  0.4014  0.0077
 5698TIP3    H138509   5.385   5.292   2.754 -2.0741  0.0044 -0.0986
 5698TIP3    H238510   5.431   5.216   2.877  0.9765  0.5879 -0.8452
 5699TIP3   OH238511   5.758   2.450   4.998  0.1098  0.4422 -0.0671
 5699TIP3    H138512   5.746   2.425   4.907  0.3756  0.4297 -0.1007
 5699TIP3    H238513   5.755   2.367   5.046  2.4382  0.1625 -0.3362
 5700TIP3   OH238514   5.988   4.594  13.688  0.4545  0.4338  0.3366
 5700TIP3    H138515   5.963   4.569  13.599 -1.2392  0.0485  0.9152
 5700TIP3    H238516   5.926   4.662  13.713  1.4955  1.2016  0.8963
 5701TIP3   OH238517   1.635   3.902   1.468 -0.2142  0.5210  0.0743
 5701TIP3    H138518   1.713   3.937   1.424  0.5077 -1.4337 -0.2777
 5701TIP3    H238519   1.599   3.839   1.405 -0.6134 -0.4654  1.2745
 5702TIP3   OH238520   1.115   4.604  15.523 -0.0724  0.4793 -0.2855
 5702TIP3    H138521   1.153   4.629  15.438 -0.3709  1.2702 -0.1920
 5702TIP3    H238522   1.167   4.651  15.587 -0.8910  1.1955 -0.1299
 5703TIP3   OH238523   5.731   0.115  16.751  0.7247 -0.5974 -0.0071
 5703TIP3    H138524   5.798   0.152  16.809  0.2378 -0.7457  0.6493
 5703TIP3    H238525   5.708   0.031  16.790  1.7360 -1.5639 -1.4351
 5704TIP3   OH238526   0.898   5.027  11.304 -0.2692 -0.2731  0.6579
 5704TIP3    H138527   0.832   5.043  11.237 -1.2963 -0.9185  1.5199
 5704TIP3    H238528   0.966   4.976  11.259 -0.1827  0.6515 -0.3036
 5705TIP3   OH238529   2.632   4.827  11.503 -0.1134  0.0262  0.0962
 5705TIP3    H138530   2.609   4.739  11.534 -0.7350  0.4785  0.9260
 5705TIP3    H238531   2.727   4.832  11.512  0.0254 -0.8631 -0.7523
 5706TIP3   OH238532   4.682   5.904  12.743 -0.4356 -0.2449 -0.5003
 5706TIP3    H138533   4.630   5.932  12.667  1.2747 -1.0993 -2.0231
 5706TIP3    H238534   4.720   5.985  12.776 -0.8582  0.0833 -0.7979
 5707TIP3   OH238535   3.757   1.209  13.487  0.4293 -0.0323  0.3664
 5707TIP3    H138536   3.767   1.170  13.574  1.0476 -1.5942 -0.3793
 5707TIP3    H238537   3.666   1.238  13.484  0.4816  0.2791  1.6321
 5708TIP3   OH238538   1.524   4.566   0.959 -0.4870 -0.0163 -0.2052
 5708TIP3    H138539   1.431   4.560   0.982 -0.7072  0.2436 -1.0106
 5708TIP3    H238540   1.524   4.599   0.869  0.3961  0.3918 -0.0616
 5709TIP3   OH238541   5.137   1.564  15.652 -0.3605  0.2301  0.0928
 5709TIP3    H138542   5.135   1.513  15.733  0.1458 -1.0564 -0.6762
 5709TIP3    H238543   5.096   1.647  15.674  1.6149  0.6963  2.2210
 5710TIP3   OH238544   6.149   6.088   0.791  0.1137  0.4617  0.3846
 5710TIP3    H138545   6.238   6.089   0.755 -0.1529  0.6954 -0.2615
 5710TIP3    H238546   6.093   6.116   0.719 -0.6637 -1.1820  0.3066
 5711TIP3   OH238547   3.194   5.171  13.503  0.3749 -1.1142 -0.1586
 5711TIP3    H138548   3.142   5.112  13.558  1.0137 -0.1722  1.4729
 5711TIP3    H238549   3.271   5.191  13.555  0.3049  0.9624 -0.8035
 5712TIP3   OH238550   5.673   5.216   1.422 -0.2235  0.5533 -0.5568
 5712TIP3    H138551   5.609   5.195   1.490  0.8124 -0.4467  0.1097
 5712TIP3    H238552   5.658   5.150   1.354  0.3365  0.1026 -0.2437
 5713TIP3   OH238553   0.367   5.802  10.754 -0.5778 -0.2932  0.1240
 5713TIP3    H138554   0.343   5.880  10.705 -0.9379 -1.1357 -1.0489
 5713TIP3    H238555   0.292   5.785  10.810 -1.1328 -0.6988 -0.7445
 5714TIP3   OH238556   0.766   4.879   3.404 -0.2512  0.3257  0.2298
 5714TIP3    H138557   0.776   4.960   3.354  1.3940  0.3690  0.6064
 5714TIP3    H238558   0.705   4.902   3.474  0.7013  1.4245  0.7121
 5715TIP3   OH238559   6.342   6.143   6.208 -0.0905 -0.2164  0.2938
 5715TIP3    H138560   6.374   6.060   6.243  1.3831  0.8632  1.5616
 5715TIP3    H238561   6.248   6.144   6.230  0.7231  0.2852  4.0096
 5716TIP3   OH238562   0.459   5.611  16.562 -0.5349  0.2968  0.2310
 5716TIP3    H138563   0.436   5.642  16.649 -1.6509 -0.0384  0.0707
 5716TIP3    H238564   0.380   5.626  16.509 -0.7088 -1.7005 -0.1242
 5717TIP3   OH238565   3.456   6.429   1.674 -0.1696  0.2179 -0.5514
 5717TIP3    H138566   3.366   6.398   1.661 -0.3584  0.5715 -0.1177
 5717TIP3    H238567   3.462   6.442   1.769 -0.1639  1.7358 -0.7546
 5718TIP3   OH238568   4.339   6.785   0.845 -0.3982  0.6016  0.2766
 5718TIP3    H138569   4.428   6.803   0.814 -0.8670  1.0840 -0.8193
 5718TIP3    H238570   4.308   6.870   0.878 -0.2168  0.2839  1.2989
 5719TIP3   OH238571   5.691   2.212   6.314 -0.0024  0.2371 -0.0321
 5719TIP3    H138572   5.752   2.140   6.301  0.5941  0.7581 -0.1470
 5719TIP3    H238573   5.608   2.170   6.335  0.3255 -0.4825 -0.1726
 5720TIP3   OH238574   5.628   1.682   2.456 -0.4796 -0.2994 -0.2842
 5720TIP3    H138575   5.565   1.614   2.479  0.0034 -0.2210  1.3736
 5720TIP3    H238576   5.577   1.763   2.453 -0.5794 -0.3276  0.4788
 5721TIP3   OH238577   6.745   2.648  12.226 -0.1833  0.5554  0.2495
 5721TIP3    H138578   6.837   2.640  12.203 -0.5611  1.3833 -1.5836
 5721TIP3    H238579   6.720   2.561  12.255  0.6406 -0.1910 -1.2446
 5722TIP3   OH238580   2.765   5.361  15.747 -0.4075 -0.2163  0.0655
 5722TIP3    H138581   2.682   5.344  15.792 -0.0324 -1.3563  0.3383
 5722TIP3    H238582   2.830   5.364  15.817 -0.3507  1.6534 -0.0499
 5723TIP3   OH238583   4.820   2.929   4.528 -0.4436  0.2923  0.5811
 5723TIP3    H138584   4.857   2.882   4.453 -0.9053  0.1999  0.4075
 5723TIP3    H238585   4.869   2.896   4.603 -0.5663 -0.2640  0.4221
 5724TIP3   OH238586   4.101   3.319  14.478 -0.1282  0.5805 -0.8038
 5724TIP3    H138587   4.164   3.326  14.406 -0.6878  0.1686 -1.3282
 5724TIP3    H238588   4.018   3.347  14.441 -0.1729  1.5572  0.0165
 5725TIP3   OH238589   3.837   2.877  16.385 -0.5179  0.6311  0.0889
 5725TIP3    H138590   3.863   2.936  16.314  0.2502 -0.2341 -0.3482
 5725TIP3    H238591   3.768   2.823  16.347 -1.0002  1.0258  0.3929
 5726TIP3   OH238592   5.590   1.554   4.588 -0.9426  0.6052  0.0663
 5726TIP3    H138593   5.665   1.590   4.540 -1.4140  2.0326  0.3732
 5726TIP3    H238594   5.582   1.464   4.556  1.0874  0.3385  0.2464
 5727TIP3   OH238595   3.417   3.628   1.533 -0.0964  0.4228  0.2468
 5727TIP3    H138596   3.435   3.648   1.625  0.1291  1.3781  0.0029
 5727TIP3    H238597   3.443   3.707   1.486 -1.3310  0.3794 -0.5170
 5728TIP3   OH238598   4.540   0.204   3.977 -0.2936 -0.3223 -0.6102
 5728TIP3    H138599   4.491   0.124   3.958 -0.8006 -0.4330  1.0874
 5728TIP3    H238600   4.572   0.191   4.067  1.2541  0.5521 -1.0283
 5729TIP3   OH238601   2.102   5.186   2.246 -0.8021  0.3909  0.3880
 5729TIP3    H138602   2.195   5.211   2.252 -0.4425 -0.9833  0.7595
 5729TIP3    H238603   2.100   5.117   2.180 -1.4308 -0.1717  0.9850
 5730TIP3   OH238604   5.028   2.433  12.141  0.6086  0.3464  0.4061
 5730TIP3    H138605   5.115   2.396  12.155  0.2435 -0.5635  0.2697
 5730TIP3    H238606   5.043   2.510  12.086  1.2365 -0.3090 -0.3455
 5731TIP3   OH238607   2.211   0.974   1.433  0.1420 -0.0769 -0.5179
 5731TIP3    H138608   2.150   0.931   1.493  0.7354 -3.5162 -2.2988
 5731TIP3    H238609   2.294   0.977   1.481 -0.0028 -0.5159 -0.2392
 5732TIP3   OH238610   1.386   1.837   4.362 -0.6473  0.0791 -0.4529
 5732TIP3    H138611   1.381   1.919   4.314 -1.5268 -0.3027 -1.0478
 5732TIP3    H238612   1.295   1.805   4.363 -0.3132 -0.8884 -0.2630
 5733TIP3   OH238613   1.505   6.031   4.490  0.5590 -0.7698  0.2047
 5733TIP3    H138614   1.576   6.024   4.426  1.7581  2.0348  1.1661
 5733TIP3    H238615   1.444   6.093   4.450 -0.8219 -2.2436 -0.0668
 5734TIP3   OH238616   0.097   4.561  12.392 -0.2446 -0.1219 -0.5691
 5734TIP3    H138617   0.174   4.506  12.397  0.1543  0.2047 -2.6820
 5734TIP3    H238618   0.033   4.510  12.342 -0.1872  0.9369 -1.7649
 5735TIP3   OH238619   4.697   2.205  12.885  0.6101 -0.2265 -0.5168
 5735TIP3    H138620   4.712   2.188  12.978  1.1356 -0.3354 -0.6196
 5735TIP3    H238621   4.706   2.300  12.877 -1.3383  0.0105 -0.1200
 5736TIP3   OH238622   0.035   5.047  16.479  0.1601  0.0170  0.1475
 5736TIP3    H138623  -0.052   5.015  16.505 -0.0319  0.5233  0.1359
 5736TIP3    H238624   0.067   5.093  16.556 -0.2679  1.2300 -0.3849
 5737TIP3   OH238625   5.914   0.988   3.561  0.1983 -0.2847 -0.4026
 5737TIP3    H138626   5.912   0.939   3.479  0.6622  1.6038 -1.5678
 5737TIP3    H238627   5.824   0.983   3.595 -0.1165 -0.6384 -1.2857
 5738TIP3   OH238628   4.579   5.531  15.602  0.0887 -0.7235 -0.0059
 5738TIP3    H138629   4.558   5.442  15.575  0.9176 -0.6409 -0.9677
 5738TIP3    H238630   4.597   5.524  15.696  2.0951 -1.9596 -0.4397
 5739TIP3   OH238631   3.108   0.379  15.566 -0.4311 -0.1218 -0.4898
 5739TIP3    H138632   3.040   0.320  15.599 -1.1667  0.7071 -0.4876
 5739TIP3    H238633   3.126   0.438  15.639  1.1912 -1.0957 -0.0758
 5740TIP3   OH238634   3.573   4.917   0.135 -0.6963 -0.3642 -0.0572
 5740TIP3    H138635   3.668   4.910   0.142 -0.8135 -2.2922 -0.0602
 5740TIP3    H238636   3.555   4.913   0.041 -0.7540  0.5957 -0.0936
 5741TIP3   OH238637   3.985   6.549   0.474 -0.0328 -0.4850  0.4561
 5741TIP3    H138638   3.932   6.606   0.529 -0.3519 -1.2135  0.9101
 5741TIP3    H238639   3.941   6.465   0.477  0.5000 -0.7903 -0.1127
 5742TIP3   OH238640   6.190   3.775   2.803  0.5335 -0.4157  0.0791
 5742TIP3    H138641   6.203   3.786   2.897 -0.5433 -0.0690  0.2000
 5742TIP3    H238642   6.249   3.704   2.778  1.5078  0.1160  0.8383
 5743TIP3   OH238643   1.953   2.930  12.835  0.0515  0.5426  0.4424
 5743TIP3    H138644   1.918   2.906  12.749  0.2562 -0.8029  0.7151
 5743TIP3    H238645   1.939   3.024  12.842 -0.8173  0.5049 -0.6798
 5744TIP3   OH238646   6.462   5.937  14.990  0.3392  0.0621 -0.1718
 5744TIP3    H138647   6.381   5.887  14.984  2.2226 -3.0392 -0.9904
 5744TIP3    H238648   6.476   5.971  14.902 -0.6780  1.6431  0.2623
 5745TIP3   OH238649   3.838   3.861  10.425  0.5258  0.0461 -0.0094
 5745TIP3    H138650   3.893   3.879  10.349  0.9273 -1.7583 -0.1610
 5745TIP3    H238651   3.799   3.776  10.407  0.3434 -0.2318  1.6419
 5746TIP3   OH238652   2.290   4.056   2.390 -0.0453  0.5875 -0.2058
 5746TIP3    H138653   2.245   4.077   2.308 -0.2313 -0.1587 -0.2997
 5746TIP3    H238654   2.326   3.969   2.375 -0.1471  0.4165  0.5358
 5747TIP3   OH238655   2.375   5.811  10.442  0.1168  0.0039 -0.5636
 5747TIP3    H138656   2.466   5.790  10.422  0.5658  1.2731  0.0906
 5747TIP3    H238657   2.324   5.744  10.396  1.3096  0.1080 -2.0753
 5748TIP3   OH238658   1.655   2.942   2.741  0.2029 -0.1541 -0.6629
 5748TIP3    H138659   1.740   2.903   2.759  0.9380  0.8507 -1.8499
 5748TIP3    H238660   1.622   2.895   2.664 -0.4669 -0.7578 -0.0157
 5749TIP3   OH238661   1.039   5.290   5.291  0.4325 -0.1779  0.3787
 5749TIP3    H138662   1.075   5.273   5.379  0.5838  1.8562  0.7439
 5749TIP3    H238663   1.064   5.380   5.273 -0.4511 -0.2737 -1.3704
 5750TIP3   OH238664   2.577   1.142   1.766 -0.3784 -0.4653  0.7605
 5750TIP3    H138665   2.544   1.117   1.680 -0.0238 -2.3303  1.1460
 5750TIP3    H238666   2.501   1.140   1.823 -0.9465  2.3928  0.2114
 5751TIP3   OH238667   3.307   5.651   2.897 -0.5278 -0.1661 -0.0881
 5751TIP3    H138668   3.339   5.740   2.881 -0.0095 -0.1571  0.9705
 5751TIP3    H238669   3.213   5.661   2.909 -0.4084  0.2961  0.4752
 5752TIP3   OH238670   0.091   5.552   0.471 -1.2312  0.0119  0.0374
 5752TIP3    H138671   0.108   5.639   0.436  1.6989 -1.1007 -1.4766
 5752TIP3    H238672   0.117   5.558   0.563 -0.0827  0.5008 -0.3071
 5753TIP3   OH238673   2.811   3.923   5.149  0.3394  0.3384  0.4598
 5753TIP3    H138674   2.786   3.831   5.153  1.3702  0.1096  1.6477
 5753TIP3    H238675   2.732   3.970   5.177 -0.4061 -0.1311 -0.7816
 5754TIP3   OH238676   0.670   3.944   4.391  0.6244  0.2235  0.4837
 5754TIP3    H138677   0.622   3.898   4.460 -0.6006 -0.6032 -0.9104
 5754TIP3    H238678   0.624   4.028   4.383 -0.3025 -0.3782 -0.5245
 5755TIP3   OH238679   3.894   1.869   4.053 -0.4181  0.5634 -0.2989
 5755TIP3    H138680   3.799   1.872   4.040 -0.6225 -0.8918  0.6914
 5755TIP3    H238681   3.924   1.799   3.995 -0.0103  0.6935 -0.2462
 5756TIP3   OH238682   5.549   4.951  15.576  0.4112  0.5622 -0.6355
 5756TIP3    H138683   5.504   4.867  15.570 -0.4878  0.9686  0.4305
 5756TIP3    H238684   5.494   5.011  15.527  0.2405  0.8761 -0.0556
 5757TIP3   OH238685   2.500   0.371  12.199 -0.2521 -0.4463 -0.2276
 5757TIP3    H138686   2.475   0.392  12.110 -1.1880 -0.2415  0.0794
 5757TIP3    H238687   2.574   0.429  12.218 -0.4594 -0.0475 -0.6434
 5758TIP3   OH238688   0.551   5.174  12.761  0.0865  0.1892 -0.1167
 5758TIP3    H138689   0.526   5.237  12.694  1.4943 -0.5861 -1.3911
 5758TIP3    H238690   0.563   5.091  12.714 -2.0039 -1.1316  1.5585
 5759TIP3   OH238691   1.323   2.836  16.535 -0.0901  0.0773 -0.0034
 5759TIP3    H138692   1.261   2.801  16.599 -0.2955 -0.6723 -0.6051
 5759TIP3    H238693   1.275   2.906  16.491 -0.3638 -0.2237 -0.1814
 5760TIP3   OH238694   0.500   3.415  16.619  0.1340 -0.0444  0.3383
 5760TIP3    H138695   0.554   3.364  16.680  1.2576  2.6588  1.6714
 5760TIP3    H238696   0.490   3.500  16.661 -2.9423  0.4137 -1.1710
 5761TIP3   OH238697   1.168   3.118  14.190 -0.0760  0.7600 -0.7388
 5761TIP3    H138698   1.235   3.050  14.200 -0.1569  0.4757 -2.0792
 5761TIP3    H238699   1.128   3.125  14.277  1.6879  0.9335  0.0906
 5762TIP3   OH238700   0.997   5.078   0.636  0.4241 -0.2312 -0.0231
 5762TIP3    H138701   0.973   5.128   0.713 -0.4881 -0.7177  0.0070
 5762TIP3    H238702   1.085   5.110   0.614 -0.7535  2.4884 -0.9350
 5763TIP3   OH238703   5.815   3.448  11.896 -0.2940 -0.0562 -0.4444
 5763TIP3    H138704   5.891   3.498  11.865  0.6219  0.7192  2.8996
 5763TIP3    H238705   5.844   3.357  11.894  0.1138  0.0762 -0.8064
 5764TIP3   OH238706   3.844   6.313   0.908  0.3287  0.5322 -0.1488
 5764TIP3    H138707   3.790   6.270   0.974  1.8180  0.4497  1.0572
 5764TIP3    H238708   3.815   6.404   0.909  0.7184  0.6532  1.0381
 5765TIP3   OH238709   3.633   4.226   5.375  0.1829 -0.4738 -0.6630
 5765TIP3    H138710   3.619   4.144   5.423 -0.7188 -0.2924 -0.5984
 5765TIP3    H238711   3.721   4.253   5.399 -0.7502  0.3460  2.0180
 5766TIP3   OH238712   2.538   6.580  14.684  0.4385  0.4904  0.3656
 5766TIP3    H138713   2.562   6.533  14.763 -0.2531  0.6541  0.6770
 5766TIP3    H238714   2.494   6.515  14.630  1.9703  0.0702 -0.4024
 5767TIP3   OH238715   5.363   4.222  15.493  0.1685 -0.1488 -0.0760
 5767TIP3    H138716   5.351   4.155  15.561  0.6625  1.2997  1.4699
 5767TIP3    H238717   5.292   4.284  15.508  1.0750  0.8890 -0.0236
 5768TIP3   OH238718   5.327   4.293   4.057 -0.3168 -0.2974  0.3426
 5768TIP3    H138719   5.328   4.338   3.973 -1.3010  1.2880  1.1519
 5768TIP3    H238720   5.262   4.223   4.047 -1.9814  1.2006  0.4232
 5769TIP3   OH238721   2.134   3.574  14.721 -0.5008 -0.3426 -0.6901
 5769TIP3    H138722   2.171   3.521  14.792 -3.8293 -2.1585 -0.2014
 5769TIP3    H238723   2.074   3.633  14.766  0.1354  1.0639 -1.6722
 5770TIP3   OH238724   6.482   3.332  17.114 -0.0389 -0.3586  0.2283
 5770TIP3    H138725   6.528   3.384  17.180 -1.5313  1.1533  0.0918
 5770TIP3    H238726   6.391   3.360  17.120 -0.6285 -1.9569 -0.8240
 5771TIP3   OH238727   2.667   6.077  16.251 -0.1224  0.5159 -0.1814
 5771TIP3    H138728   2.709   5.991  16.252  1.3749  1.2244  0.5433
 5771TIP3    H238729   2.712   6.126  16.320 -0.3456  2.1704 -1.1895
 5772TIP3   OH238730   1.683   2.756  14.462 -0.4094  0.7316 -0.2835
 5772TIP3    H138731   1.771   2.782  14.490 -0.7649  2.4504 -0.7173
 5772TIP3    H238732   1.676   2.785  14.371 -1.1010 -0.2397 -0.5546
 5773TIP3   OH238733   6.300   4.543  12.932  0.1557 -0.3375  0.1129
 5773TIP3    H138734   6.338   4.629  12.912 -0.1050  0.1247  1.5935
 5773TIP3    H238735   6.374   4.490  12.961  0.5926 -1.1095 -2.2740
 5774TIP3   OH238736   2.913   0.708   0.666 -0.7118  0.4220 -0.0622
 5774TIP3    H138737   2.997   0.718   0.622 -1.6714 -0.1525 -2.0738
 5774TIP3    H238738   2.935   0.710   0.759  1.2569  2.6019 -0.5046
 5775TIP3   OH238739   3.224   1.342   3.944  0.2642  0.9811 -0.2777
 5775TIP3    H138740   3.155   1.279   3.965 -0.6449  1.7305 -0.9565
 5775TIP3    H238741   3.292   1.325   4.009  0.6903 -1.6904 -1.3333
 5776TIP3   OH238742   5.689   3.379   1.549  0.2810 -0.7074  0.1974
 5776TIP3    H138743   5.773   3.425   1.541  0.1798 -0.5716 -0.0795
 5776TIP3    H238744   5.623   3.444   1.525 -0.0327 -0.3174  1.9798
 5777TIP3   OH238745   5.918   6.321  16.954  0.4149 -0.2894 -0.7579
 5777TIP3    H138746   5.940   6.414  16.947  1.8819 -0.7529 -2.6176
 5777TIP3    H238747   5.871   6.301  16.873  0.4536 -1.2604 -0.5497
 5778TIP3   OH238748   1.798   5.466   4.877  0.1461  0.0813 -0.0210
 5778TIP3    H138749   1.764   5.554   4.864  0.6566  0.0272 -1.9211
 5778TIP3    H238750   1.885   5.479   4.916 -0.6042  0.3419  1.5657
 5779TIP3   OH238751   1.030   5.790  12.631 -0.4770  0.1419 -0.5440
 5779TIP3    H138752   1.079   5.797  12.713 -2.1359  0.9257  0.4097
 5779TIP3    H238753   1.005   5.698  12.625 -0.7565  0.1777  0.0748
 5780TIP3   OH238754   1.946   1.729  12.601 -0.7161 -0.4917  0.4451
 5780TIP3    H138755   1.883   1.752  12.533  0.5504 -0.6179 -0.7994
 5780TIP3    H238756   2.007   1.803  12.603 -0.3649 -0.7934  0.9743
 5781TIP3   OH238757   5.460   6.345   5.636  0.2201 -0.6016  0.1415
 5781TIP3    H138758   5.401   6.275   5.664 -0.2223 -0.6153 -0.8159
 5781TIP3    H238759   5.437   6.362   5.545  1.2794 -0.1729 -0.0597
 5782TIP3   OH238760   5.810   4.140   0.454  0.4866 -0.2096  0.5499
 5782TIP3    H138761   5.899   4.126   0.485  0.4852  1.1367  1.1823
 5782TIP3    H238762   5.820   4.168   0.363  0.6440 -1.1519  0.2718
 5783TIP3   OH238763   0.499   0.818  15.253 -0.1743 -0.0078 -0.6679
 5783TIP3    H138764   0.467   0.811  15.163  0.1113 -0.9033 -0.7028
 5783TIP3    H238765   0.574   0.759  15.257 -0.5179 -0.3876  0.3055
 5784TIP3   OH238766   6.309   4.520   2.782  0.3664 -0.1826  0.1878
 5784TIP3    H138767   6.226   4.523   2.830  0.4457  1.8183  0.2726
 5784TIP3    H238768   6.375   4.504   2.850  0.1185 -1.1444  0.2087
 5785TIP3   OH238769   4.271   2.102   2.230 -0.6435  0.3166 -0.2966
 5785TIP3    H138770   4.221   2.111   2.312  0.8516 -0.2680  0.7139
 5785TIP3    H238771   4.295   2.192   2.207  1.7291  0.2724  1.7428
 5786TIP3   OH238772   0.683   3.844  14.894 -0.6219  0.4191 -0.1825
 5786TIP3    H138773   0.749   3.786  14.932 -2.1687 -0.4121  1.2874
 5786TIP3    H238774   0.732   3.899  14.832  1.1871 -1.1238 -0.1484
 5787TIP3   OH238775   6.212   0.410  10.297 -0.1913  0.7146 -0.0139
 5787TIP3    H138776   6.156   0.415  10.375 -1.3467  0.4740 -0.8076
 5787TIP3    H238777   6.247   0.321  10.299 -0.4250  0.6236  0.0867
 5788TIP3   OH238778   2.796   0.637  12.519  0.1920  0.0637  0.3385
 5788TIP3    H138779   2.739   0.650  12.595 -0.1351 -0.9772  0.2760
 5788TIP3    H238780   2.794   0.720  12.472  1.7085  1.2873  2.3637
 5789TIP3   OH238781   1.735   2.392   5.708  0.0386  0.2152  0.6213
 5789TIP3    H138782   1.640   2.396   5.716  0.0241 -0.5536  0.8232
 5789TIP3    H238783   1.751   2.363   5.619  0.1029  1.0674  0.3446
 5790TIP3   OH238784   5.923   4.580   5.956  0.1101 -0.2552  0.2163
 5790TIP3    H138785   5.953   4.540   5.874  0.5287 -0.4712  0.4755
 5790TIP3    H238786   5.993   4.641   5.980 -0.1858  0.0910  0.2166
 5791TIP3   OH238787   4.749   6.232   5.806  0.2399  0.1999 -0.3630
 5791TIP3    H138788   4.767   6.228   5.711  0.5069  2.8284 -0.4613
 5791TIP3    H238789   4.813   6.295   5.839 -1.5066  1.1851  1.1772
 5792TIP3   OH238790   3.368   0.201  16.747  0.2066 -0.0553 -0.2445
 5792TIP3    H138791   3.426   0.128  16.765  0.3871  0.3707  0.9491
 5792TIP3    H238792   3.405   0.274  16.797 -1.7044  0.0580  1.0476
 5793TIP3   OH238793   2.289   4.052   1.311 -0.0876  0.4565 -0.0701
 5793TIP3    H138794   2.235   3.992   1.362 -0.3300  0.1426 -0.6932
 5793TIP3    H238795   2.337   4.103   1.377 -0.4892  0.1422  0.4703
 5794TIP3   OH238796   6.040   2.693   2.548  0.3206 -0.3759  0.2846
 5794TIP3    H138797   5.964   2.697   2.490  0.9058  1.6902 -0.3790
 5794TIP3    H238798   6.115   2.706   2.490  1.0133  0.1166  1.2849
 5795TIP3   OH238799   6.618   6.071  12.320  0.4280 -0.0806  0.2044
 5795TIP3    H138800   6.703   6.036  12.349  1.2156  1.4383 -0.2330
 5795TIP3    H238801   6.571   6.090  12.401  0.7035 -0.4473  0.4522
 5796TIP3   OH238802   5.661   0.996  12.912  0.0477 -0.2126  0.1728
 5796TIP3    H138803   5.627   0.935  12.846  2.9295  0.8285 -2.3636
 5796TIP3    H238804   5.628   1.081  12.885  0.0127  0.0284  0.9579
 5797TIP3   OH238805   0.414   3.755   3.014  0.0678  0.2535  0.0935
 5797TIP3    H138806   0.481   3.688   3.029 -0.5985 -0.6201 -0.7932
 5797TIP3    H238807   0.403   3.756   2.919 -0.4914  1.0743  0.1659
 5798TIP3   OH238808   0.787   4.577   3.714  0.2410  0.0076  0.1643
 5798TIP3    H138809   0.830   4.527   3.784  1.1222 -0.1097 -0.4472
 5798TIP3    H238810   0.858   4.599   3.653 -0.4105  0.6466 -0.3728
 5799TIP3   OH238811   6.151   5.680   3.752  0.0857  0.1496  0.2002
 5799TIP3    H138812   6.168   5.771   3.727  1.5144 -0.2759 -0.4225
 5799TIP3    H238813   6.204   5.665   3.830  0.5476 -0.4007 -0.2105
 5800TIP3   OH238814   2.602   5.531   0.785 -0.2606 -0.0089  0.0897
 5800TIP3    H138815   2.655   5.551   0.863 -1.5040  2.0833  0.4276
 5800TIP3    H238816   2.619   5.605   0.726  0.4683 -1.4570 -1.5459
 5801TIP3   OH238817   2.238   3.567  13.194  0.1056  0.0866 -0.2818
 5801TIP3    H138818   2.290   3.487  13.205  0.1335 -0.2983 -2.9035
 5801TIP3    H238819   2.302   3.638  13.196  0.2941 -0.0921  0.1715
 5802TIP3   OH238820   1.316   2.314   1.085 -0.4027 -0.5137  0.0689
 5802TIP3    H138821   1.281   2.226   1.070  2.3366 -1.6648  0.0076
 5802TIP3    H238822   1.296   2.361   1.004 -0.0695 -1.7486 -0.7617
 5803TIP3   OH238823   4.628   3.885   2.373  0.4616 -0.4135  0.4163
 5803TIP3    H138824   4.621   3.814   2.436 -0.1215  0.6685  1.5930
 5803TIP3    H238825   4.540   3.893   2.336  0.5731 -0.4339  0.1474
 5804TIP3   OH238826   5.399   4.047   5.401 -0.3764  0.7423 -0.0328
 5804TIP3    H138827   5.360   4.117   5.348 -2.6718 -0.5075 -0.0455
 5804TIP3    H238828   5.329   4.020   5.460  0.9109 -0.6406  0.8850
 5805TIP3   OH238829   2.891   3.599   1.239 -0.1736 -0.3696  0.8507
 5805TIP3    H138830   2.808   3.577   1.281  0.8670 -0.5617  2.8915
 5805TIP3    H238831   2.911   3.687   1.269 -0.4000  0.3026 -0.9102
 5806TIP3   OH238832   2.048   0.223  13.600 -0.4552 -0.3764  0.0782
 5806TIP3    H138833   2.067   0.160  13.670  0.1241  0.5254  0.7407
 5806TIP3    H238834   2.013   0.169  13.529  1.7573 -1.6970 -0.0624
 5807TIP3   OH238835   5.916   2.269  13.324  0.1036 -0.1462 -0.2702
 5807TIP3    H138836   5.962   2.187  13.306  0.8649  0.0818  0.6201
 5807TIP3    H238837   5.889   2.262  13.415  0.4212  0.7083 -0.1011
 5808TIP3   OH238838   1.728   0.707  10.942 -0.4943  0.3060 -0.2821
 5808TIP3    H138839   1.808   0.661  10.968 -2.0547 -1.1494  2.1562
 5808TIP3    H238840   1.681   0.644  10.889 -1.2091  0.2020  0.4671
 5809TIP3   OH238841   2.513   2.104  16.399  0.2171 -0.1385  0.5234
 5809TIP3    H138842   2.564   2.090  16.479  0.4267 -1.7111  0.1355
 5809TIP3    H238843   2.556   2.177  16.355  0.9625 -0.1897  1.1598
 5810TIP3   OH238844   2.020   3.770   0.751 -0.1787 -0.1395  0.1309
 5810TIP3    H138845   2.012   3.737   0.841 -0.7852  0.9493  0.4835
 5810TIP3    H238846   2.067   3.701   0.705 -0.0651 -0.8171  1.2305
 5811TIP3   OH238847   0.074   0.448  11.915 -0.7664 -0.1246 -0.4848
 5811TIP3    H138848   0.007   0.381  11.928 -1.9465  1.5369  2.6072
 5811TIP3    H238849   0.031   0.530  11.940  1.8137  1.2604 -0.4181
 5812TIP3   OH238850   6.020   6.267   0.230 -0.4686  0.2426 -0.2121
 5812TIP3    H138851   6.082   6.313   0.287  1.0623  0.8217 -2.2590
 5812TIP3    H238852   5.937   6.313   0.242  0.1328  1.1336  0.6415
 5813TIP3   OH238853   4.445   5.223  15.597  0.2576 -0.2282  0.2216
 5813TIP3    H138854   4.493   5.267  15.667 -0.0530 -0.8701  0.8405
 5813TIP3    H238855   4.452   5.130  15.617 -0.0662 -0.4060 -0.4524
 5814TIP3   OH238856   3.256   1.610  14.508  0.6321 -0.1634 -0.0268
 5814TIP3    H138857   3.247   1.551  14.433 -0.8311 -0.2137  0.1800
 5814TIP3    H238858   3.287   1.554  14.579  2.8564  0.0377 -0.7764
 5815TIP3   OH238859   6.556   4.481  14.651 -0.3307  0.0645  0.2802
 5815TIP3    H138860   6.494   4.433  14.706 -0.5434  1.5117  1.3163
 5815TIP3    H238861   6.564   4.427  14.572 -1.2799 -1.1976  1.0263
 5816TIP3   OH238862   4.121   1.626   4.583 -0.1615  0.1692 -0.1195
 5816TIP3    H138863   4.137   1.578   4.665  1.5851  0.9098 -0.0140
 5816TIP3    H238864   4.181   1.700   4.586 -0.7634  0.7445 -1.6451
 5817TIP3   OH238865   2.906   0.385   3.789 -0.5297  0.0520 -0.4936
 5817TIP3    H138866   2.946   0.444   3.854  1.8303 -1.7743 -0.2023
 5817TIP3    H238867   2.819   0.368   3.824  0.0297  0.5760  1.2608
 5818TIP3   OH238868   1.205   2.324   2.816  0.1006 -0.1729 -0.5265
 5818TIP3    H138869   1.142   2.253   2.830 -0.7552  0.8013  0.7975
 5818TIP3    H238870   1.193   2.381   2.892  3.3932 -0.5292  0.3327
 5819TIP3   OH238871   5.758   2.694  14.432  0.1179 -0.3858  0.0047
 5819TIP3    H138872   5.688   2.743  14.474  0.8063  0.1946  0.5080
 5819TIP3    H238873   5.726   2.676  14.344 -1.2380 -1.3953  0.6836
 5820TIP3   OH238874   4.736   3.571  11.403  0.3973 -0.3802 -0.2720
 5820TIP3    H138875   4.772   3.547  11.317  0.5215 -1.0230 -0.0462
 5820TIP3    H238876   4.813   3.578  11.460  0.2732 -0.4922 -0.0894
 5821TIP3   OH238877   6.733   4.748  11.680 -0.1675 -0.4917 -0.0184
 5821TIP3    H138878   6.718   4.787  11.594 -0.6362 -2.7670 -0.9781
 5821TIP3    H238879   6.817   4.786  11.708 -1.1684  2.1190 -0.3649
 5822TIP3   OH238880   4.688   0.250  13.236  0.3030  1.0287 -0.2623
 5822TIP3    H138881   4.726   0.181  13.182  0.4865  1.1166 -0.2454
 5822TIP3    H238882   4.615   0.208  13.281  0.5164  0.8034 -0.1261
 5823TIP3   OH238883   5.189   1.462   2.953  0.3135  0.3088 -0.6764
 5823TIP3    H138884   5.161   1.414   3.031  1.3853 -1.3259 -1.2844
 5823TIP3    H238885   5.114   1.518   2.932 -1.1021 -1.3416 -0.1586
 5824TIP3   OH238886   5.697   3.382  11.634 -0.5488  0.3878  0.0532
 5824TIP3    H138887   5.747   3.416  11.560  0.7377  1.1831  1.2375
 5824TIP3    H238888   5.700   3.453  11.698 -2.1816 -0.0393  0.6165
 5825TIP3   OH238889   1.202   6.194  13.340  0.4937 -0.2984 -0.3642
 5825TIP3    H138890   1.257   6.221  13.414 -1.3398 -1.0179  1.2875
 5825TIP3    H238891   1.186   6.101  13.354 -0.3975 -0.2984 -1.3219
 5826TIP3   OH238892   4.961   1.343   4.572  0.0939 -0.5115  0.1089
 5826TIP3    H138893   5.038   1.400   4.580 -0.2833  0.0227 -0.0959
 5826TIP3    H238894   4.998   1.256   4.558  0.6686 -0.2984  0.2632
 5827TIP3   OH238895   0.457   6.380   1.859 -0.1546  0.4028 -0.0444
 5827TIP3    H138896   0.478   6.336   1.776 -0.6808 -1.7500  0.9298
 5827TIP3    H238897   0.520   6.343   1.921 -2.5929 -1.3372  1.4805
 5828TIP3   OH238898   1.792   0.921   1.930  0.1188  0.5662 -0.0031
 5828TIP3    H138899   1.842   0.947   2.008 -0.9620  2.4429  0.0892
 5828TIP3    H238900   1.700   0.927   1.957 -0.2337 -0.4379 -0.9283
 5829TIP3   OH238901   6.214   4.132  15.007 -0.3469  0.0833  0.0188
 5829TIP3    H138902   6.290   4.130  15.065  1.3254 -0.9224 -2.1384
 5829TIP3    H238903   6.230   4.207  14.950 -0.6735 -0.4744 -0.8147
 5830TIP3   OH238904   5.761   0.776  10.883  0.0164 -0.0304  0.5877
 5830TIP3    H138905   5.725   0.830  10.953 -0.2061  1.1209 -0.3934
 5830TIP3    H238906   5.778   0.838  10.812  2.5633 -0.7829  0.4993
 5831TIP3   OH238907   2.691   3.011   0.275  0.1200  0.6019  0.0604
 5831TIP3    H138908   2.734   2.935   0.315 -1.8727 -1.3157 -1.3224
 5831TIP3    H238909   2.737   3.023   0.192  1.7849  2.2347  1.1839
 5832TIP3   OH238910   5.704   0.608  16.891 -0.8026  0.6281  0.6754
 5832TIP3    H138911   5.651   0.666  16.836  1.4173 -0.0374 -2.3138
 5832TIP3    H238912   5.642   0.569  16.952 -3.2138  2.0748 -0.7806
 5833TIP3   OH238913   1.508   1.795   3.049 -0.4175 -0.1535  0.1769
 5833TIP3    H138914   1.484   1.883   3.020  0.9508  0.7479  1.6837
 5833TIP3    H238915   1.509   1.743   2.968 -0.0208  1.5019 -0.9160
 5834TIP3   OH238916   3.867   2.376  11.351  0.8374  0.3321  0.0949
 5834TIP3    H138917   3.953   2.402  11.384 -0.2160  1.0148  2.4803
 5834TIP3    H238918   3.811   2.375  11.429 -0.6800 -2.9183 -0.9357
 5835TIP3   OH238919   0.278   2.178  14.424  0.1834  0.0993 -0.3651
 5835TIP3    H138920   0.338   2.253  14.431 -0.8793  0.8699  0.7163
 5835TIP3    H238921   0.335   2.104  14.403  1.6113  0.7004  1.2190
 5836TIP3   OH238922   3.569   3.242   1.920  0.0677 -0.0881  0.3902
 5836TIP3    H138923   3.536   3.318   1.872  1.9922  0.6405  0.1492
 5836TIP3    H238924   3.550   3.261   2.011 -0.6752  0.0457  0.2097
 5837TIP3   OH238925   2.788   1.528   6.253 -0.4602 -0.0950  0.5046
 5837TIP3    H138926   2.733   1.472   6.307  0.7120 -2.1380 -0.3291
 5837TIP3    H238927   2.767   1.502   6.163  0.0157  0.9127  0.0934
 5838TIP3   OH238928   2.487   3.392  13.225 -0.7951  0.0428  0.3947
 5838TIP3    H138929   2.511   3.391  13.132 -1.3708  0.6530  0.2403
 5838TIP3    H238930   2.571   3.401  13.271 -0.6126  1.0276 -0.1107
 5839TIP3   OH238931   2.858   4.878   5.113 -0.1878 -0.7140 -0.1524
 5839TIP3    H138932   2.932   4.913   5.162 -0.2958 -2.6360  1.4539
 5839TIP3    H238933   2.788   4.943   5.125  0.1591 -0.5950  1.2816
 5840TIP3   OH238934   0.220   1.711  10.784 -0.5596 -0.1338 -0.0782
 5840TIP3    H138935   0.135   1.672  10.764 -0.7020 -0.5572  1.2622
 5840TIP3    H238936   0.275   1.637  10.809 -0.4184  0.3488  1.1107
 5841TIP3   OH238937   5.823   3.151   1.739  0.1709  0.0372 -0.5240
 5841TIP3    H138938   5.918   3.153   1.749  0.1010 -0.0926  0.2595
 5841TIP3    H238939   5.808   3.161   1.645  0.9998 -1.1337 -0.7958
 5842TIP3   OH238940   6.547   2.574  13.098 -0.0392  0.1285 -0.3553
 5842TIP3    H138941   6.613   2.530  13.044  0.6205  1.3671 -0.5763
 5842TIP3    H238942   6.466   2.565  13.049  0.4179  0.6114 -1.2059
 5843TIP3   OH238943   1.543   5.960  16.705 -0.0879  0.1094 -0.4659
 5843TIP3    H138944   1.603   6.026  16.740 -0.1142 -0.5891  0.9163
 5843TIP3    H238945   1.482   6.009  16.651  0.5988  1.0713 -0.3740
 5844TIP3   OH238946   2.020   2.442   4.487 -0.2501 -0.5047  0.2766
 5844TIP3    H138947   2.059   2.497   4.418  0.0466  0.3065  1.0794
 5844TIP3    H238948   1.959   2.385   4.440 -0.9214  0.8375 -0.5291
 5845TIP3   OH238949   6.038   0.154   4.145  0.3793  0.3404 -0.2277
 5845TIP3    H138950   5.995   0.102   4.213  1.2660 -0.8225 -0.5458
 5845TIP3    H238951   5.966   0.185   4.090 -0.0002 -3.2504 -1.9334
 5846TIP3   OH238952   4.021   3.380   1.026  0.4826  0.8393 -0.0973
 5846TIP3    H138953   4.017   3.290   0.992  0.7231  0.1390  1.6372
 5846TIP3    H238954   4.093   3.421   0.978 -0.0261  0.3068 -1.3422
 5847TIP3   OH238955   0.420   4.472   3.471  0.2410  0.1381  0.2496
 5847TIP3    H138956   0.494   4.532   3.471  0.3174  0.0602  1.3297
 5847TIP3    H238957   0.356   4.512   3.412  0.5348  0.9686  0.4948
 5848TIP3   OH238958   2.704   4.129  14.563  0.2020  0.0609  0.1342
 5848TIP3    H138959   2.733   4.155  14.476 -1.1444 -1.0120 -0.6579
 5848TIP3    H238960   2.639   4.195  14.588  0.6165  0.3905  0.3344
 5849TIP3   OH238961   2.255   1.142   6.232  0.0684  0.2964 -0.3452
 5849TIP3    H138962   2.317   1.121   6.162  0.6865  0.8649  0.0203
 5849TIP3    H238963   2.277   1.232   6.256 -0.0924  0.0737  0.6343
 5850TIP3   OH238964   1.295   5.465  13.785  0.1134  0.8043  0.0970
 5850TIP3    H138965   1.343   5.482  13.866 -0.9609  1.3955  0.6162
 5850TIP3    H238966   1.247   5.546  13.768 -0.7855  0.1753 -0.3579
 5851TIP3   OH238967   4.983   0.502  13.861 -0.4681  0.5998 -0.5350
 5851TIP3    H138968   4.937   0.427  13.824  1.8228 -0.6790 -0.9009
 5851TIP3    H238969   4.991   0.563  13.789  1.1242 -0.5072 -1.3192
 5852TIP3   OH238970   2.171   2.028  16.234  0.1192 -0.2930 -0.1698
 5852TIP3    H138971   2.227   2.094  16.194 -2.1526  0.8810 -1.5533
 5852TIP3    H238972   2.132   1.982  16.160  0.8056 -2.4720  0.7741
 5853TIP3   OH238973   0.056   1.779  11.263 -0.3447 -1.0560 -0.1015
 5853TIP3    H138974   0.065   1.870  11.290  1.6172 -1.2680 -0.0220
 5853TIP3    H238975  -0.036   1.771  11.238 -0.6397  0.8220  0.3220
 5854TIP3   OH238976   6.377   5.785  15.866  0.2875 -0.4248  0.4383
 5854TIP3    H138977   6.321   5.742  15.801  1.6983 -2.1831  0.3358
 5854TIP3    H238978   6.431   5.714  15.902  1.6355  1.0285  1.3570
 5855TIP3   OH238979   4.084   5.808  15.691 -0.5711 -0.8855 -0.6268
 5855TIP3    H138980   4.061   5.899  15.670 -2.8270 -1.0917  0.8164
 5855TIP3    H238981   4.180   5.807  15.688 -0.5235  1.4343 -1.1192
 5856TIP3   OH238982   1.673   1.294   0.297  0.4822  0.8766 -0.3360
 5856TIP3    H138983   1.681   1.216   0.242  1.5194  1.6035 -1.2371
 5856TIP3    H238984   1.738   1.282   0.366  1.3435  1.4131 -1.0531
 5857TIP3   OH238985   4.267   3.658  13.270  0.0432  0.2193 -0.6021
 5857TIP3    H138986   4.246   3.583  13.214 -0.3920 -0.9007  1.0346
 5857TIP3    H238987   4.362   3.660  13.273  0.0447 -1.0685  0.3906
 5858TIP3   OH238988   3.999   3.994  16.630 -0.9302  0.1277 -0.4164
 5858TIP3    H138989   4.027   3.997  16.721 -0.6213 -1.2988 -0.4571
 5858TIP3    H238990   4.033   4.075  16.592 -0.1290  0.2199  0.4698
 5859TIP3   OH238991   4.842   5.843   1.145 -0.1749  0.1860 -0.1905
 5859TIP3    H138992   4.828   5.893   1.225 -1.8350  1.2425 -1.1166
 5859TIP3    H238993   4.936   5.824   1.145  0.0654  1.2752  1.3609
 5860TIP3   OH238994   5.754   5.389   2.709  1.3454  0.1731 -0.6866
 5860TIP3    H138995   5.714   5.469   2.743  0.7886 -0.3435 -0.0997
 5860TIP3    H238996   5.700   5.366   2.633  1.6970  0.5207 -1.0458
 5861TIP3   OH238997   2.469   6.263   1.958  0.4456 -0.2703 -0.1405
 5861TIP3    H138998   2.481   6.325   1.886  0.3420  0.2747  0.3058
 5861TIP3    H238999   2.410   6.196   1.922 -1.1635  1.0168  0.0375
 5862TIP3   OH239000   4.263   0.228   3.213 -0.3704 -0.6942  0.2481
 5862TIP3    H139001   4.315   0.150   3.193 -1.2545 -0.9015 -1.3127
 5862TIP3    H239002   4.259   0.230   3.309  2.7588 -0.4788  0.4387
 5863TIP3   OH239003   5.357   3.303   5.036  0.2092  0.2347  0.3760
 5863TIP3    H139004   5.301   3.377   5.015 -0.4783  0.0357  1.4546
 5863TIP3    H239005   5.302   3.226   5.024 -0.0455  0.0874  2.2857
 5864TIP3   OH239006   3.521   4.251   1.787 -0.1052  0.3673 -0.3186
 5864TIP3    H139007   3.435   4.272   1.752 -0.5618  0.5347  0.8715
 5864TIP3    H239008   3.521   4.288   1.875  1.6763  1.5314 -0.7866
 5865TIP3   OH239009   2.200   2.034  11.100  0.3811  0.5330 -0.5410
 5865TIP3    H139010   2.214   2.023  11.006 -0.6579  0.2563 -0.6670
 5865TIP3    H239011   2.106   2.022  11.112  0.7514 -1.2895  0.7818
 5866TIP3   OH239012   2.456   4.588  11.554  0.8407  0.9351 -0.3773
 5866TIP3    H139013   2.432   4.573  11.645  0.8819 -0.8701 -0.6626
 5866TIP3    H239014   2.400   4.661  11.526 -1.3199 -0.4888  0.1992
 5867TIP3   OH239015   2.837   5.850  16.391  0.0492 -0.8548 -0.1303
 5867TIP3    H139016   2.920   5.886  16.360  0.0827 -0.2434  0.6443
 5867TIP3    H239017   2.852   5.833  16.485 -0.7222 -0.6652  0.0298
 5868TIP3   OH239018   2.297   3.006   3.431 -0.1361 -0.3680  0.1727
 5868TIP3    H139019   2.366   2.942   3.418 -1.5423 -1.9363  0.2143
 5868TIP3    H239020   2.278   3.002   3.525  1.0512  1.4882  0.5123
 5869TIP3   OH239021   4.215   4.318  13.307 -0.0836  0.4326 -0.2085
 5869TIP3    H139022   4.232   4.356  13.393  0.6156 -0.4798  0.0661
 5869TIP3    H239023   4.176   4.389  13.256  0.9096  1.4250  0.4021
 5870TIP3   OH239024   4.691   0.070  16.995  0.3056 -0.0701 -0.6097
 5870TIP3    H139025   4.729   0.126  17.062  1.6418  0.6100 -1.9011
 5870TIP3    H239026   4.632   0.011  17.042 -0.1055  1.5468  0.9217
 5871TIP3   OH239027   5.914   1.691   1.967 -0.4260  0.2928  0.2016
 5871TIP3    H139028   5.870   1.717   1.886 -0.8298  3.1945  1.2773
 5871TIP3    H239029   5.843   1.669   2.027 -0.2083  0.1801  0.4166
 5872TIP3   OH239030   5.435   0.780  13.340  0.0776 -0.0736  0.0284
 5872TIP3    H139031   5.397   0.819  13.261 -0.4903  2.1041  1.3098
 5872TIP3    H239032   5.506   0.840  13.364  1.1176 -1.4503  0.4181
 5873TIP3   OH239033   5.067   4.484  16.865  0.2944 -0.6997  0.1448
 5873TIP3    H139034   5.095   4.492  16.956  1.8374 -0.1676 -0.3552
 5873TIP3    H239035   4.973   4.504  16.866 -0.0920 -2.4674  1.8532
 5874TIP3   OH239036   5.286   1.829  13.143  0.2122 -0.3393  0.0708
 5874TIP3    H139037   5.239   1.753  13.178  1.0888  0.5596  3.4574
 5874TIP3    H239038   5.358   1.791  13.093  2.5782 -1.8861  4.4083
 5875TIP3   OH239039   0.403   6.414   6.368 -0.5524 -0.4247 -0.1000
 5875TIP3    H139040   0.347   6.478   6.323  0.8544  1.8914  1.3478
 5875TIP3    H239041   0.354   6.390   6.446  0.3426  1.4289  1.0512
 5876TIP3   OH239042   2.356   0.183   3.824 -0.0898  0.8203  0.8027
 5876TIP3    H139043   2.378   0.101   3.869  1.1596  0.3873 -0.5324
 5876TIP3    H239044   2.388   0.169   3.735  0.2739  2.8298  0.6061
 5877TIP3   OH239045   6.057   1.915  11.764 -0.2221  0.4565  0.2792
 5877TIP3    H139046   5.993   1.978  11.730 -2.2436 -1.5882  0.1634
 5877TIP3    H239047   6.061   1.934  11.857 -0.4990  1.0255  0.1852
 5878TIP3   OH239048   4.993   0.990   3.535 -0.0235 -0.1091 -0.2784
 5878TIP3    H139049   5.062   0.969   3.599  0.1751 -0.9462 -0.7558
 5878TIP3    H239050   4.915   0.945   3.569 -0.3142  0.7295  0.1919
 5879TIP3   OH239051   3.167   4.475  11.933 -0.4626  0.2324  0.0196
 5879TIP3    H139052   3.134   4.561  11.910 -2.1764 -0.5278 -0.4237
 5879TIP3    H239053   3.193   4.483  12.025 -2.9389  0.5504  0.7170
 5880TIP3   OH239054   3.950   4.250   0.182 -0.3033  0.9913  0.0298
 5880TIP3    H139055   3.856   4.232   0.185 -0.0516 -0.2976  0.2706
 5880TIP3    H239056   3.978   4.254   0.273  0.2114 -0.4936 -0.0410
 5881TIP3   OH239057   6.186   6.117   5.270 -0.0849 -0.1802 -0.4285
 5881TIP3    H139058   6.127   6.108   5.195 -0.5903 -1.6247  0.1192
 5881TIP3    H239059   6.253   6.179   5.241 -0.8516  0.0670 -1.7019
 5882TIP3   OH239060   2.631   4.058   0.037  0.0690 -0.2259  0.2770
 5882TIP3    H139061   2.639   4.062   0.133  3.1551  1.2463  0.0192
 5882TIP3    H239062   2.625   4.150   0.010  1.3646 -0.5207 -1.0624
 5883TIP3   OH239063   3.350   6.212  14.159 -0.1074  0.8863 -0.4609
 5883TIP3    H139064   3.298   6.171  14.090  0.4422 -0.8408  0.1169
 5883TIP3    H239065   3.293   6.280  14.195 -0.8805  0.9354 -1.7477
 5884TIP3   OH239066   6.415   1.272  14.882  0.3567  0.1490  0.0633
 5884TIP3    H139067   6.383   1.196  14.833  0.1193 -0.2357  0.8222
 5884TIP3    H239068   6.499   1.293  14.841  0.1942 -0.2178 -0.4658
 5885TIP3   OH239069   4.638   1.741   0.469  0.0491 -0.2430  0.2625
 5885TIP3    H139070   4.726   1.746   0.505  0.0921  2.1207 -0.0650
 5885TIP3    H239071   4.581   1.766   0.541 -0.2416 -0.2262  0.0255
 5886TIP3   OH239072   2.305   6.602  10.775  0.0279 -0.4148 -0.1935
 5886TIP3    H139073   2.388   6.554  10.764  0.6470  0.9139 -1.6020
 5886TIP3    H239074   2.245   6.559  10.714  0.0760 -0.5057 -0.1776
 5887TIP3   OH239075   5.987   6.423   5.561 -0.7427  0.0058 -0.0384
 5887TIP3    H139076   6.024   6.338   5.537 -1.3180  0.1653 -1.6021
 5887TIP3    H239077   5.895   6.417   5.533 -0.6961  1.2606 -0.4893
 5888TIP3   OH239078   4.920   1.976   1.899 -0.2967 -0.4357 -0.1877
 5888TIP3    H139079   4.933   1.890   1.860  1.1969 -0.3886  0.1698
 5888TIP3    H239080   4.910   1.959   1.993  1.7208 -0.1140  0.1193
 5889TIP3   OH239081   4.097   6.558  13.600  0.2070 -0.5858  0.3414
 5889TIP3    H139082   4.032   6.628  13.595  1.9191  1.0317  0.5985
 5889TIP3    H239083   4.138   6.557  13.514  0.2668 -1.2199  0.3707
 5890TIP3   OH239084   0.013   1.298  15.857  0.0678  0.1001 -0.2741
 5890TIP3    H139085   0.006   1.379  15.806  0.5065  0.7130  0.6463
 5890TIP3    H239086   0.094   1.306  15.906 -0.2148 -0.6134  0.3265
 5891TIP3   OH239087   1.043   1.570  11.750  0.1452  0.4407 -0.1376
 5891TIP3    H139088   1.034   1.627  11.827 -1.6406  0.3625 -0.2472
 5891TIP3    H239089   0.984   1.609  11.685  0.6214 -0.2519 -0.9927
 5892TIP3   OH239090   5.754   5.648   1.193  0.5800 -0.3285  0.1895
 5892TIP3    H139091   5.683   5.656   1.130  1.6485  0.0134 -0.9809
 5892TIP3    H239092   5.810   5.579   1.158  0.9344 -0.4796  1.0258
 5893TIP3   OH239093   1.439   2.581  11.747  0.2910  0.0242 -0.0867
 5893TIP3    H139094   1.515   2.603  11.693 -0.0945  0.1296 -0.5855
 5893TIP3    H239095   1.466   2.604  11.836  0.9873 -0.3095 -0.2101
 5894TIP3   OH239096   4.235   0.898  11.835  0.1561 -0.1690  0.2421
 5894TIP3    H139097   4.176   0.865  11.903 -1.1631  2.0688  0.2493
 5894TIP3    H239098   4.321   0.866  11.860 -0.9571 -2.9884  0.5820
 5895TIP3   OH239099   5.991   1.005   3.920 -0.0914  0.5394 -0.3312
 5895TIP3    H139100   6.060   0.953   3.879 -2.0084  0.2366 -3.3526
 5895TIP3    H239101   6.007   1.094   3.890 -0.8163  0.5171 -0.7963
 5896TIP3   OH239102   6.492   0.095  14.945  0.2422  0.3258  0.0399
 5896TIP3    H139103   6.448   0.078  15.029 -1.6987 -0.4160 -1.0817
 5896TIP3    H239104   6.585   0.092  14.965 -0.1807 -1.5723  1.8414
 5897TIP3   OH239105   3.177   2.064   2.453  0.2335  0.0006  0.3972
 5897TIP3    H139106   3.153   2.154   2.473 -1.5343 -0.3951  0.1981
 5897TIP3    H239107   3.217   2.068   2.366  0.3488  0.6228  0.4794
 5898TIP3   OH239108   3.877   5.677  15.833  0.0628  0.3352  0.9471
 5898TIP3    H139109   3.927   5.674  15.752 -0.8443 -1.9588  0.4326
 5898TIP3    H239110   3.827   5.758  15.828 -1.5310 -0.7269 -1.7902
 5899TIP3   OH239111   3.076   4.518   5.145 -0.2906  0.2241 -0.0652
 5899TIP3    H139112   3.111   4.444   5.095 -1.5015  0.4574 -1.2963
 5899TIP3    H239113   3.145   4.584   5.141 -0.1788  0.0649 -1.0709
 5900TIP3   OH239114   0.086   1.137   2.616 -0.1089  0.5591 -0.1880
 5900TIP3    H139115   0.107   1.179   2.700  2.1096  1.8829 -1.3657
 5900TIP3    H239116   0.146   1.062   2.612 -0.1396  0.5616 -0.6508
 5901TIP3   OH239117   4.975   3.498   6.093 -0.2750  0.0263 -0.1153
 5901TIP3    H139118   4.944   3.524   6.007  3.1749  0.2565 -1.3588
 5901TIP3    H239119   5.060   3.542   6.103 -0.8202  0.4394  3.6206
 5902TIP3   OH239120   4.282   2.928   3.227  0.0771 -0.5919  0.0933
 5902TIP3    H139121   4.313   3.017   3.211  2.7799 -1.3639  0.8644
 5902TIP3    H239122   4.186   2.936   3.229  0.2895  2.2946  0.2472
 5903TIP3   OH239123   4.486   5.736   2.522  0.0168  0.0074 -0.2088
 5903TIP3    H139124   4.406   5.784   2.546 -1.6778 -1.9874 -1.6965
 5903TIP3    H239125   4.503   5.679   2.596 -1.4139 -1.3622 -0.8956
 5904TIP3   OH239126   2.095   3.838  12.839  0.5322 -0.4136 -0.5111
 5904TIP3    H139127   2.015   3.891  12.836  0.6377 -0.3033 -1.3560
 5904TIP3    H239128   2.163   3.895  12.804  0.6395 -1.1143 -1.4587
 5905TIP3   OH239129   2.076   6.239   1.458 -0.0750  0.7163  0.3755
 5905TIP3    H139130   2.048   6.207   1.372 -0.7185  0.2801  0.7508
 5905TIP3    H239131   2.025   6.319   1.472 -0.4073  0.4601  0.6199
 5906TIP3   OH239132   6.135   4.152   0.209 -0.6558  0.3566 -0.0090
 5906TIP3    H139133   6.148   4.193   0.123 -1.2948  0.2356 -0.1691
 5906TIP3    H239134   6.113   4.225   0.267 -0.2540  0.4350  0.0437
 5907TIP3   OH239135   5.143   2.814   0.806  0.5266 -0.2423 -0.2451
 5907TIP3    H139136   5.237   2.809   0.785  0.2867 -0.4159 -1.2645
 5907TIP3    H239137   5.129   2.744   0.869  1.0518 -0.3175 -0.2112
 5908TIP3   OH239138   3.747   3.057   0.602 -0.5994 -0.1577  0.1969
 5908TIP3    H139139   3.725   3.006   0.680 -0.8708  1.1981  1.0243
 5908TIP3    H239140   3.728   3.147   0.627 -2.2899  0.1256 -1.9863
 5909TIP3   OH239141   4.178   3.645  15.125 -0.2163  0.3250  0.0991
 5909TIP3    H139142   4.140   3.710  15.184 -1.5811 -0.8539  0.5465
 5909TIP3    H239143   4.170   3.562  15.172  0.1288 -0.3923 -1.0858
 5910TIP3   OH239144   6.207   4.620  12.641 -0.8940 -0.1890 -0.4558
 5910TIP3    H139145   6.207   4.572  12.724  0.7914  0.1914 -0.2240
 5910TIP3    H239146   6.226   4.553  12.575  2.6069  0.2920 -0.0162
 5911TIP3   OH239147   4.705   4.684   2.899  0.4590  0.7490 -0.5334
 5911TIP3    H139148   4.713   4.779   2.895 -1.9166  0.8791 -3.6824
 5911TIP3    H239149   4.774   4.651   2.842  1.6112  0.5202  0.9564
 5912TIP3   OH239150   0.203   2.182   2.651 -0.3922 -0.0638 -0.1232
 5912TIP3    H139151   0.262   2.254   2.628  1.2447 -1.7411 -1.3888
 5912TIP3    H239152   0.245   2.138   2.725 -0.3604 -0.8657 -0.6016
 5913TIP3   OH239153   4.394   0.123   0.436  0.4212  0.8295  0.1244
 5913TIP3    H139154   4.312   0.081   0.460  0.0632  2.0013  1.0000
 5913TIP3    H239155   4.451   0.051   0.407 -0.8368 -0.0012 -0.3119
 5914TIP3   OH239156   4.130   3.490  13.019 -0.6348 -0.2291  0.1448
 5914TIP3    H139157   4.085   3.511  12.938 -1.0127 -0.3108  0.3362
 5914TIP3    H239158   4.128   3.395  13.025  1.3114 -0.3681 -0.8542
 5915TIP3   OH239159   3.476   2.143   2.644  0.1590  0.0316 -0.7804
 5915TIP3    H139160   3.416   2.217   2.636 -1.4450 -1.3207 -1.4590
 5915TIP3    H239161   3.498   2.120   2.554  0.6601 -0.3331 -0.5679
 5916TIP3   OH239162   0.482   0.319  11.806  0.0897 -0.1174  0.0262
 5916TIP3    H139163   0.574   0.303  11.827  0.0612 -0.5952 -0.2058
 5916TIP3    H239164   0.448   0.365  11.883  0.3152 -0.6901  0.4813
 5917TIP3   OH239165   0.338   0.528  11.969  0.1640 -0.1857 -0.7057
 5917TIP3    H139166   0.319   0.621  11.954  1.5711  0.1966 -0.2399
 5917TIP3    H239167   0.256   0.483  11.949 -0.3698  1.1018 -1.4819
 5918TIP3   OH239168   0.760   0.263  13.162  0.1077  0.2852  0.4707
 5918TIP3    H139169   0.699   0.191  13.173  0.3725  0.0262  0.2362
 5918TIP3    H239170   0.728   0.311  13.086  1.1881 -0.8530 -0.7191
 5919TIP3   OH239171   1.398   0.151  15.379 -0.1507 -0.6783 -0.5403
 5919TIP3    H139172   1.462   0.132  15.311  0.6916  1.9337 -0.5495
 5919TIP3    H239173   1.427   0.235  15.416 -3.8912  0.8777 -0.9675
 5920TIP3   OH239174   5.337   5.087   0.352 -0.1639 -0.0678 -0.2362
 5920TIP3    H139175   5.426   5.061   0.375  0.0060  0.6626 -0.0428
 5920TIP3    H239176   5.283   5.055   0.424 -0.1541 -1.1235 -0.6965
 5921TIP3   OH239177   4.706   0.068   2.291  0.0252 -0.3431 -0.2649
 5921TIP3    H139178   4.657   0.150   2.300  0.3476 -0.3527  1.9525
 5921TIP3    H239179   4.797   0.097   2.278 -0.1494 -0.3442 -1.5188
 5922TIP3   OH239180   0.713   4.086  13.554  0.3083  0.4121  0.8708
 5922TIP3    H139181   0.788   4.139  13.526 -0.2807  1.2482  0.8717
 5922TIP3    H239182   0.696   4.028  13.480 -0.1640  1.4524  0.1444
 5923TIP3   OH239183   0.549   2.897   5.435 -0.0712 -0.3125 -0.2566
 5923TIP3    H139184   0.542   2.802   5.425 -1.5467 -0.0672 -1.8403
 5923TIP3    H239185   0.490   2.918   5.508 -0.2577 -0.5451 -0.3399
 5924TIP3   OH239186   4.225   3.334   1.791 -0.0872  0.0848 -0.4016
 5924TIP3    H139187   4.257   3.420   1.820 -1.7870  0.9473 -1.0150
 5924TIP3    H239188   4.151   3.354   1.734  0.1252 -1.7761 -1.3546
 5925TIP3   OH239189   4.101   6.459  14.438 -0.1740 -0.1778 -0.2973
 5925TIP3    H139190   4.057   6.484  14.356  0.0295  1.2873  0.0372
 5925TIP3    H239191   4.040   6.398  14.480 -0.6053 -0.3706 -1.1963
 5926TIP3   OH239192   1.817   6.762   3.545  0.1954 -0.8818  0.1359
 5926TIP3    H139193   1.878   6.716   3.489 -1.0012 -0.4824 -1.5146
 5926TIP3    H239194   1.759   6.809   3.485 -1.9410 -1.5020  1.6441
 5927TIP3   OH239195   2.972   1.886  16.574  0.3817 -0.1180 -0.3412
 5927TIP3    H139196   3.045   1.837  16.535  0.9479 -0.1779  0.7763
 5927TIP3    H239197   2.963   1.849  16.662 -0.5130  0.4088 -0.2066
 5928TIP3   OH239198   5.447   3.401   0.203 -0.0507  0.7936  0.3375
 5928TIP3    H139199   5.407   3.347   0.270 -0.0472  0.7547  0.3081
 5928TIP3    H239200   5.394   3.481   0.202 -0.9004  0.2372 -0.5700
 5929TIP3   OH239201   0.332   2.777   1.887  0.5087 -0.1091  0.0301
 5929TIP3    H139202   0.392   2.734   1.949 -0.1862  0.5829  1.1970
 5929TIP3    H239203   0.262   2.813   1.942 -0.7490 -0.5127 -1.2733
 5930TIP3   OH239204   4.980   0.593  12.857 -0.2965 -0.3402  0.2671
 5930TIP3    H139205   5.017   0.524  12.912 -0.9617 -0.5363  0.4829
 5930TIP3    H239206   4.961   0.551  12.774 -1.2054 -0.5613  0.5771
 5931TIP3   OH239207   2.271   1.819  11.975 -0.1342  0.5843 -0.2270
 5931TIP3    H139208   2.336   1.837  11.908  0.8624  0.2083  0.6336
 5931TIP3    H239209   2.319   1.821  12.057 -1.3154  0.8772  0.4725
 5932TIP3   OH239210   4.651   0.429   1.541  0.3979  0.2698  0.2393
 5932TIP3    H139211   4.639   0.473   1.625 -0.2434 -1.7356  1.2372
 5932TIP3    H239212   4.688   0.344   1.564 -3.8315 -2.1013 -1.0547
 5933TIP3   OH239213   0.139   2.931  12.871  0.1875 -0.3867  0.3660
 5933TIP3    H139214   0.053   2.966  12.846 -0.2969 -1.4545  0.4895
 5933TIP3    H239215   0.119   2.855  12.925  1.2289 -0.1250  1.1239
 5934TIP3   OH239216   0.634   4.307   3.580 -0.2974 -0.4611  0.7004
 5934TIP3    H139217   0.575   4.237   3.549 -1.7446  1.3329 -0.6969
 5934TIP3    H239218   0.589   4.388   3.556  2.1435  0.9567  0.8469
 5935TIP3   OH239219   0.559   3.830  12.495 -0.1676 -0.0259 -0.2240
 5935TIP3    H139220   0.617   3.813  12.421 -0.3074 -0.4418 -0.2390
 5935TIP3    H239221   0.500   3.899  12.465  0.0641  0.1180 -0.3461
 5936TIP3   OH239222   0.261   1.636  15.173 -0.1201  0.7457  0.3227
 5936TIP3    H139223   0.309   1.708  15.132  0.5593  0.4439  0.5729
 5936TIP3    H239224   0.293   1.557  15.128 -1.4203  0.6513 -0.4849
 5937TIP3   OH239225   1.292   1.762   6.639 -0.0452 -0.0651 -0.0364
 5937TIP3    H139226   1.322   1.834   6.585 -1.4370  1.0100  0.5691
 5937TIP3    H239227   1.294   1.686   6.582 -1.0487  0.9594 -1.4793
 5938TIP3   OH239228   4.715   0.486  16.546  0.1170  0.3873  0.0195
 5938TIP3    H139229   4.733   0.562  16.601  2.6266  0.2987 -0.6268
 5938TIP3    H239230   4.765   0.415  16.587 -1.0557 -0.6071 -0.2106
 5939TIP3   OH239231   0.676   3.617   5.577  0.1807  0.4452  0.1818
 5939TIP3    H139232   0.679   3.566   5.658  0.0636  1.0798  0.5955
 5939TIP3    H239233   0.735   3.571   5.517  1.9555  1.1477  1.3372
 5940TIP3   OH239234   6.024   6.740   0.122  0.6042 -0.2578 -0.5479
 5940TIP3    H139235   6.010   6.654   0.083  0.0719  0.1428 -1.2518
 5940TIP3    H239236   5.939   6.783   0.119  0.7460  0.1012  0.2922
 5941TIP3   OH239237   0.196   4.975   4.159  0.4466  0.2913 -0.0225
 5941TIP3    H139238   0.247   5.055   4.168 -0.6384  1.3278 -2.6473
 5941TIP3    H239239   0.110   5.004   4.130  0.8745 -1.9554 -3.8796
 5942TIP3   OH239240   3.113   1.509   2.473  0.4421  0.0275 -0.3275
 5942TIP3    H139241   3.163   1.587   2.498  0.1430 -0.2064  1.0654
 5942TIP3    H239242   3.034   1.513   2.527  0.6501 -1.4876  0.1291
 5943TIP3   OH239243   4.621   6.446  13.791 -0.0759 -0.2107 -0.0236
 5943TIP3    H139244   4.533   6.464  13.823  0.1093  2.1229 -0.7484
 5943TIP3    H239245   4.628   6.497  13.710  1.1343 -2.2156 -1.2040
 5944TIP3   OH239246   1.177   2.538   4.439  0.1939 -0.1311  0.0720
 5944TIP3    H139247   1.086   2.556   4.462  0.2936 -0.4585  0.7438
 5944TIP3    H239248   1.226   2.614   4.470  0.0252  0.5037 -1.1887
 5945TIP3   OH239249   5.156   6.476  15.050 -0.3627 -0.0280 -0.0649
 5945TIP3    H139250   5.181   6.384  15.040 -0.7389 -0.1795  0.3524
 5945TIP3    H239251   5.234   6.519  15.084 -1.3411 -0.9624  3.6499
 5946TIP3   OH239252   1.900   0.415   0.879  0.4929  0.0879 -0.8949
 5946TIP3    H139253   1.816   0.393   0.839  0.0131  1.0015 -0.4069
 5946TIP3    H239254   1.941   0.331   0.897 -0.4418 -0.3740 -0.8843
 5947TIP3   OH239255   1.568   0.811   4.692 -0.5863 -0.7746  0.6523
 5947TIP3    H139256   1.553   0.900   4.723  2.2719  0.0746 -0.2661
 5947TIP3    H239257   1.592   0.762   4.770  0.6387 -0.0537  0.7383
 5948TIP3   OH239258   1.552   1.430   1.168 -0.4956  0.1013  0.0626
 5948TIP3    H139259   1.598   1.348   1.185 -1.7563 -0.4167  1.0417
 5948TIP3    H239260   1.576   1.487   1.241 -1.0599 -0.0344  0.3626
 5949TIP3   OH239261   6.638   3.604   3.597  0.2153 -0.6118 -0.0629
 5949TIP3    H139262   6.615   3.600   3.690 -0.1436 -1.3751 -0.1825
 5949TIP3    H239263   6.695   3.681   3.590  0.1405 -0.4758  0.7648
 5950TIP3   OH239264   5.259   6.003  14.810 -0.0731  0.4208  0.0138
 5950TIP3    H139265   5.206   6.035  14.737 -0.5008  1.5238  0.7918
 5950TIP3    H239266   5.263   5.908  14.797 -1.9683  0.3564 -0.2483
 5951TIP3   OH239267   0.088   0.436   2.132 -0.1442  0.5337  0.1966
 5951TIP3    H139268   0.122   0.347   2.130  0.8285  0.9291 -0.7843
 5951TIP3    H239269   0.150   0.484   2.187  0.7329  1.1759 -1.3250
 5952TIP3   OH239270   3.578   3.711   2.214 -0.3735  0.0329 -0.4855
 5952TIP3    H139271   3.572   3.801   2.181  0.5904  0.3975  0.3180
 5952TIP3    H239272   3.522   3.710   2.292 -0.6915 -0.1763 -0.7114
 5953TIP3   OH239273   4.653   4.648   1.938  0.3173  0.0906  0.2913
 5953TIP3    H139274   4.689   4.703   2.007  0.9237 -0.7077  0.6194
 5953TIP3    H239275   4.616   4.710   1.875 -0.0019  0.8294  1.1977
 5954TIP3   OH239276   3.854   0.176  12.429  0.1804 -0.2200  1.1054
 5954TIP3    H139277   3.844   0.083  12.448  0.0337 -0.3955  0.1881
 5954TIP3    H239278   3.766   0.206  12.407  0.2913  0.0474  1.0175
 5955TIP3   OH239279   0.833   4.398  16.601 -0.1232 -0.2173  0.1537
 5955TIP3    H139280   0.749   4.442  16.617  0.2409  0.0527  1.3380
 5955TIP3    H239281   0.815   4.305  16.620  0.0902 -0.0204  1.3285
 5956TIP3   OH239282   3.434   1.668   5.891 -0.3079 -0.4689 -0.4565
 5956TIP3    H139283   3.361   1.729   5.901  1.9265  2.2335  0.1713
 5956TIP3    H239284   3.417   1.600   5.957 -1.6961  0.6750  0.4007
 5957TIP3   OH239285   1.974   6.017  14.267 -0.1282  0.7971 -0.5648
 5957TIP3    H139286   1.894   6.036  14.219  0.2348 -1.0374 -1.9521
 5957TIP3    H239287   2.044   6.028  14.203  0.4928 -0.1845 -0.0751
 5958TIP3   OH239288   6.502   4.033   2.405 -0.7696  0.0584  0.6365
 5958TIP3    H139289   6.492   3.938   2.408 -0.9938  0.0747  0.4221
 5958TIP3    H239290   6.414   4.067   2.417 -0.6504  0.2459  0.9902
 5959TIP3   OH239291   3.496   2.149   5.497  0.3287  0.0855  0.0181
 5959TIP3    H139292   3.425   2.102   5.541 -0.3102  1.8088  0.8793
 5959TIP3    H239293   3.477   2.241   5.513  1.6401  0.6442 -1.5132
 5960TIP3   OH239294   2.908   5.533   2.745 -0.3098 -0.4471  0.4569
 5960TIP3    H139295   2.844   5.466   2.719  0.6843 -0.3505 -2.4152
 5960TIP3    H239296   2.858   5.615   2.746 -0.9578 -0.8351  1.5256
 5961TIP3   OH239297   6.229   3.566   4.279  0.2685 -0.5184 -0.0604
 5961TIP3    H139298   6.276   3.531   4.355  0.2986 -0.3636 -0.0076
 5961TIP3    H239299   6.176   3.637   4.314 -0.4283 -1.0535 -0.0272
 5962TIP3   OH239300   4.671   0.995  13.456 -0.0713 -0.1896  0.2361
 5962TIP3    H139301   4.706   1.036  13.377 -0.4383  1.0921  0.7136
 5962TIP3    H239302   4.583   1.034  13.465 -0.0080 -0.2858  1.2957
 5963TIP3   OH239303   4.406   6.264   3.979  0.4422  0.2560  0.3979
 5963TIP3    H139304   4.400   6.278   4.074  2.1918 -1.0697  0.7238
 5963TIP3    H239305   4.365   6.341   3.941 -0.7327  0.5708  2.2419
 5964TIP3   OH239306   0.145   0.584  11.628 -0.2413 -0.3009  0.5449
 5964TIP3    H139307   0.154   0.631  11.711 -0.7803 -1.1477  1.0814
 5964TIP3    H239308   0.170   0.494  11.648  0.1166 -0.4029 -0.3293
 5965TIP3   OH239309   4.366   2.823   4.494 -0.3596  0.4800  0.9204
 5965TIP3    H139310   4.444   2.767   4.491 -0.9565 -0.4148  2.0138
 5965TIP3    H239311   4.313   2.794   4.420 -0.3930  0.0028  1.1299
 5966TIP3   OH239312   2.392   2.380   5.794  0.2883 -0.3175  0.0824
 5966TIP3    H139313   2.395   2.446   5.725 -2.0238 -0.2806 -0.0426
 5966TIP3    H239314   2.362   2.428   5.872  0.7247 -0.7825  0.5393
 5967TIP3   OH239315   2.604   3.728  11.766  0.1383 -0.3831  0.0997
 5967TIP3    H139316   2.540   3.797  11.784  0.1718  0.0104 -1.2430
 5967TIP3    H239317   2.648   3.756  11.685 -0.0430 -2.1090 -0.6191
 5968TIP3   OH239318   3.656   4.439  13.568 -0.5186 -0.0312  0.6852
 5968TIP3    H139319   3.751   4.450  13.574 -0.7215  1.5231  1.2747
 5968TIP3    H239320   3.639   4.354  13.607  0.7261 -0.7387 -0.2715
 5969TIP3   OH239321   4.210   3.001  12.692 -0.5692 -0.0573  0.2332
 5969TIP3    H139322   4.241   2.971  12.777  2.5604 -0.2453 -0.9218
 5969TIP3    H239323   4.242   3.091  12.685 -1.0316  0.0489 -0.6678
 5970TIP3   OH239324   3.277   4.236   1.505  0.1201 -0.3558  0.4248
 5970TIP3    H139325   3.214   4.169   1.534  0.7068 -1.2884 -0.4127
 5970TIP3    H239326   3.362   4.198   1.525  0.4623  0.0304 -0.3129
 5971TIP3   OH239327   3.482   6.689   4.634 -0.1290 -0.1300  0.5885
 5971TIP3    H139328   3.433   6.692   4.716  0.9858  1.4712  1.2157
 5971TIP3    H239329   3.415   6.704   4.566 -0.5960  1.7984  1.4160
 5972TIP3   OH239330   6.438   6.280  14.221  0.6146 -0.0811 -0.0446
 5972TIP3    H139331   6.373   6.350  14.211 -1.2329 -1.8505 -0.7843
 5972TIP3    H239332   6.511   6.307  14.165  1.1420  2.5705  1.8053
 5973TIP3   OH239333   5.386   6.551  11.501 -0.0281  0.1448 -0.3370
 5973TIP3    H139334   5.331   6.564  11.423  0.7282  0.2290 -0.8555
 5973TIP3    H239335   5.475   6.566  11.470  0.2854  0.0499  0.5214
 5974TIP3   OH239336   4.097   0.978  13.611 -0.3688  0.6661 -0.3801
 5974TIP3    H139337   4.178   1.028  13.600 -0.1762  0.2301 -1.0321
 5974TIP3    H239338   4.122   0.903  13.664 -0.0736 -0.0751 -1.5382
 5975TIP3   OH239339   2.005   0.676   2.255  0.2825  0.3907  0.0154
 5975TIP3    H139340   2.031   0.588   2.282 -3.1062 -0.3660  1.1517
 5975TIP3    H239341   2.063   0.698   2.183  1.7700 -2.4334  0.3034
 5976TIP3   OH239342   4.228   4.602   4.971 -0.2674  0.0273  0.2419
 5976TIP3    H139343   4.274   4.676   4.931 -0.2219  0.8249  1.7057
 5976TIP3    H239344   4.298   4.543   5.000 -0.1849  0.6884  1.4311
 5977TIP3   OH239345   0.903   5.978  16.172  0.1313  0.4808 -0.1593
 5977TIP3    H139346   0.848   5.997  16.248  0.9192 -0.3202  0.6239
 5977TIP3    H239347   0.855   6.016  16.098  0.6123  3.5028  1.0441
 5978TIP3   OH239348   6.412   2.443  10.509  0.0667 -0.0758  0.6978
 5978TIP3    H139349   6.353   2.375  10.543  0.3465 -0.8756 -0.3936
 5978TIP3    H239350   6.366   2.480  10.435 -0.5094  1.6286  1.8766
 5979TIP3   OH239351   2.308   0.442  13.248  0.4046  0.5108  0.1202
 5979TIP3    H139352   2.281   0.426  13.338 -1.9365 -1.3114 -0.8601
 5979TIP3    H239353   2.256   0.517  13.220  1.5850  1.4729  0.4545
 5980TIP3   OH239354   6.762   3.065  15.256 -0.0614 -0.4572  0.0047
 5980TIP3    H139355   6.837   3.111  15.218 -1.5001 -0.1429 -2.5442
 5980TIP3    H239356   6.800   3.012  15.327  2.4879  0.0038 -0.9502
 5981TIP3   OH239357   3.567   4.909  15.596 -0.6403  0.3482  0.1128
 5981TIP3    H139358   3.580   4.942  15.507 -2.0431  2.0564  0.5147
 5981TIP3    H239359   3.651   4.870  15.620 -0.3270 -0.3397 -2.0438
 5982TIP3   OH239360   3.343   4.842   3.502 -0.5619 -0.1744  0.6006
 5982TIP3    H139361   3.290   4.912   3.540 -0.3547 -0.2655  1.0582
 5982TIP3    H239362   3.368   4.875   3.416 -1.2922 -0.0962  0.4213
 5983TIP3   OH239363   4.936   5.436   4.995  0.2800  0.2867  0.1858
 5983TIP3    H139364   4.994   5.495   4.948  1.0846  1.0935  2.1696
 5983TIP3    H239365   4.888   5.492   5.056 -1.6516 -0.5692 -0.4906
 5984TIP3   OH239366   0.093   1.809   2.173  0.1951 -0.0483 -0.0432
 5984TIP3    H139367   0.079   1.717   2.198  0.3543  0.0250  0.3108
 5984TIP3    H239368   0.014   1.854   2.202 -0.9237 -0.4802 -2.2932
 5985TIP3   OH239369   3.936   0.262   2.251  0.0530  0.7350 -0.1585
 5985TIP3    H139370   3.843   0.285   2.261  0.0436  0.0450  1.4175
 5985TIP3    H239371   3.948   0.185   2.307  1.2300 -0.1057 -1.5355
 5986TIP3   OH239372   3.982   1.682  11.255  0.0876  0.0302  0.9623
 5986TIP3    H139373   3.919   1.650  11.319  0.6079 -1.7296  0.6229
 5986TIP3    H239374   4.049   1.614  11.251  0.6995  0.6888 -0.5482
 5987TIP3   OH239375   0.048   4.792  13.854 -0.3550 -0.3449 -0.2797
 5987TIP3    H139376  -0.036   4.752  13.875 -0.0862 -0.5908  0.3701
 5987TIP3    H239377   0.096   4.792  13.938  0.0155  0.4464 -0.4822
 5988TIP3   OH239378   1.165   1.928   6.824  0.0454  0.0276 -0.3763
 5988TIP3    H139379   1.082   1.931   6.777  0.3375  1.4578 -0.8389
 5988TIP3    H239380   1.212   1.853   6.788 -0.0651  0.6353 -1.8155
 5989TIP3   OH239381   2.584   1.137   3.697 -0.4955  0.0893 -0.1137
 5989TIP3    H139382   2.545   1.057   3.662  0.4860 -0.4505  0.0069
 5989TIP3    H239383   2.678   1.127   3.680 -0.3327  1.0578  0.2079
 5990TIP3   OH239384   0.822   6.220   2.507 -0.1067  0.0879  0.2902
 5990TIP3    H139385   0.888   6.198   2.573 -0.2788 -1.6972 -0.1079
 5990TIP3    H239386   0.857   6.297   2.462 -0.2022  1.5933  2.7463
 5991TIP3   OH239387   1.603   6.511  15.891  0.1487  0.2989  0.3008
 5991TIP3    H139388   1.606   6.526  15.985  0.1958 -1.3257  0.5786
 5991TIP3    H239389   1.533   6.567  15.859 -1.5028 -0.9546  1.6708
 5992TIP3   OH239390   3.981   1.762   3.386 -0.3643  0.4050 -0.5459
 5992TIP3    H139391   3.899   1.801   3.416 -1.0698 -1.5446  0.1259
 5992TIP3    H239392   3.955   1.679   3.346  1.3063 -0.3687 -0.0643
 5993TIP3   OH239393   4.265   5.758  10.733  0.2531 -0.2490  0.3141
 5993TIP3    H139394   4.200   5.802  10.678 -0.6238 -0.5319  1.1059
 5993TIP3    H239395   4.294   5.825  10.795  0.6330 -0.1544  0.0342
 5994TIP3   OH239396   4.271   5.996   3.719 -0.2532 -0.7676 -0.2518
 5994TIP3    H139397   4.206   5.962   3.780 -1.1572 -0.6674 -1.1341
 5994TIP3    H239398   4.352   6.001   3.769 -1.1950  0.2045  1.2087
 5995TIP3   OH239399   3.121   1.612  15.120  0.3039  0.2514  0.5498
 5995TIP3    H139400   3.199   1.664  15.101 -0.7993  1.4502 -0.9406
 5995TIP3    H239401   3.123   1.542  15.055 -2.2214  2.9746 -2.6932
 5996TIP3   OH239402   0.471   0.438   2.614  0.4690  0.2152  0.1737
 5996TIP3    H139403   0.395   0.464   2.666  0.1092  1.6336 -1.0139
 5996TIP3    H239404   0.440   0.367   2.558  0.1589  0.4187  0.0855
 5997TIP3   OH239405   3.652   1.304   0.307 -0.1309 -0.4167 -0.1730
 5997TIP3    H139406   3.635   1.235   0.244 -0.1130 -1.9243  1.4230
 5997TIP3    H239407   3.628   1.385   0.262 -0.0767 -1.4430 -2.0936
 5998TIP3   OH239408   5.776   0.463   0.612 -0.4718  0.0515  0.3894
 5998TIP3    H139409   5.862   0.491   0.579 -1.4104  0.2792 -1.9223
 5998TIP3    H239410   5.774   0.495   0.702  0.7335  2.5994 -0.4267
 5999TIP3   OH239411   2.995   2.946  11.580  0.2261 -0.2461 -0.2601
 5999TIP3    H139412   3.060   3.014  11.563 -0.2322  0.2953  0.1751
 5999TIP3    H239413   2.958   2.968  11.665 -1.6080  0.2886 -1.1858
 6000TIP3   OH239414   1.062   5.097   3.523 -0.0852  0.3027  0.2665
 6000TIP3    H139415   0.992   5.151   3.485  1.1386  1.5917 -0.1959
 6000TIP3    H239416   1.039   5.090   3.616  0.6737  3.2129  0.7434
 6001TIP3   OH239417   3.292   5.582  15.836 -0.0021  0.5941  0.0530
 6001TIP3    H139418   3.256   5.496  15.853 -0.2449  0.5764 -0.5734
 6001TIP3    H239419   3.378   5.565  15.797  0.2987  0.6393  0.6799
 6002TIP3   OH239420   6.117   6.079  14.973  0.5282 -0.2182 -0.4973
 6002TIP3    H139421   6.170   6.000  14.974  1.2005  0.1917  2.5643
 6002TIP3    H239422   6.027   6.048  14.961  0.7959 -1.4345  0.6040
 6003TIP3   OH239423   3.632   3.867  16.098  0.2207  0.0801 -0.1492
 6003TIP3    H139424   3.719   3.905  16.105 -0.4708  1.4716  0.9569
 6003TIP3    H239425   3.606   3.849  16.188 -1.0883  0.7314 -0.3847
 6004TIP3   OH239426   4.462   1.694  16.324  0.0131  0.1896  0.2155
 6004TIP3    H139427   4.407   1.769  16.348  2.3174  1.7979  0.6672
 6004TIP3    H239428   4.403   1.619  16.327 -1.9581  1.7311  1.5113
 6005TIP3   OH239429   2.008   2.725   1.946  0.0450  0.2571 -0.2548
 6005TIP3    H139430   1.932   2.688   1.992 -0.9836  0.0603 -2.0736
 6005TIP3    H239431   2.077   2.659   1.958  0.1469  0.7188  1.9345
 6006TIP3   OH239432   5.741   2.466   0.587  0.8210  0.0420  0.3749
 6006TIP3    H139433   5.654   2.431   0.571 -0.3787  3.0153  0.0643
 6006TIP3    H239434   5.743   2.487   0.681  1.6478 -1.1165  0.6328
 6007TIP3   OH239435   4.628   1.023  12.057  0.7729 -0.3557 -0.1185
 6007TIP3    H139436   4.655   1.082  12.127 -0.1930 -0.8080  0.6498
 6007TIP3    H239437   4.587   1.080  11.992 -0.1598 -0.1643  0.6240
 6008TIP3   OH239438   2.131   0.689   0.494  0.1937 -0.2593 -0.3159
 6008TIP3    H139439   2.197   0.747   0.533 -1.1260  1.3833 -0.4862
 6008TIP3    H239440   2.068   0.675   0.564  1.2545 -2.7586  0.2130
 6009TIP3   OH239441   5.602   1.634  14.927  0.0403 -0.0561 -0.7131
 6009TIP3    H139442   5.613   1.588  14.843 -1.2063 -0.3736 -0.7129
 6009TIP3    H239443   5.519   1.680  14.919  1.6705  2.9770 -1.0343
 6010TIP3   OH239444   3.919   0.010   0.765 -0.5760 -0.2845  0.1500
 6010TIP3    H139445   3.892  -0.037   0.686  2.5619 -1.2794 -0.3819
 6010TIP3    H239446   3.978   0.078   0.733 -1.2067  0.8645  1.4174
 6011TIP3   OH239447   5.927   0.382  13.563  0.0348  0.1520  0.1519
 6011TIP3    H139448   5.840   0.398  13.526 -0.1212 -0.9059  0.0346
 6011TIP3    H239449   5.959   0.469  13.589 -0.7626  0.6331 -0.4470
 6012TIP3   OH239450   0.734   1.567  14.616 -0.0406 -0.0845 -0.5881
 6012TIP3    H139451   0.809   1.585  14.560 -0.5755  0.1819 -1.2188
 6012TIP3    H239452   0.672   1.521  14.559  0.1236 -1.3747  0.2351
 6013TIP3   OH239453   0.028   2.044  10.785  0.5076  0.7565 -0.3158
 6013TIP3    H139454   0.103   2.017  10.733  0.6760 -0.6701  0.6314
 6013TIP3    H239455  -0.044   1.989  10.755  0.8322 -0.7743  1.5719
 6014TIP3   OH239456   1.044   1.053   1.346 -0.1224  0.4380  0.0524
 6014TIP3    H139457   1.120   1.105   1.320 -0.7171  1.1297 -0.3291
 6014TIP3    H239458   0.980   1.068   1.277 -0.9721  0.6706  0.8802
 6015TIP3   OH239459   3.228   0.042   6.496 -0.0438 -0.1698  0.3005
 6015TIP3    H139460   3.199   0.015   6.409 -0.5216  1.1896  0.0206
 6015TIP3    H239461   3.183  -0.017   6.556  0.8194 -1.5614 -0.4073
 6016TIP3   OH239462   3.161   4.304   4.637  0.5767 -0.3106 -0.1145
 6016TIP3    H139463   3.121   4.224   4.669 -0.0733  0.9933  2.4320
 6016TIP3    H239464   3.255   4.286   4.638  0.3927 -1.2758 -0.2235
 6017TIP3   OH239465   3.905   6.684  15.500 -0.2082  0.6141  0.2645
 6017TIP3    H139466   3.886   6.590  15.490 -1.8166  1.1013 -1.5888
 6017TIP3    H239467   3.954   6.707  15.421  0.4054  1.2752  0.8378
 6018TIP3   OH239468   6.588   1.226  16.229  0.1323  0.0107  0.3243
 6018TIP3    H139469   6.643   1.149  16.244  1.7021  1.2128  0.9610
 6018TIP3    H239470   6.552   1.213  16.141  2.4499 -0.2546 -0.6470
 6019TIP3   OH239471   4.275   5.596   0.491  0.2037  0.0267  0.0015
 6019TIP3    H139472   4.262   5.669   0.430  1.4246  0.3992  0.1782
 6019TIP3    H239473   4.263   5.517   0.437 -2.9900  0.3010  0.1998
 6020TIP3   OH239474   2.754   4.543  13.100  0.1120 -0.3704 -0.1095
 6020TIP3    H139475   2.824   4.570  13.160  0.3407 -0.2422 -0.4309
 6020TIP3    H239476   2.798   4.487  13.036  0.1219  0.5729 -0.9318
 6021TIP3   OH239477   5.421   3.796  15.305 -0.4181 -0.3901  0.5970
 6021TIP3    H139478   5.495   3.736  15.298 -0.4107 -0.1927 -1.2512
 6021TIP3    H239479   5.436   3.843  15.388  1.6076 -0.2545  0.1773
 6022TIP3   OH239480   4.578   1.124   3.755  0.0881  0.3454  0.6317
 6022TIP3    H139481   4.589   1.133   3.850 -2.5271 -0.3653  1.0319
 6022TIP3    H239482   4.502   1.178   3.735  0.1494 -0.1438 -0.9422
 6023TIP3   OH239483   0.595   2.706  16.578  0.0038 -0.6144 -0.3495
 6023TIP3    H139484   0.663   2.640  16.587 -0.2374 -0.9627 -1.0308
 6023TIP3    H239485   0.524   2.661  16.531  0.6080  0.6655 -2.5452
 6024TIP3   OH239486   3.817   3.866   4.072  1.0166 -0.3422  0.0168
 6024TIP3    H139487   3.843   3.784   4.113  2.3874  0.2721  0.4185
 6024TIP3    H239488   3.867   3.870   3.991  1.5702  0.4489  0.3797
 6025TIP3   OH239489   5.779   4.533   4.585 -0.0520 -0.5326  0.0557
 6025TIP3    H139490   5.762   4.559   4.676 -0.8538 -0.6286 -0.0610
 6025TIP3    H239491   5.694   4.537   4.543  0.2844 -0.6961 -0.6451
 6026TIP3   OH239492   1.926   3.818  17.103 -0.0855  0.8143 -0.4372
 6026TIP3    H139493   1.890   3.881  17.040 -2.5490  0.9946  1.0792
 6026TIP3    H239494   1.940   3.869  17.183 -0.5624 -0.1945  0.2993
 6027TIP3   OH239495   4.701   5.002   0.129  0.2621 -0.2953 -0.2268
 6027TIP3    H139496   4.739   4.915   0.123 -0.8397 -0.8372  0.4348
 6027TIP3    H239497   4.678   5.024   0.038  2.3206  0.1338 -0.6554
 6028TIP3   OH239498   5.322   0.523   1.209  0.1214  0.4184 -0.0592
 6028TIP3    H139499   5.316   0.493   1.299 -0.4380  0.4813 -0.0761
 6028TIP3    H239500   5.231   0.533   1.181  0.3023  1.2550 -0.3411
 6029TIP3   OH239501   3.947   0.363  16.535  0.5818 -0.0914  0.0194
 6029TIP3    H139502   3.907   0.325  16.613  1.6938 -0.2596  0.5167
 6029TIP3    H239503   4.042   0.354  16.550  0.8682  2.4685 -0.0398
 6030TIP3   OH239504   0.827   2.143   1.373 -0.0573  0.5329 -0.0133
 6030TIP3    H139505   0.872   2.188   1.302 -2.4803 -0.2279 -2.1066
 6030TIP3    H239506   0.770   2.209   1.411 -0.6440  0.2821 -0.4537
 6031TIP3   OH239507   5.941   3.742  16.903 -0.7878 -0.3431 -0.1184
 6031TIP3    H139508   5.909   3.724  16.814 -2.1239  1.8689 -0.1272
 6031TIP3    H239509   6.016   3.800  16.889 -0.1523 -1.0997  0.1451
 6032TIP3   OH239510   1.021   3.513  15.223 -0.1370 -0.5000 -0.1416
 6032TIP3    H139511   0.958   3.551  15.285 -0.5972 -1.1213 -0.2185
 6032TIP3    H239512   1.093   3.576  15.220  1.0124 -1.5472  2.8426
 6033TIP3   OH239513   5.630   0.831   5.448 -0.2066  0.0835 -0.2823
 6033TIP3    H139514   5.558   0.795   5.500  0.7893 -1.2068  0.2374
 6033TIP3    H239515   5.589   0.896   5.392 -1.5382  0.4489  1.0823
 6034TIP3   OH239516   6.155   4.659   3.433  0.2632  0.1773  0.5237
 6034TIP3    H139517   6.131   4.729   3.494  0.3879 -0.2238  1.0331
 6034TIP3    H239518   6.090   4.590   3.448 -0.7162  0.7439 -0.9685
 6035TIP3   OH239519   3.462   6.243   4.336  0.4955 -0.4529 -0.7853
 6035TIP3    H139520   3.515   6.195   4.400 -0.7480  0.0548  0.6534
 6035TIP3    H239521   3.524   6.301   4.292  1.3368 -0.6800  0.0857
 6036TIP3   OH239522   1.410   5.582   2.133 -0.4034 -0.0943 -0.1032
 6036TIP3    H139523   1.336   5.615   2.083 -0.7804  1.3580  1.3928
 6036TIP3    H239524   1.373   5.517   2.192 -0.4097  0.2616  0.2868
 6037TIP3   OH239525   2.680   5.933   0.948  0.2426  0.3370 -0.4486
 6037TIP3    H139526   2.683   5.996   1.020  0.4565 -0.6246  0.3888
 6037TIP3    H239527   2.682   5.987   0.869  1.2343  1.3432  0.2553
 6038TIP3   OH239528   3.091   2.249   2.925  0.2487  0.1222 -0.7869
 6038TIP3    H139529   3.173   2.269   2.970 -0.8425 -0.5926  1.5828
 6038TIP3    H239530   3.082   2.319   2.860  2.1743  0.8255 -0.3241
 6039TIP3   OH239531   1.774   0.252  15.064 -0.6464 -0.4099  0.1320
 6039TIP3    H139532   1.739   0.288  14.983  2.2197  0.7204 -0.6660
 6039TIP3    H239533   1.810   0.328  15.111 -1.1426 -1.2199  1.8843
 6040TIP3   OH239534   3.443   4.813  14.736 -0.6548  0.3381 -0.0606
 6040TIP3    H139535   3.358   4.788  14.773 -0.2316 -0.7862  0.1764
 6040TIP3    H239536   3.467   4.739  14.680  1.3004 -0.4824  1.7892
 6041TIP3   OH239537   5.449   0.622  15.691 -0.5902  0.3577  0.3099
 6041TIP3    H139538   5.495   0.545  15.724  1.0591  1.1173 -0.1402
 6041TIP3    H239539   5.362   0.590  15.667  0.1675 -1.4236 -0.1538
 6042TIP3   OH239540   2.885   2.857   0.928  0.0488  0.0318 -0.1248
 6042TIP3    H139541   2.973   2.845   0.891  0.1402  1.6622 -0.5060
 6042TIP3    H239542   2.884   2.949   0.955 -0.2782 -0.9193  3.2493
 6043TIP3   OH239543   1.084   3.876  15.836 -0.6655  0.2521  0.1368
 6043TIP3    H139544   1.008   3.926  15.866 -1.3717 -0.6034 -0.2104
 6043TIP3    H239545   1.155   3.940  15.834 -0.9460  0.6781  2.1904
 6044TIP3   OH239546   1.655   3.164   0.754 -0.0228 -0.5043 -0.2738
 6044TIP3    H139547   1.716   3.218   0.705  0.5675 -1.0204 -0.1097
 6044TIP3    H239548   1.570   3.182   0.714  0.2152  0.3140 -0.4111
 6045TIP3   OH239549   1.708   2.491  14.374  0.4189 -0.2631  0.8484
 6045TIP3    H139550   1.766   2.477  14.300  0.2456 -1.0757  0.8607
 6045TIP3    H239551   1.730   2.578  14.406  1.5939 -0.5409  0.8246
 6046TIP3   OH239552   5.514   2.536  14.326 -0.2946  0.1882 -0.1559
 6046TIP3    H139553   5.591   2.551  14.272 -1.7095  0.3978 -2.1651
 6046TIP3    H239554   5.440   2.567  14.273 -1.9453 -1.6750  0.9474
 6047TIP3   OH239555   5.532   3.542   2.742  0.3963 -0.2084  0.7770
 6047TIP3    H139556   5.533   3.578   2.653 -0.2748  2.4968  1.7928
 6047TIP3    H239557   5.439   3.523   2.758  0.2978  0.7796  1.4280
 6048TIP3   OH239558   1.144   0.490  16.586 -0.0870  0.3667  0.1223
 6048TIP3    H139559   1.169   0.580  16.607  0.6707 -0.0229  0.9167
 6048TIP3    H239560   1.093   0.460  16.661  1.1975 -0.4640  0.6836
 6049TIP3   OH239561   4.227   5.745   4.524  0.2468  0.0461  0.5994
 6049TIP3    H139562   4.238   5.758   4.430 -2.6394 -0.5999  0.1217
 6049TIP3    H239563   4.282   5.669   4.544  0.2017 -0.3430 -0.7168
 6050TIP3   OH239564   1.131   5.862  14.596  0.3306  0.0796 -0.2325
 6050TIP3    H139565   1.174   5.776  14.589  1.1605  0.5731 -1.4226
 6050TIP3    H239566   1.038   5.843  14.584  0.5277 -0.6289 -0.6972
 6051TIP3   OH239567   1.346   1.826   1.107  0.5531 -0.7853  0.0345
 6051TIP3    H139568   1.419   1.835   1.168  0.1873 -1.1510  0.5208
 6051TIP3    H239569   1.316   1.736   1.117 -1.3582 -0.0332  1.4157
 6052TIP3   OH239570   0.356   6.747   0.739  0.4592  0.5033  0.1671
 6052TIP3    H139571   0.277   6.776   0.694  1.5538  0.1175 -2.0248
 6052TIP3    H239572   0.328   6.669   0.788 -0.6913  0.8387  0.0649
 6053TIP3   OH239573   1.833   0.834   3.322 -0.1910 -0.1356 -0.1337
 6053TIP3    H139574   1.880   0.751   3.320  0.3516  0.1855 -1.2795
 6053TIP3    H239575   1.894   0.895   3.363  0.6844  0.4232 -2.1590
 6054TIP3   OH239576   2.997   2.720  16.353 -0.0770 -0.8774  0.4423
 6054TIP3    H139577   2.916   2.687  16.314 -0.9644 -0.6085  2.0306
 6054TIP3    H239578   3.047   2.641  16.374  0.5312 -1.0263 -1.4187
 6055TIP3   OH239579   1.373   6.339   4.614  0.4288  0.0064 -0.3607
 6055TIP3    H139580   1.303   6.273   4.617  0.6728 -0.3760 -2.2928
 6055TIP3    H239581   1.368   6.383   4.699 -0.2993 -1.9186  0.6349
 6056TIP3   OH239582   6.200   6.263   3.329 -0.2301  0.5568  0.1730
 6056TIP3    H139583   6.214   6.242   3.421 -1.4302  1.7285  0.6364
 6056TIP3    H239584   6.276   6.316   3.304  0.0151  0.3701  0.5250
 6057TIP3   OH239585   0.417   4.580  17.111  0.7135  0.1062 -0.0117
 6057TIP3    H139586   0.513   4.573  17.106  0.7099  0.6822 -0.9097
 6057TIP3    H239587   0.386   4.493  17.085  0.9499  0.3830 -1.2400
 6058TIP3   OH239588   4.702   1.026  12.662 -0.0899 -0.0035  0.4230
 6058TIP3    H139589   4.746   0.942  12.676 -0.2395 -0.1941 -0.2191
 6058TIP3    H239590   4.757   1.090  12.707 -0.3231 -0.5306  1.4724
 6059TIP3   OH239591   4.106   3.857  16.317 -0.1253 -0.5957  0.0851
 6059TIP3    H139592   4.057   3.920  16.262 -1.4496 -1.5467  0.1538
 6059TIP3    H239593   4.186   3.904  16.341 -1.5707  1.4870  1.0208
 6060TIP3   OH239594   1.268   1.691  14.437  0.4135  0.4814  0.1168
 6060TIP3    H139595   1.276   1.596  14.444 -0.5000  0.3878 -0.0815
 6060TIP3    H239596   1.260   1.721  14.528 -3.2121 -0.0024  0.0294
 6061TIP3   OH239597   4.774   1.394   0.742 -0.0683  0.0547  0.4381
 6061TIP3    H139598   4.752   1.339   0.667 -0.7644 -0.5135  1.0513
 6061TIP3    H239599   4.723   1.357   0.814 -2.3245  2.8687  0.3715
 6062TIP3   OH239600   0.327   4.978   6.317 -0.4702 -0.3120 -0.6872
 6062TIP3    H139601   0.238   4.968   6.284 -0.7533 -0.4112  0.0999
 6062TIP3    H239602   0.350   4.891   6.350 -0.4868 -0.0276  0.0961
 6063TIP3   OH239603   1.344   6.140  13.862 -0.4045  0.2796  0.4785
 6063TIP3    H139604   1.329   6.227  13.898 -0.9725 -0.3955  1.9314
 6063TIP3    H239605   1.310   6.145  13.773  2.1000  2.3233 -0.4223
 6064TIP3   OH239606   2.355   6.713  13.857  0.1235 -0.3702 -0.5976
 6064TIP3    H139607   2.347   6.761  13.775 -3.1380  0.3851  0.0748
 6064TIP3    H239608   2.356   6.621  13.831 -1.2670 -0.1507 -1.4970
 6065TIP3   OH239609   5.447   6.056  13.955 -0.4478 -0.1215  0.4569
 6065TIP3    H139610   5.433   5.979  14.010 -0.3186 -1.7847 -1.7805
 6065TIP3    H239611   5.463   6.127  14.018 -2.5059 -1.4719  2.6216
 6066TIP3   OH239612   2.374   1.125  10.952  0.0386  0.2058  0.5658
 6066TIP3    H139613   2.343   1.157  10.867 -0.2697  0.7949  0.8955
 6066TIP3    H239614   2.396   1.205  11.001  0.8138 -0.1540  0.8120
 6067TIP3   OH239615   3.890   2.785  11.467 -0.2254  0.6212  0.2482
 6067TIP3    H139616   3.913   2.693  11.454 -1.2734  0.3861  0.0513
 6067TIP3    H239617   3.970   2.833  11.444  0.6755 -0.2938  1.4211
 6068TIP3   OH239618   5.857   0.386  12.111  0.4259 -0.0233 -1.0653
 6068TIP3    H139619   5.762   0.392  12.098  0.3402 -0.0531 -0.4654
 6068TIP3    H239620   5.878   0.459  12.169  0.5770 -0.7282 -0.2034
 6069TIP3   OH239621   6.215   2.793   2.761 -0.0120  0.2450  0.5852
 6069TIP3    H139622   6.136   2.769   2.712 -0.3254  1.1787  0.6238
 6069TIP3    H239623   6.275   2.719   2.748 -0.8212 -0.3813  0.4041
 6070TIP3   OH239624   2.809   3.945   0.748  0.6911 -0.0926 -0.6075
 6070TIP3    H139625   2.744   4.015   0.751  0.5889 -0.1910 -0.4764
 6070TIP3    H239626   2.886   3.985   0.708 -0.4285 -0.7873 -3.5443
 6071TIP3   OH239627   3.545   5.514   4.985  0.0173 -0.3138  0.5555
 6071TIP3    H139628   3.487   5.442   4.961  0.3203 -0.6579  0.8481
 6071TIP3    H239629   3.537   5.577   4.913  0.1037 -0.8439  0.0815
 6072TIP3   OH239630   4.974   6.618   4.721  0.3937 -0.2089 -0.1476
 6072TIP3    H139631   4.987   6.592   4.813  2.2842  2.0032  0.2624
 6072TIP3    H239632   4.961   6.535   4.675 -0.6988 -1.3613  2.1288
 6073TIP3   OH239633   5.225   2.131  12.126  0.1052  0.1242  0.2032
 6073TIP3    H139634   5.224   2.196  12.056 -0.3271  0.6665  0.7049
 6073TIP3    H239635   5.314   2.134  12.161 -0.6316  2.4381  2.0475
 6074TIP3   OH239636   6.708   5.496   1.188 -0.0984 -0.3524 -0.1313
 6074TIP3    H139637   6.624   5.495   1.143  0.2645  2.3647 -0.9771
 6074TIP3    H239638   6.714   5.583   1.226  2.4136 -0.4173 -0.2741
 6075TIP3   OH239639   1.868   2.860  16.794  0.0530 -0.3167 -0.1903
 6075TIP3    H139640   1.852   2.840  16.702 -0.1128 -1.9438  0.1899
 6075TIP3    H239641   1.964   2.868  16.800  0.0538 -0.0139 -0.5303
 6076TIP3   OH239642   5.715   1.046   3.864  0.2695  0.7980 -0.0442
 6076TIP3    H139643   5.807   1.030   3.883  0.5814  2.4334 -0.1482
 6076TIP3    H239644   5.704   1.017   3.774  0.1241 -1.5687  0.6999
 6077TIP3   OH239645   1.913   2.432  11.421 -0.3960 -0.0719  0.2316
 6077TIP3    H139646   1.867   2.512  11.395  0.8658  0.2833 -0.9655
 6077TIP3    H239647   1.903   2.373  11.346 -0.9947 -0.8946  0.9583
 6078TIP3   OH239648   2.772   1.593   4.914 -0.1657 -0.1707  0.6565
 6078TIP3    H139649   2.758   1.499   4.914  1.7720 -0.4757  0.4871
 6078TIP3    H239650   2.759   1.620   5.005 -1.6904 -0.4370  0.5282
 6079TIP3   OH239651   6.629   2.353   1.847 -0.7517  0.4150 -0.1541
 6079TIP3    H139652   6.665   2.312   1.926  1.2038 -0.9429 -1.6990
 6079TIP3    H239653   6.587   2.281   1.800  1.1587  0.4655 -2.0199
 6080TIP3   OH239654   2.460   0.067  14.785  0.0457  0.5076 -0.2647
 6080TIP3    H139655   2.467   0.127  14.711 -0.7868 -2.5606 -2.9362
 6080TIP3    H239656   2.512  -0.009  14.759  1.0198 -0.0269  3.0098
 6081TIP3   OH239657   2.119   5.966   2.244 -0.0919  0.6875  0.2184
 6081TIP3    H139658   2.091   6.057   2.246 -1.0146  0.3973  0.6816
 6081TIP3    H239659   2.050   5.918   2.290  1.6271  0.0784  2.2556
 6082TIP3   OH239660   4.304   1.315  11.444 -0.0758 -0.0593  0.0828
 6082TIP3    H139661   4.259   1.277  11.519  0.1063  0.5248  0.4885
 6082TIP3    H239662   4.397   1.312  11.467  0.0717 -0.9080 -0.5901
 6083TIP3   OH239663   5.586   3.587   1.810  0.0516 -0.7079  0.6168
 6083TIP3    H139664   5.643   3.512   1.794 -0.0611 -0.8248  0.7559
 6083TIP3    H239665   5.634   3.642   1.872  0.7621  0.0583 -0.5917
 6084TIP3   OH239666   3.239   3.251   4.861 -0.5056  0.2863 -1.1136
 6084TIP3    H139667   3.205   3.274   4.948  1.2221 -1.0254 -0.0504
 6084TIP3    H239668   3.219   3.158   4.852  0.6296  0.0776 -1.4935
 6085TIP3   OH239669   0.348   6.431   2.217 -0.8461 -0.4611  0.4462
 6085TIP3    H139670   0.259   6.466   2.226 -0.7196  0.1141 -0.5439
 6085TIP3    H239671   0.400   6.505   2.185 -0.4597 -1.4021 -1.1278
 6086TIP3   OH239672   6.678   1.326  14.522  0.5212  0.4363 -0.3538
 6086TIP3    H139673   6.618   1.387  14.565  1.4508  0.7310  0.5636
 6086TIP3    H239674   6.646   1.239  14.546  0.0761  0.5897 -0.4024
 6087TIP3   OH239675   1.015   2.366  11.572  0.2731 -0.6764  0.0717
 6087TIP3    H139676   1.004   2.304  11.645  2.3756  0.1161  1.0972
 6087TIP3    H239677   1.064   2.439  11.610 -0.1472  0.5632 -1.7273
 6088TIP3   OH239678   3.056   2.114  15.988  0.4285 -0.0285  0.1894
 6088TIP3    H139679   2.968   2.077  15.995  0.9145 -1.5205 -1.3886
 6088TIP3    H239680   3.083   2.128  16.079 -0.6631 -1.4113  0.7532
 6089TIP3   OH239681   1.272   5.625  14.574  0.6446 -0.0059  0.0652
 6089TIP3    H139682   1.182   5.592  14.576 -0.0565  1.8696  0.0835
 6089TIP3    H239683   1.324   5.552  14.540 -0.7715 -1.3407  0.7145
 6090TIP3   OH239684   4.691   6.115   2.203  0.5489 -0.6918 -0.2026
 6090TIP3    H139685   4.777   6.081   2.230  0.4949  0.2466  1.1635
 6090TIP3    H239686   4.689   6.205   2.235  0.6641  0.6638 -3.7748
 6091TIP3   OH239687   1.534   1.563  12.125 -0.0585  0.7446  0.3209
 6091TIP3    H139688   1.566   1.608  12.047  0.3548  2.5630  1.5046
 6091TIP3    H239689   1.611   1.555  12.182 -0.2044 -1.1674  0.2839
 6092TIP3   OH239690   0.749   2.015   2.464 -0.0051 -0.0104 -0.8355
 6092TIP3    H139691   0.668   2.022   2.514  0.4699  1.2111 -0.2124
 6092TIP3    H239692   0.736   2.071   2.388 -0.4244 -1.2473 -1.7009
 6093TIP3   OH239693   1.518   3.275  11.995 -0.1021 -0.9177  0.6109
 6093TIP3    H139694   1.535   3.286  11.902 -0.0768  0.0536  0.7250
 6093TIP3    H239695   1.538   3.183  12.013  2.2750 -0.5194  0.1466
 6094TIP3   OH239696   2.828   5.873   0.197  0.1341  0.0662 -0.1566
 6094TIP3    H139697   2.889   5.800   0.182  1.1311  0.5452  1.5495
 6094TIP3    H239698   2.745   5.841   0.162  0.9239 -1.2788 -0.8747
 6095TIP3   OH239699   6.032   2.876   1.280  0.1246 -0.3222 -0.3239
 6095TIP3    H139700   5.996   2.789   1.297 -0.0217 -0.0533  0.7713
 6095TIP3    H239701   5.956   2.934   1.279  0.2522 -0.1586 -0.7486
 6096TIP3   OH239702   5.200   0.567  16.152  0.0044 -0.0291 -0.0188
 6096TIP3    H139703   5.233   0.498  16.095  1.1579 -0.5021  1.2080
 6096TIP3    H239704   5.111   0.538  16.175 -0.4850  0.1809 -1.5651
 6097TIP3   OH239705   5.563   5.443   6.228  0.0989  0.3715 -0.1288
 6097TIP3    H139706   5.655   5.464   6.212  0.0386  1.4123  0.8414
 6097TIP3    H239707   5.560   5.347   6.230  1.2008  0.3395  0.1050
 6098TIP3   OH239708   4.306   3.555  14.895  0.3297  0.5823  0.9391
 6098TIP3    H139709   4.275   3.601  14.817 -1.1340 -1.7327  0.1049
 6098TIP3    H239710   4.258   3.596  14.967 -0.9073  0.4249  0.2212
 6099TIP3   OH239711   0.479   4.866   3.111 -0.1244 -0.2329  0.1155
 6099TIP3    H139712   0.444   4.865   3.022 -2.4836  1.9376  0.9556
 6099TIP3    H239713   0.404   4.846   3.167  1.0812 -0.4694  1.7002
 6100TIP3   OH239714   4.366   6.360  15.661  0.0735 -0.2772  0.7020
 6100TIP3    H139715   4.406   6.347  15.576  0.9961 -0.3668  1.1494
 6100TIP3    H239716   4.272   6.364  15.643  0.3006  0.2441 -0.3776
 6101TIP3   OH239717   6.285   4.615   3.199  0.4280 -0.2468 -0.2834
 6101TIP3    H139718   6.252   4.665   3.273  0.2623 -0.6831 -0.0593
 6101TIP3    H239719   6.239   4.531   3.204 -1.2780  0.5469 -2.2252
 6102TIP3   OH239720   4.197   1.346   0.331  0.0970 -0.4209 -0.3641
 6102TIP3    H139721   4.237   1.428   0.302 -2.4129  0.4598 -1.4420
 6102TIP3    H239722   4.271   1.289   0.350  1.8745  1.6088 -0.9895
 6103TIP3   OH239723   1.435   5.266  13.608 -0.0722  0.0307 -0.0664
 6103TIP3    H139724   1.353   5.216  13.601 -0.8747  1.3361 -0.0447
 6103TIP3    H239725   1.410   5.348  13.650  1.2018  0.5739 -0.3468
 6104TIP3   OH239726   3.308   1.382  12.847  0.0889 -0.6063 -0.1714
 6104TIP3    H139727   3.295   1.362  12.755 -2.0306  2.2443 -0.5783
 6104TIP3    H239728   3.403   1.388  12.858  0.3352 -0.0646 -2.3853
 6105TIP3   OH239729   0.819   3.734   3.765  0.1170 -0.2270  0.3010
 6105TIP3    H139730   0.861   3.811   3.727 -2.1806  0.3688 -1.1150
 6105TIP3    H239731   0.759   3.769   3.831 -0.4078 -0.8477  0.1613
 6106TIP3   OH239732   4.484   4.046  15.558  0.0592 -0.2003 -0.0832
 6106TIP3    H139733   4.419   4.009  15.618 -2.0796  2.2297 -0.8423
 6106TIP3    H239734   4.441   4.047  15.473  2.1858 -1.2745 -1.2330
 6107TIP3   OH239735   6.387   3.914   0.923 -0.5444 -0.8413 -0.6074
 6107TIP3    H139736   6.466   3.884   0.968 -0.2976  1.6738  0.7510
 6107TIP3    H239737   6.419   3.968   0.851 -1.0102 -1.0706 -0.9874
 6108TIP3   OH239738   2.074   3.407  16.462 -0.3846  0.2621 -0.5903
 6108TIP3    H139739   2.070   3.329  16.407 -0.1383  0.3926 -0.7972
 6108TIP3    H239740   2.015   3.389  16.535  0.8852 -0.7598  0.1870
 6109TIP3   OH239741   5.706   1.160  10.419  0.2403  0.2176  0.0913
 6109TIP3    H139742   5.735   1.237  10.468 -0.9704  1.6073 -1.3360
 6109TIP3    H239743   5.762   1.157  10.342  0.2024 -0.2533  0.0782
 6110TIP3   OH239744   1.304   1.879  15.087  0.4088 -0.3529  0.0756
 6110TIP3    H139745   1.327   1.971  15.096  1.2960 -0.4870 -0.8674
 6110TIP3    H239746   1.233   1.867  15.150 -0.9330  1.4023 -1.0453
 6111TIP3   OH239747   1.352   1.354   4.859  0.8270  0.0414  0.5203
 6111TIP3    H139748   1.356   1.437   4.811 -1.3307  0.0431  0.2872
 6111TIP3    H239749   1.384   1.375   4.946  1.1937  0.9173  0.1822
 6112TIP3   OH239750   2.569   1.533   5.871  0.2599 -0.6167 -0.5162
 6112TIP3    H139751   2.594   1.477   5.944 -0.1819 -1.2627 -0.8530
 6112TIP3    H239752   2.565   1.474   5.796 -0.8690 -0.2660 -0.7473
 6113TIP3   OH239753   3.367   3.916   2.063 -0.3132  0.4862  0.1452
 6113TIP3    H139754   3.307   3.974   2.017 -0.1865  1.2212  0.9129
 6113TIP3    H239755   3.377   3.841   2.004  1.4194  2.3043 -1.9973
 6114TIP3   OH239756   5.807   3.989  14.902  0.7696  0.2212 -0.1764
 6114TIP3    H139757   5.821   3.926  14.972  0.4607 -0.4513 -0.7158
 6114TIP3    H239758   5.889   3.988  14.852  0.7684  0.2589 -0.1792
 6115TIP3   OH239759   4.491   1.378  16.599 -0.9130  0.1076 -0.4999
 6115TIP3    H139760   4.434   1.360  16.524 -0.8195 -0.2934 -0.4794
 6115TIP3    H239761   4.540   1.296  16.611 -1.5409 -0.1216  0.5406
 6116TIP3   OH239762   1.137   0.030   5.095 -0.1488  0.1828 -0.2374
 6116TIP3    H139763   1.166   0.049   5.005 -0.7272  0.2884 -0.3989
 6116TIP3    H239764   1.164   0.107   5.145  1.5219 -0.5145 -0.0162
 6117TIP3   OH239765   3.195   0.020  16.174  0.2755  0.6739 -0.1833
 6117TIP3    H139766   3.210   0.061  16.259  1.5057 -1.1624  0.5257
 6117TIP3    H239767   3.232  -0.068  16.183 -3.2853 -1.0511 -1.2387
 6118TIP3   OH239768   4.712   2.694   5.050 -0.4656 -0.8015  0.1337
 6118TIP3    H139769   4.677   2.620   5.000 -1.6640 -1.0772  1.3389
 6118TIP3    H239770   4.736   2.657   5.135  0.6375 -0.1569  0.1037
 6119TIP3   OH239771   0.033   3.865  13.713 -0.7740  0.0694  0.5270
 6119TIP3    H139772   0.113   3.869  13.766 -0.2512  0.9065 -0.3052
 6119TIP3    H239773  -0.032   3.823  13.770  0.3147 -0.8171  1.1305
 6120TIP3   OH239774   0.898   6.312  14.393  0.2403  0.3572 -0.5030
 6120TIP3    H139775   0.924   6.225  14.422 -0.0326  0.4472  0.0154
 6120TIP3    H239776   0.901   6.307  14.297 -0.3090 -0.3813 -0.4888
 6121TIP3   OH239777   2.863   6.029   0.444 -0.1096  0.2613  0.0212
 6121TIP3    H139778   2.945   6.005   0.488 -0.1903 -0.5153 -0.2392
 6121TIP3    H239779   2.864   5.976   0.364 -2.5154 -2.3838  1.6592
 6122TIP3   OH239780   1.725   6.204  16.734 -0.6274  0.1091 -0.0391
 6122TIP3    H139781   1.816   6.174  16.721 -0.3056  0.6860  0.8235
 6122TIP3    H239782   1.698   6.236  16.648  0.1026  0.2337 -0.2322
 6123TIP3   OH239783   3.268   0.926   2.934 -0.2143  0.7512 -0.2848
 6123TIP3    H139784   3.267   1.015   2.968 -0.2720  0.2559  1.0324
 6123TIP3    H239785   3.347   0.887   2.970 -1.5757 -0.5632  1.3399
 6124TIP3   OH239786   2.745   2.269   4.934 -0.0876  0.3387  0.6525
 6124TIP3    H139787   2.785   2.257   5.021 -0.2142  1.4574  0.8643
 6124TIP3    H239788   2.692   2.347   4.943 -0.0408  0.5003 -0.4702
 6125TIP3   OH239789   2.334   2.328  12.304 -0.3313  0.2307  0.0566
 6125TIP3    H139790   2.373   2.243  12.283 -1.6703 -0.2180 -0.6521
 6125TIP3    H239791   2.342   2.379  12.223  1.9170  1.3710  0.9412
 6126TIP3   OH239792   6.700   1.833   4.029  0.6823 -0.2541  0.0027
 6126TIP3    H139793   6.697   1.907   3.968  0.2160 -1.0645 -0.9862
 6126TIP3    H239794   6.727   1.871   4.112 -0.5018  1.1969 -0.2526
 6127TIP3   OH239795   2.944   1.743   4.032  0.4924  0.9892 -0.1804
 6127TIP3    H139796   2.861   1.784   4.007  0.5373  0.8178 -0.6191
 6127TIP3    H239797   2.962   1.776   4.120 -2.6616 -2.9785  2.0517
 6128TIP3   OH239798   1.379   3.625  12.244  0.1174  0.3085 -0.5245
 6128TIP3    H139799   1.308   3.686  12.223  1.3123  0.9441 -2.8237
 6128TIP3    H239800   1.345   3.574  12.318 -2.4957  0.9843 -1.2053
 6129TIP3   OH239801   0.589   1.408   1.243 -0.3433 -0.7562 -0.1975
 6129TIP3    H139802   0.603   1.314   1.258 -0.9151 -0.4494  2.4372
 6129TIP3    H239803   0.658   1.451   1.293 -1.5585  0.2930  0.6020
 6130TIP3   OH239804   0.556   2.291  15.551  0.3573 -0.0425  0.3338
 6130TIP3    H139805   0.528   2.373  15.509 -0.3053 -0.9893 -1.1029
 6130TIP3    H239806   0.651   2.289  15.538  0.0049 -1.0274 -2.4813
 6131TIP3   OH239807   0.797   2.677   5.599 -0.2921  0.0677 -0.1727
 6131TIP3    H139808   0.863   2.671   5.669 -0.4529 -3.0838 -0.2414
 6131TIP3    H239809   0.847   2.664   5.519 -0.6650 -0.1480 -0.3706
 6132TIP3   OH239810   1.283   3.005   0.436 -0.2307  0.3322 -0.1916
 6132TIP3    H139811   1.252   3.072   0.498 -1.6051  0.3989 -0.9207
 6132TIP3    H239812   1.309   2.931   0.491  0.0170  0.9642  0.5482
 6133TIP3   OH239813   6.778   5.804  12.297 -0.5459  0.2476 -0.3975
 6133TIP3    H139814   6.800   5.727  12.350  2.2198  1.3172  0.0744
 6133TIP3    H239815   6.817   5.877  12.344 -2.3403  1.8667 -1.3563
 6134TIP3   OH239816   1.973   4.060  11.365 -0.8217 -0.0559 -0.1105
 6134TIP3    H139817   1.943   4.106  11.287  1.7108 -0.3313 -1.2867
 6134TIP3    H239818   1.998   3.973  11.334  1.3251  0.2206  0.7580
 6135TIP3   OH239819   6.469   3.145  14.284 -0.1831  0.4524  0.4157
 6135TIP3    H139820   6.441   3.236  14.279  0.3710  0.5839 -0.3993
 6135TIP3    H239821   6.408   3.098  14.227  0.4593  0.5495 -0.3652
 6136TIP3   OH239822   4.366   5.094  11.893  0.2270 -0.6327 -0.2658
 6136TIP3    H139823   4.416   5.015  11.913 -0.5113 -0.0074  4.4822
 6136TIP3    H239824   4.425   5.166  11.915 -0.3747  0.1540 -1.1702
 6137TIP3   OH239825   2.747   0.029  15.775 -0.6696 -0.4476  0.7444
 6137TIP3    H139826   2.748  -0.015  15.860 -0.2570 -3.3648 -0.7013
 6137TIP3    H239827   2.662   0.006  15.738 -0.6066  0.3290  0.1151
 6138TIP3   OH239828   2.932   1.448   5.955 -0.2027 -0.3996  0.5449
 6138TIP3    H139829   2.965   1.368   5.914  1.0907  1.8297 -2.9291
 6138TIP3    H239830   3.006   1.481   6.006  0.0048 -0.2039  0.1170
 6139TIP3   OH239831   0.678   1.776   5.430 -0.7508 -0.3602 -0.3406
 6139TIP3    H139832   0.589   1.804   5.451 -0.2380  0.7366  0.3891
 6139TIP3    H239833   0.731   1.854   5.440  0.8973 -1.7925  2.7919
 6140TIP3   OH239834   6.027   3.519  16.432 -0.0325  0.5764 -0.5977
 6140TIP3    H139835   6.102   3.533  16.374  0.0913 -0.0773 -0.6024
 6140TIP3    H239836   5.960   3.480  16.376  0.8676 -2.1986  0.1406
 6141TIP3   OH239837   6.380   5.498  16.383 -0.1699 -0.0079 -0.2919
 6141TIP3    H139838   6.318   5.434  16.416  0.9947 -1.6076 -1.1112
 6141TIP3    H239839   6.454   5.446  16.351  1.2712  1.7970 -0.0193
 6142TIP3   OH239840   5.994   5.355   6.325  0.1786 -0.4786  0.1664
 6142TIP3    H139841   6.058   5.298   6.282 -1.2446 -1.7773 -0.2863
 6142TIP3    H239842   6.033   5.443   6.320  1.7055 -1.1755 -0.5012
 6143TIP3   OH239843   0.625   5.865   3.380 -0.4240 -0.2451 -0.4006
 6143TIP3    H139844   0.656   5.946   3.338 -0.8897  0.1408 -0.0062
 6143TIP3    H239845   0.682   5.856   3.457 -1.2386  0.4432  0.3021
 6144TIP3   OH239846   2.350   6.579  14.925  0.3536 -0.4358 -0.4313
 6144TIP3    H139847   2.318   6.666  14.903 -0.2902 -1.0647 -2.0127
 6144TIP3    H239848   2.445   6.584  14.912  0.2548 -0.1314 -1.0255
 6145TIP3   OH239849   3.288   4.275   5.501 -0.0212 -0.3074  0.7667
 6145TIP3    H139850   3.192   4.274   5.505 -0.0930  0.7075 -0.3401
 6145TIP3    H239851   3.310   4.220   5.426  0.1771  0.8442 -0.0369
 6146TIP3   OH239852   0.648   4.755  15.555 -0.0680  0.2832 -0.2376
 6146TIP3    H139853   0.696   4.703  15.491  2.4467 -0.0540  1.8281
 6146TIP3    H239854   0.615   4.691  15.618 -1.3188  0.7304 -0.4333
 6147TIP3   OH239855   3.586   1.771   3.051 -1.0146  0.0383 -0.0128
 6147TIP3    H139856   3.597   1.721   2.970  2.7878  0.6404  0.0313
 6147TIP3    H239857   3.535   1.848   3.026 -1.8206 -0.9200 -1.3290
 6148TIP3   OH239858   3.287   3.689  12.224 -0.3364  0.5953  0.5470
 6148TIP3    H139859   3.268   3.595  12.216 -0.3328  0.6239  0.2250
 6148TIP3    H239860   3.371   3.692  12.271  1.6427  0.3300 -2.8317
 6149TIP3   OH239861   6.638   6.029  16.071  0.1000 -0.7576  0.1453
 6149TIP3    H139862   6.615   6.037  16.164  0.4316  0.0554  0.1645
 6149TIP3    H239863   6.554   6.033  16.025 -0.0290 -0.7253  0.3797
 6150TIP3   OH239864   0.304   6.703   1.982  0.1575 -0.0352 -0.0651
 6150TIP3    H139865   0.385   6.686   2.028 -0.1548 -0.6844  0.2492
 6150TIP3    H239866   0.330   6.714   1.890  0.7650  1.1664  0.2377
 6151TIP3   OH239867   2.989   1.197   4.828 -0.2427 -0.3253 -0.3093
 6151TIP3    H139868   2.932   1.143   4.884 -0.3762  0.7152  0.5853
 6151TIP3    H239869   2.963   1.174   4.739 -0.3112 -1.7185  0.0548
 6152TIP3   OH239870   1.772   1.499  12.821  0.0263  0.2381  0.2597
 6152TIP3    H139871   1.681   1.528  12.823  0.0550  0.5214 -1.4869
 6152TIP3    H239872   1.769   1.409  12.854 -0.6414  0.7810  1.7443
 6153TIP3   OH239873   5.505   0.418   3.970  0.1217  0.1109 -0.4776
 6153TIP3    H139874   5.570   0.488   3.978  0.4725 -0.3117  0.4616
 6153TIP3    H239875   5.458   0.419   4.054 -0.7524  0.0860 -0.9621
 6154TIP3   OH239876   5.218   5.299   5.752  0.3682 -0.4943 -0.4040
 6154TIP3    H139877   5.169   5.273   5.830 -0.2506 -0.4854 -0.7908
 6154TIP3    H239878   5.152   5.310   5.684  0.5950  2.3359 -0.1960
 6155TIP3   OH239879   0.210   0.065   2.664 -0.1983 -0.5928 -0.3483
 6155TIP3    H139880   0.152   0.111   2.603 -0.6869  1.1467  1.3766
 6155TIP3    H239881   0.151   0.027   2.729  0.5591  1.4764  1.6140
 6156TIP3   OH239882   4.420   0.167  15.805  0.4584  0.1034 -0.6783
 6156TIP3    H139883   4.506   0.125  15.804  0.9083  0.8957  2.1425
 6156TIP3    H239884   4.361   0.099  15.772  2.0037 -0.7888 -1.6855
 6157TIP3   OH239885   5.577   4.216  11.577  0.2440 -0.0537 -0.2189
 6157TIP3    H139886   5.591   4.164  11.656  1.5830 -0.1803 -0.5281
 6157TIP3    H239887   5.582   4.152  11.506  2.3514  0.5249 -0.6342
 6158TIP3   OH239888   0.570   4.742  13.538  0.6439  0.4729  0.0971
 6158TIP3    H139889   0.535   4.743  13.626  3.6067 -2.1645  1.4057
 6158TIP3    H239890   0.663   4.764  13.548  1.2005 -0.5451 -2.2403
 6159TIP3   OH239891   5.127   0.339   1.905 -0.0266 -0.3464 -0.3737
 6159TIP3    H139892   5.155   0.393   1.979 -0.0234 -0.8416 -0.0154
 6159TIP3    H239893   5.118   0.251   1.941  1.4084 -0.8844 -1.2824
 6160TIP3   OH239894   2.155   2.354  16.287 -0.0345 -0.2338 -0.1373
 6160TIP3    H139895   2.069   2.312  16.288  0.8768 -2.1624  1.6064
 6160TIP3    H239896   2.187   2.346  16.377  1.7557  0.9348 -0.6270
 6161TIP3   OH239897   0.355   3.571  11.602 -0.1486 -0.0823  0.3456
 6161TIP3    H139898   0.423   3.509  11.579 -1.7007 -0.8722 -2.2846
 6161TIP3    H239899   0.274   3.534  11.566 -1.6665  1.7620  1.7155
 6162TIP3   OH239900   1.154   5.392  10.944 -0.1575 -0.1051 -0.1379
 6162TIP3    H139901   1.219   5.351  10.887  0.2823  0.3327  0.0464
 6162TIP3    H239902   1.089   5.428  10.884  0.1935  0.1721 -0.3547
 6163TIP3   OH239903   0.731   0.313   2.634  0.4712 -0.1329  0.4702
 6163TIP3    H139904   0.640   0.342   2.641 -0.0881 -1.8868  0.5766
 6163TIP3    H239905   0.768   0.368   2.565 -1.6880 -1.8526 -2.1776
 6164TIP3   OH239906   3.990   6.650   4.052 -0.0795  0.1134  0.3277
 6164TIP3    H139907   3.948   6.717   3.998 -2.9731 -3.1798 -1.6984
 6164TIP3    H239908   3.929   6.638   4.126  0.2542 -0.5088  0.5071
 6165TIP3   OH239909   2.593   0.734  16.594 -0.1242  0.7912  0.0694
 6165TIP3    H139910   2.670   0.685  16.565 -0.8254  0.1856 -0.7865
 6165TIP3    H239911   2.562   0.686  16.671 -1.0518 -0.3929 -1.0060
 6166TIP3   OH239912   3.421   5.194  13.655  0.0838 -0.5925  0.2545
 6166TIP3    H139913   3.428   5.236  13.740 -0.4735  0.1169 -0.0381
 6166TIP3    H239914   3.397   5.104  13.674 -0.3258 -0.3589  0.8386
 6167TIP3   OH239915   0.784   6.777   4.552  0.3874  0.5767  0.2042
 6167TIP3    H139916   0.840   6.849   4.521 -1.6303  2.5218  0.9972
 6167TIP3    H239917   0.843   6.723   4.605  1.6061  2.4152  0.7830
 6168TIP3   OH239918   5.124   5.324   3.293  0.2478 -0.5165 -0.5010
 6168TIP3    H139919   5.161   5.237   3.276  1.2314 -0.0698 -0.7316
 6168TIP3    H239920   5.169   5.381   3.230 -1.2709 -0.0436 -1.1699
 6169TIP3   OH239921   1.756   0.367   4.669  0.0948  0.6041 -0.4272
 6169TIP3    H139922   1.722   0.379   4.758 -0.0877  0.9535 -0.5445
 6169TIP3    H239923   1.723   0.442   4.620 -0.8775 -0.2371 -1.1032
 6170TIP3   OH239924   4.856   2.641  12.386 -0.2082  0.1165  0.2836
 6170TIP3    H139925   4.804   2.650  12.307 -1.4984 -0.5326  1.0483
 6170TIP3    H239926   4.891   2.552  12.382 -0.8829 -0.1766  0.8008
 6171TIP3   OH239927   3.425   4.778   1.589  0.2770 -0.1263 -0.0767
 6171TIP3    H139928   3.427   4.698   1.537  2.5694 -0.9285  1.1757
 6171TIP3    H239929   3.505   4.825   1.563  1.7475 -0.7897  3.0667
 6172TIP3   OH239930   1.715   0.907  16.274 -0.1894 -0.5172  0.1323
 6172TIP3    H139931   1.743   0.816  16.283  0.2059 -0.6704 -2.1304
 6172TIP3    H239932   1.711   0.920  16.179  0.6703  2.1031  0.4374
 6173TIP3   OH239933   6.293   6.489  13.369  0.4709  0.5422  0.2545
 6173TIP3    H139934   6.383   6.500  13.338 -0.1902  2.2675 -1.0925
 6173TIP3    H239935   6.245   6.563  13.332 -1.8965 -1.3067 -0.5025
 6174TIP3   OH239936   0.779   0.418  15.905 -0.4734  0.0096  0.5047
 6174TIP3    H139937   0.815   0.501  15.937  1.8093 -0.7206 -0.0685
 6174TIP3    H239938   0.796   0.356  15.976 -0.8698 -0.2926  0.3369
 6175TIP3   OH239939   2.833   1.510   1.144  0.3566 -0.5319 -0.2058
 6175TIP3    H139940   2.787   1.586   1.110 -0.0305 -0.7807 -0.2364
 6175TIP3    H239941   2.781   1.481   1.219  0.7337 -0.5101  0.0675
 6176TIP3   OH239942   3.294   1.298  11.730 -0.1912 -0.0109  0.7007
 6176TIP3    H139943   3.215   1.313  11.782  0.5348  0.5680  1.6532
 6176TIP3    H239944   3.330   1.216  11.764 -1.2713 -1.1766 -0.8793
 6177TIP3   OH239945   2.248   3.580   4.163 -0.2545 -0.3433  0.1692
 6177TIP3    H139946   2.187   3.514   4.195 -0.3856 -0.0157  0.5921
 6177TIP3    H239947   2.261   3.557   4.070 -1.3725 -0.1446 -0.0472
 6178TIP3   OH239948   6.281   6.107  13.598 -0.1522 -0.1602 -0.1554
 6178TIP3    H139949   6.293   6.185  13.543 -0.0885 -0.6138 -0.7976
 6178TIP3    H239950   6.316   6.035  13.545 -0.4453 -0.6599  0.3273
 6179TIP3   OH239951   1.439   0.374  11.173  0.5187 -0.5854 -0.1824
 6179TIP3    H139952   1.426   0.304  11.109 -0.4557 -0.6566  0.0978
 6179TIP3    H239953   1.352   0.392  11.208  0.6559  1.1521 -0.6672
 6180TIP3   OH239954   1.235   4.806   1.110  0.2278  0.2588 -0.0151
 6180TIP3    H139955   1.251   4.811   1.204  2.7885 -0.0354 -0.3779
 6180TIP3    H239956   1.213   4.714   1.095  0.3523  0.1849  0.2424
 6181TIP3   OH239957   0.597   4.459  12.014 -0.0684  0.2682  0.1153
 6181TIP3    H139958   0.554   4.374  12.018 -2.6099  1.3734 -1.7972
 6181TIP3    H239959   0.580   4.498  12.100 -3.3248  0.7908 -0.6763
 6182TIP3   OH239960   0.081   5.191  15.981  0.3301  0.6415  0.1752
 6182TIP3    H139961  -0.005   5.168  15.946  0.9857 -1.5498 -0.1198
 6182TIP3    H239962   0.070   5.191  16.076  0.8332 -3.5607  0.3266
 6183TIP3   OH239963   2.336   4.370  14.917  0.2096  0.2374  0.3434
 6183TIP3    H139964   2.381   4.285  14.908  2.1854  0.8917  3.3286
 6183TIP3    H239965   2.253   4.349  14.959  0.1026 -0.3626 -0.1541
 6184TIP3   OH239966   3.627   0.710   0.142  0.2473 -0.1607  0.0922
 6184TIP3    H139967   3.609   0.721   0.048 -1.5164 -1.3626  0.2677
 6184TIP3    H239968   3.721   0.724   0.150  0.3467  0.4337 -1.7885
 6185TIP3   OH239969   5.659   4.891   6.585  0.1039 -0.3862  0.5548
 6185TIP3    H139970   5.653   4.797   6.566 -0.2718  0.0378 -1.4852
 6185TIP3    H239971   5.750   4.914   6.565  0.0980 -0.2441  0.6914
 6186TIP3   OH239972   6.088   0.832  11.827 -0.1917  0.0372  0.1357
 6186TIP3    H139973   6.028   0.889  11.779  0.6574  0.5279 -0.3546
 6186TIP3    H239974   6.174   0.853  11.792  0.1543 -1.4207  0.0692
 6187TIP3   OH239975   6.264   1.166  12.546  0.0077 -0.1480 -0.5306
 6187TIP3    H139976   6.354   1.192  12.525  0.2112 -0.0869  0.4076
 6187TIP3    H239977   6.267   1.070  12.547 -0.0284 -0.1548 -0.8639
 6188TIP3   OH239978   3.176   2.460  15.926  0.3361  0.0214  0.4904
 6188TIP3    H139979   3.182   2.484  15.834 -0.3115 -0.1797  0.3901
 6188TIP3    H239980   3.228   2.380  15.934  1.9559  1.0672  0.6969
 6189TIP3   OH239981   2.762   1.095   1.105  0.0784  0.3058 -0.4329
 6189TIP3    H139982   2.769   1.000   1.108  0.7591  0.3618 -0.1718
 6189TIP3    H239983   2.852   1.126   1.113 -0.2901  1.0112  1.0804
 6190TIP3   OH239984   1.209   3.211  12.225  0.4322 -0.7220  0.0074
 6190TIP3    H139985   1.174   3.275  12.287  1.8365  1.4950 -1.4036
 6190TIP3    H239986   1.304   3.215  12.238  0.6940 -0.7314 -1.7649
 6191TIP3   OH239987   3.832   0.047   5.253 -0.3455 -0.0559 -0.3520
 6191TIP3    H139988   3.771  -0.024   5.230  2.2226 -3.5965  3.0849
 6191TIP3    H239989   3.816   0.064   5.345  0.4325  2.5676 -0.6616
 6192TIP3   OH239990   0.403   6.184  13.817  0.3646 -0.6744 -0.2196
 6192TIP3    H139991   0.442   6.197  13.904  0.0229 -0.6457 -0.0730
 6192TIP3    H239992   0.478   6.161  13.761  0.4411 -1.7523  0.3072
 6193TIP3   OH239993   2.921   3.698  13.392  0.0879  0.2821  0.1815
 6193TIP3    H139994   2.929   3.639  13.467  2.9854  2.1641  1.4444
 6193TIP3    H239995   2.954   3.782  13.424 -1.6459  1.9742 -2.2905
 6194TIP3   OH239996   2.387   4.037  13.013 -0.0348  0.1349  0.2054
 6194TIP3    H139997   2.350   4.036  13.101  0.3250  0.7146  0.3675
 6194TIP3    H239998   2.479   4.060  13.026  0.3527 -1.1419 -0.2052
 6195TIP3   OH239999   3.092   1.745   4.899  0.1425  0.4520  0.0280
 6195TIP3    H140000   3.045   1.681   4.846 -3.0051  0.8705  2.1526
 6195TIP3    H240001   3.057   1.732   4.988  2.2129  2.5651  1.1965
 6196TIP3   OH240002   5.962   1.033   4.465  0.1803  0.2484 -0.4055
 6196TIP3    H140003   6.051   1.027   4.432 -0.0826 -0.5308 -0.9709
 6196TIP3    H240004   5.908   1.049   4.387 -0.0183  2.1356  0.0995
 6197TIP3   OH240005   3.183   4.192   0.033  0.7633  0.4397 -0.2459
 6197TIP3    H140006   3.199   4.197   0.127  0.3508  0.4886 -0.1784
 6197TIP3    H240007   3.238   4.260  -0.005  0.5139  0.7834  0.0114
 6198TIP3   OH240008   6.470   0.161   4.068 -0.1732  0.0612  0.1524
 6198TIP3    H140009   6.396   0.106   4.095  0.0398 -1.0079 -1.3394
 6198TIP3    H240010   6.542   0.132   4.123 -0.4721  0.0118  0.5237
 6199TIP3   OH240011   3.247   0.912   4.067  0.5116 -0.1612  0.1136
 6199TIP3    H140012   3.238   0.817   4.060 -1.3074  0.0781 -1.2945
 6199TIP3    H240013   3.183   0.947   4.005  1.1056  1.9915  0.6552
 6200TIP3   OH240014   1.352   5.972   0.569 -0.3249  0.3086  0.6821
 6200TIP3    H140015   1.416   5.961   0.498  1.5173 -0.2627  2.4144
 6200TIP3    H240016   1.339   6.067   0.575 -1.5423  0.3068 -1.2940
 6201TIP3   OH240017   3.435   6.645   2.124  0.1058  0.5748  0.4246
 6201TIP3    H140018   3.358   6.698   2.145 -1.5781 -1.9021  0.6521
 6201TIP3    H240019   3.420   6.615   2.034  1.0412  0.4610  0.2969
 6202TIP3   OH240020   0.559   3.602   6.243  0.1991 -0.0012  0.5129
 6202TIP3    H140021   0.472   3.589   6.281 -0.0359 -0.7120 -0.2545
 6202TIP3    H240022   0.595   3.678   6.290 -0.7292  0.1365  1.0076
 6203TIP3   OH240023   5.637   3.297  15.896  0.5205 -0.0263  0.4159
 6203TIP3    H140024   5.598   3.318  15.811  0.7967 -0.4347  0.1868
 6203TIP3    H240025   5.645   3.202  15.896  2.9870  0.1484 -0.1813
 6204TIP3   OH240026   3.706   5.157  13.627 -0.5317 -0.0138  0.4369
 6204TIP3    H140027   3.617   5.187  13.643 -1.1362 -1.5113 -0.0195
 6204TIP3    H240028   3.712   5.148  13.532 -0.0660 -0.3701  0.4960
 6205TIP3   OH240029   6.355   4.839  12.572 -0.4830 -0.7207 -0.3067
 6205TIP3    H140030   6.388   4.790  12.496 -0.7558 -2.8329  0.9125
 6205TIP3    H240031   6.313   4.773  12.627 -3.4051  1.3497  0.0249
 6206TIP3   OH240032   5.746   2.204   3.540  0.3465  0.5476 -0.1029
 6206TIP3    H140033   5.737   2.110   3.555  2.1553  0.4884  0.7210
 6206TIP3    H240034   5.677   2.244   3.594 -1.1639 -0.3274 -1.3189
 6207TIP3   OH240035   3.709   1.247  11.762 -0.0192  0.2327 -0.0910
 6207TIP3    H140036   3.652   1.270  11.689 -1.1867 -0.4631  0.5933
 6207TIP3    H240037   3.747   1.331  11.790  0.3819  0.5112 -1.4255
 6208TIP3   OH240038   5.712   4.855   3.797 -0.5431  0.5618  0.3302
 6208TIP3    H140039   5.722   4.860   3.892 -0.9334  0.6227  0.3694
 6208TIP3    H240040   5.647   4.786   3.783  1.0645 -0.9349  0.0081
 6209TIP3   OH240041   5.141   2.063  13.138  0.3052 -0.1191  0.6863
 6209TIP3    H140042   5.208   2.112  13.090 -0.4601  1.7063  1.4292
 6209TIP3    H240043   5.178   1.976  13.148  1.0475 -0.1574 -2.0117
 6210TIP3   OH240044   2.337   3.186  12.974 -0.2125 -0.2457  0.2377
 6210TIP3    H140045   2.351   3.093  12.956 -0.3870 -0.3342  0.5307
 6210TIP3    H240046   2.405   3.231  12.926 -0.9359 -0.4365 -0.9889
 6211TIP3   OH240047   0.365   0.848   0.233  0.7081 -0.7124  0.0820
 6211TIP3    H140048   0.365   0.761   0.274 -0.3320 -0.9918 -0.5060
 6211TIP3    H240049   0.456   0.877   0.240  0.5998 -0.8608  2.3574
 6212TIP3   OH240050   3.145   6.534  12.677  0.0503 -0.4270  0.3265
 6212TIP3    H140051   3.200   6.585  12.736  1.0849 -1.0245 -0.1108
 6212TIP3    H240052   3.072   6.593  12.655  1.4175  0.9924 -0.4754
 6213TIP3   OH240053   3.953   3.866   1.859  0.3812  0.3256  0.2226
 6213TIP3    H140054   3.890   3.884   1.929 -0.0307  1.2044 -0.3569
 6213TIP3    H240055   3.906   3.807   1.799  0.3825  0.3615  0.1863
 6214TIP3   OH240056   6.359   4.013   1.257 -0.6991  0.0307 -0.0529
 6214TIP3    H140057   6.352   4.041   1.165  0.2874 -0.0983 -0.1702
 6214TIP3    H240058   6.379   4.094   1.305  1.3795 -0.3331 -0.2913
 6215TIP3   OH240059   3.494   0.089   5.247 -0.3662  0.3099 -0.1836
 6215TIP3    H140060   3.518   0.177   5.276  2.4311 -0.3082 -0.4689
 6215TIP3    H240061   3.406   0.075   5.283  0.2956  2.1155  2.2892
 6216TIP3   OH240062   0.777   3.374   3.766 -0.1086 -0.4644  0.6556
 6216TIP3    H140063   0.825   3.296   3.738 -2.7099 -1.8914  0.0622
 6216TIP3    H240064   0.788   3.436   3.694 -2.5316 -2.2898 -1.4006
 6217TIP3   OH240065   5.873   0.968  11.713 -0.0715 -0.3519 -0.8838
 6217TIP3    H140066   5.779   0.968  11.697 -0.3471 -3.3826  0.4674
 6217TIP3    H240067   5.911   1.005  11.633 -2.2747 -1.1941 -2.3612
 6218TIP3   OH240068   4.717   3.907   5.615  0.3080 -0.4997 -0.1109
 6218TIP3    H140069   4.746   3.974   5.553  0.0871 -0.1502  0.1662
 6218TIP3    H240070   4.797   3.861   5.639  0.5872  0.2277  0.3727
 6219TIP3   OH240071   4.171   5.518  15.340 -0.1672 -0.5860  0.0951
 6219TIP3    H140072   4.194   5.551  15.253 -0.7566  0.8564  0.4783
 6219TIP3    H240073   4.226   5.569  15.400  1.6902 -2.9210  0.4786
 6220TIP3   OH240074   3.669   3.410   1.000 -0.0183 -0.0597  0.4827
 6220TIP3    H140075   3.751   3.440   1.041  0.0419  0.4451 -0.0051
 6220TIP3    H240076   3.611   3.486   1.004 -0.0195 -0.0150 -0.3512
 6221TIP3   OH240077   1.661   4.456  12.689 -0.4584  0.3145  0.7908
 6221TIP3    H140078   1.619   4.417  12.612 -0.6591 -0.7110  1.4153
 6221TIP3    H240079   1.588   4.492  12.740 -0.6305 -1.6200  1.9635
 6222TIP3   OH240080   5.360   4.255  13.561  0.0280 -0.6794  0.6440
 6222TIP3    H140081   5.439   4.226  13.514 -0.7147 -1.3455 -0.2156
 6222TIP3    H240082   5.380   4.241  13.653  0.4128 -2.1383  0.3494
 6223TIP3   OH240083   3.266   1.714   4.031  1.0327  0.2884  0.2189
 6223TIP3    H140084   3.324   1.743   3.962  1.0811 -0.8469 -0.2378
 6223TIP3    H240085   3.317   1.722   4.111  1.9122 -0.8840 -0.2000
 6224TIP3   OH240086   0.507   4.216   0.066 -0.3903  0.0042 -0.2582
 6224TIP3    H140087   0.564   4.256   0.001  0.3381 -1.5825 -0.6253
 6224TIP3    H240088   0.525   4.122   0.060 -1.9933 -0.3939  0.6246
 6225TIP3   OH240089   0.334   6.591  17.237  0.2888  0.1818  0.2061
 6225TIP3    H140090   0.283   6.531  17.292 -0.6240 -0.7736 -1.6472
 6225TIP3    H240091   0.284   6.672  17.236  0.4313  0.2798  0.9863
 6226TIP3   OH240092   6.244   1.460   1.378 -0.3733 -0.1006  0.3868
 6226TIP3    H140093   6.267   1.468   1.285 -1.2034  0.6222  0.2353
 6226TIP3    H240094   6.326   1.474   1.424 -0.2788  1.3215 -0.1848
 6227TIP3   OH240095   0.170   0.976  13.368  0.3371 -0.0915  0.0798
 6227TIP3    H140096   0.158   0.973  13.463 -3.0824  0.5843 -0.2607
 6227TIP3    H240097   0.090   0.936  13.333  1.5998 -0.4445 -2.5361
 6228TIP3   OH240098   1.946   6.182  11.955 -0.0965 -0.3336  0.2579
 6228TIP3    H140099   2.019   6.127  11.928  0.2538  0.9963 -1.5624
 6228TIP3    H240100   1.919   6.229  11.876 -0.3559  2.1398  1.7455
 6229TIP3   OH240101   5.897   6.734  12.250 -0.6292 -0.3693 -0.1185
 6229TIP3    H140102   5.835   6.726  12.178 -0.7762 -1.1790  0.0928
 6229TIP3    H240103   5.846   6.770  12.323 -0.1368  1.8998 -0.8495
 6230TIP3   OH240104   0.487   6.057   4.543  0.7054 -0.2589 -0.3049
 6230TIP3    H140105   0.529   5.975   4.517 -0.7727 -0.5772 -1.7928
 6230TIP3    H240106   0.399   6.030   4.572  0.5670  0.6898  0.1661
 6231TIP3   OH240107   5.663   5.232   6.688  1.1362 -0.1529  0.6692
 6231TIP3    H140108   5.607   5.165   6.650 -0.6542  1.3569  0.5513
 6231TIP3    H240109   5.650   5.224   6.782  0.5957  0.2991  0.6340
 6232TIP3   OH240110   1.947   2.407  14.974 -0.7973  0.4829 -0.4878
 6232TIP3    H140111   1.934   2.500  14.955 -0.6900  0.2918 -1.5554
 6232TIP3    H240112   2.005   2.406  15.050 -0.1951  1.3007 -0.9154
 6233TIP3   OH240113   2.509   1.681   4.803  0.4626 -0.2726  0.5025
 6233TIP3    H140114   2.604   1.685   4.817  0.7598 -0.9625 -1.1284
 6233TIP3    H240115   2.481   1.602   4.849  0.4861  0.5734  1.9765
 6234TIP3   OH240116   5.993   2.423  16.998 -0.1687  0.1339  0.4887
 6234TIP3    H140117   6.013   2.330  17.008 -2.0203 -0.2614  0.8053
 6234TIP3    H240118   6.077   2.464  16.975  0.2054 -1.9889 -2.2560
 6235TIP3   OH240119   5.881   3.217   4.793  0.4507 -0.2550  0.2482
 6235TIP3    H140120   5.806   3.179   4.747  0.6486  0.2197 -0.4880
 6235TIP3    H240121   5.890   3.304   4.754  0.2978  0.3629  1.5736
 6236TIP3   OH240122   5.769   0.550  11.110 -0.0049  0.4452  0.6539
 6236TIP3    H140123   5.723   0.497  11.175 -2.3752  2.5295  0.7394
 6236TIP3    H240124   5.701   0.604  11.070  2.2423  3.0658  0.2120
 6237TIP3   OH240125   1.843   6.587   0.759 -0.7892  0.7030 -0.2009
 6237TIP3    H140126   1.799   6.592   0.844  1.0933 -0.9046  0.9342
 6237TIP3    H240127   1.921   6.641   0.769 -0.0226 -0.3137 -0.5289
 6238TIP3   OH240128   0.860   5.675  14.294 -0.5486 -0.1260  0.1003
 6238TIP3    H140129   0.899   5.606  14.241 -0.8019  0.2567 -0.5939
 6238TIP3    H240130   0.786   5.633  14.338 -1.1152 -0.1308 -0.8539
 6239TIP3   OH240131   4.638   5.361   3.909 -0.5136 -0.0528  0.0889
 6239TIP3    H140132   4.732   5.380   3.913 -0.3876 -0.9806  2.4243
 6239TIP3    H240133   4.633   5.273   3.873 -0.3111 -1.0580  2.4446
 6240TIP3   OH240134   4.992   5.155   1.826  0.2377  0.1173 -0.3009
 6240TIP3    H140135   5.051   5.162   1.751 -0.2475 -0.9958 -0.7927
 6240TIP3    H240136   5.049   5.126   1.898  0.3684 -0.6372 -0.6957
 6241TIP3   OH240137   3.422   5.798  13.220  0.3023  0.3723 -0.3796
 6241TIP3    H140138   3.409   5.704  13.221  0.8154  0.3073  0.3869
 6241TIP3    H240139   3.434   5.820  13.127  1.6247 -0.5209 -0.4301
 6242TIP3   OH240140   5.658   5.218   2.198  0.1806 -0.0538 -0.4070
 6242TIP3    H140141   5.599   5.234   2.125  1.4013  0.4468 -1.2990
 6242TIP3    H240142   5.745   5.233   2.162  0.7512  0.9661  1.3508
 6243TIP3   OH240143   5.596   4.752   0.488  0.3549  0.0607  0.6654
 6243TIP3    H140144   5.659   4.731   0.557  2.7349 -0.3347 -1.5612
 6243TIP3    H240145   5.627   4.834   0.451 -0.6986  0.0847 -0.2004
 6244TIP3   OH240146   0.849   4.329   2.296 -0.5569  0.3502  0.1141
 6244TIP3    H140147   0.853   4.422   2.321  1.0014  0.4978 -0.6270
 6244TIP3    H240148   0.891   4.283   2.368  0.7667  0.4525 -0.5705
 6245TIP3   OH240149   2.362   4.721  12.477 -0.3710  0.0635  0.1956
 6245TIP3    H140150   2.313   4.778  12.536 -0.9481 -0.4134  0.1871
 6245TIP3    H240151   2.300   4.699  12.407  0.3389  0.7090 -0.6474
 6246TIP3   OH240152   6.531   2.828   0.654 -0.1867  0.0118  0.4364
 6246TIP3    H140153   6.456   2.791   0.608  1.2555 -1.1472 -1.0024
 6246TIP3    H240154   6.527   2.789   0.741 -1.2607 -0.0098  0.3857
 6247TIP3   OH240155   4.573   4.113  15.896 -0.2023  0.2557  0.3750
 6247TIP3    H140156   4.605   4.036  15.848 -0.9958  0.5191 -0.5839
 6247TIP3    H240157   4.631   4.184  15.867 -0.4658  0.3434  0.0563
 6248TIP3   OH240158   6.385   1.219  11.586  0.1700  0.0703  0.4836
 6248TIP3    H140159   6.400   1.278  11.512 -2.5451  1.4695  0.9955
 6248TIP3    H240160   6.456   1.239  11.647  1.8631 -0.4034 -1.2513
 6249TIP3   OH240161   4.844   3.367  13.173 -0.2630  0.3881  0.1850
 6249TIP3    H140162   4.867   3.312  13.098  2.6691  0.6938  0.7854
 6249TIP3    H240163   4.844   3.456  13.139  2.3917  0.6601  0.7485
 6250TIP3   OH240164   6.573   2.759  16.431 -0.0855 -0.2757 -0.6841
 6250TIP3    H140165   6.512   2.784  16.500  2.2968 -0.8268  1.6996
 6250TIP3    H240166   6.643   2.823  16.436  0.1907 -0.4134 -2.5294
 6251TIP3   OH240167   4.203   3.128   3.436 -0.3723 -0.7448  0.1342
 6251TIP3    H140168   4.287   3.095   3.466 -0.0713 -0.4447 -0.3736
 6251TIP3    H240169   4.158   3.154   3.517  1.4175  2.3945  0.2230
 6252TIP3   OH240170   5.657   0.263   4.213  0.1056 -0.7553 -0.2227
 6252TIP3    H140171   5.715   0.273   4.137  0.9003  0.8417  0.5640
 6252TIP3    H240172   5.652   0.351   4.250  1.5812 -1.9593  2.9456
 6253TIP3   OH240173   2.181   6.014  14.077  0.1698  0.1070 -0.6063
 6253TIP3    H140174   2.272   6.034  14.053  0.6798 -0.7251  0.5761
 6253TIP3    H240175   2.143   5.977  13.998  1.3673 -1.1251 -0.6363
 6254TIP3   OH240176   3.991   2.682   2.450 -0.3485  0.2213 -0.1438
 6254TIP3    H140177   3.921   2.739   2.480 -0.1458 -0.3342  1.4069
 6254TIP3    H240178   3.955   2.594   2.454  0.8608 -0.2010  1.9730
 6255TIP3   OH240179   6.402   0.020  15.920 -0.1529 -0.1289  0.4727
 6255TIP3    H140180   6.483   0.014  15.970 -0.1679  0.2325  0.5380
 6255TIP3    H240181   6.411   0.100  15.868 -1.2262  0.8748  1.8064
 6256TIP3   OH240182   3.588   3.602  13.535 -0.1340 -0.0349 -0.4515
 6256TIP3    H140183   3.664   3.545  13.527  0.8492  1.1509  0.1612
 6256TIP3    H240184   3.625   3.690  13.540 -1.4003  0.3979  2.1528
 6257TIP3   OH240185   6.360   4.941  14.754  0.4913 -0.8552  0.2602
 6257TIP3    H140186   6.305   4.986  14.818 -1.1869 -0.7177 -1.2343
 6257TIP3    H240187   6.419   5.008  14.721  1.1557 -0.8543  1.4096
 6258TIP3   OH240188   5.362   1.966   3.667  0.0872 -0.3999 -0.1566
 6258TIP3    H140189   5.324   1.997   3.749 -1.0638  1.4308 -1.3381
 6258TIP3    H240190   5.455   1.954   3.686  0.1323  1.5907  0.9938
 6259TIP3   OH240191   1.976   4.295   5.778  0.6302  0.4601  0.3115
 6259TIP3    H140192   1.963   4.296   5.872  1.6691 -1.3505  0.4996
 6259TIP3    H240193   2.009   4.382   5.756 -1.7009  1.6279  1.2814
 6260TIP3   OH240194   2.134   4.575   4.429 -0.1528 -0.0840  0.0415
 6260TIP3    H140195   2.195   4.502   4.416 -2.0687 -1.6441 -0.3678
 6260TIP3    H240196   2.071   4.542   4.492 -1.4228  0.9936 -0.6562
 6261TIP3   OH240197   6.072   2.689  14.707 -0.2293  0.1049 -0.7513
 6261TIP3    H140198   6.058   2.758  14.642  1.0698  0.6646 -0.4586
 6261TIP3    H240199   6.028   2.612  14.671 -0.5626  0.7327 -1.7052
 6262TIP3   OH240200   5.537   2.972   1.758  0.2036  0.1065  0.0061
 6262TIP3    H140201   5.587   2.925   1.825  2.3146  1.6540 -0.4596
 6262TIP3    H240202   5.597   2.978   1.683 -0.2969  2.8818 -0.1970
 6263TIP3   OH240203   0.306   5.082   1.601  0.4366  0.3551  0.4699
 6263TIP3    H140204   0.315   5.142   1.527  2.6144 -2.9587 -2.0983
 6263TIP3    H240205   0.251   5.011   1.568 -0.6834  0.0613  2.8790
 6264TIP3   OH240206   1.172   4.421  11.912 -0.2581 -0.4467  0.4383
 6264TIP3    H140207   1.232   4.347  11.915 -0.4442 -0.5838  0.8674
 6264TIP3    H240208   1.112   4.401  11.840  1.5135  0.7154 -1.3903
 6265TIP3   OH240209   4.210   2.791  15.323  0.1216 -0.0122  0.3388
 6265TIP3    H140210   4.208   2.813  15.416  3.0350 -1.7222  0.8777
 6265TIP3    H240211   4.150   2.718  15.313  0.0477 -0.0335  0.9458
 6266TIP3   OH240212   0.653   2.570   2.549  0.5896  0.3983  1.0241
 6266TIP3    H140213   0.747   2.574   2.566  0.4544  0.3083  1.8027
 6266TIP3    H240214   0.620   2.656   2.576  0.3015  0.0899  1.6643
 6267TIP3   OH240215   6.528   3.639  13.037  0.1729 -0.3694 -0.0165
 6267TIP3    H140216   6.471   3.635  13.114 -0.1251 -2.5287 -0.3041
 6267TIP3    H240217   6.477   3.687  12.971 -0.4245 -0.3638  0.4495
 6268TIP3   OH240218   5.330   2.756   1.736 -0.2915 -0.1839 -0.0469
 6268TIP3    H140219   5.391   2.810   1.786 -0.5726  0.6654 -0.6109
 6268TIP3    H240220   5.297   2.692   1.800  0.3910  0.0092  0.5102
 6269TIP3   OH240221   2.568   0.948   1.293  0.5204  0.0015  0.3449
 6269TIP3    H140222   2.498   0.921   1.233 -0.0231 -1.3096  1.5385
 6269TIP3    H240223   2.636   0.881   1.280  0.7610  0.2084  0.5482
 6270TIP3   OH240224   3.691   6.345  13.975 -0.0277 -0.1984  0.0002
 6270TIP3    H140225   3.666   6.261  14.014  0.8369  0.1953  1.4421
 6270TIP3    H240226   3.787   6.347  13.983  0.0444  0.4810 -0.9549
 6271TIP3   OH240227   6.085   4.209  15.263  0.3518  0.1367 -0.2368
 6271TIP3    H140228   6.173   4.173  15.277  0.4209  0.6503  0.6627
 6271TIP3    H240229   6.091   4.253  15.179  0.8658 -0.1127 -0.3341
 6272TIP3   OH240230   5.315   5.885  12.962 -0.2020 -0.3485 -0.3375
 6272TIP3    H140231   5.267   5.833  12.897 -0.1560  0.6458 -1.1727
 6272TIP3    H240232   5.403   5.892  12.926 -0.1913  0.2460 -0.1876
 6273TIP3   OH240233   1.282   2.661   5.225  0.2866 -0.3252 -0.0823
 6273TIP3    H140234   1.242   2.577   5.248 -1.5655  0.4943 -0.1441
 6273TIP3    H240235   1.251   2.678   5.136  2.7860 -0.8043 -1.0647
 6274TIP3   OH240236   3.229   0.638   4.051  0.0394 -0.0320 -0.0959
 6274TIP3    H140237   3.261   0.621   3.962 -0.3048 -1.2955  0.0152
 6274TIP3    H240238   3.302   0.613   4.108  0.6963  1.9073 -0.0706
 6275TIP3   OH240239   5.880   6.673   5.503  0.1638 -0.9589  0.5075
 6275TIP3    H140240   5.948   6.607   5.494  1.0703  0.1585 -0.9678
 6275TIP3    H240241   5.927   6.755   5.517 -0.9156 -0.4158  1.0028
 6276TIP3   OH240242   4.875   5.588   5.864 -0.0161  0.5646 -0.6699
 6276TIP3    H140243   4.951   5.637   5.833 -0.4406  1.4007 -0.3792
 6276TIP3    H240244   4.892   5.574   5.957  0.6613 -0.8634 -0.9925
 6277TIP3   OH240245   3.673   6.324  17.205  0.8223  1.2855  0.2106
 6277TIP3    H140246   3.664   6.234  17.172 -1.4644  1.6438 -0.2513
 6277TIP3    H240247   3.727   6.316  17.283  1.0931 -0.4280 -0.1398
 6278TIP3   OH240248   3.639   5.501   1.209  0.2747 -0.1554  0.6542
 6278TIP3    H140249   3.714   5.552   1.179  0.6715 -1.0001  0.1903
 6278TIP3    H240250   3.629   5.525   1.301  1.0777  0.0096  0.7003
 6279TIP3   OH240251   0.125   5.239  16.938 -0.0992 -0.2512 -0.0887
 6279TIP3    H140252   0.097   5.151  16.914  0.9728 -0.7155  0.3670
 6279TIP3    H240253   0.047   5.279  16.977 -0.5320 -1.0429 -0.1399
 6280TIP3   OH240254   3.131   6.255   4.205  0.5349 -0.9551  0.0029
 6280TIP3    H140255   3.091   6.169   4.203 -1.2312 -0.1312 -1.3096
 6280TIP3    H240256   3.173   6.264   4.120  1.8802 -1.0303  0.6386
 6281TIP3   OH240257   1.762   3.209   2.858 -0.1357  0.3098  0.3542
 6281TIP3    H140258   1.703   3.159   2.803 -2.6619  1.8248  1.6048
 6281TIP3    H240259   1.833   3.236   2.800 -1.0906 -0.8484 -1.3617
 6282TIP3   OH240260   5.029   0.116  16.140 -0.2162 -0.3331  0.0862
 6282TIP3    H140261   4.942   0.151  16.120 -0.3419 -0.1275  0.9783
 6282TIP3    H240262   5.020   0.076  16.226 -0.2924 -3.3878 -1.2816
 6283TIP3   OH240263   0.508   2.115  15.136  0.0611 -0.4892 -0.3578
 6283TIP3    H140264   0.444   2.119  15.064  0.1777  0.7687 -0.3955
 6283TIP3    H240265   0.462   2.153  15.211  1.0509  1.2977 -0.6198
 6284TIP3   OH240266   4.040   6.194  16.329  0.3966  0.4812 -0.7934
 6284TIP3    H140267   4.007   6.129  16.267 -3.6781  1.5121  0.1023
 6284TIP3    H240268   3.962   6.223  16.376  2.3891  4.4537  0.3038
 6285TIP3   OH240269   1.341   0.982  16.568 -0.3037  0.3499  0.8875
 6285TIP3    H140270   1.344   1.062  16.620  1.4805  1.9941 -1.6145
 6285TIP3    H240271   1.351   1.012  16.478 -2.0788 -2.5001 -0.3372
 6286TIP3   OH240272   5.304   0.519  10.915 -0.3948  0.0527  0.2565
 6286TIP3    H140273   5.261   0.441  10.878  1.5570 -0.0048 -2.0030
 6286TIP3    H240274   5.315   0.578  10.841  1.4578  0.9673  1.2244
 6287TIP3   OH240275   2.050   0.365   4.679 -0.9093  0.2777  0.1532
 6287TIP3    H140276   2.092   0.363   4.593 -1.5954  1.7368 -0.2322
 6287TIP3    H240277   1.958   0.346   4.662 -1.0771  0.7254  0.5405
 6288TIP3   OH240278   4.468   1.060  14.351 -0.7996 -0.0189 -0.3442
 6288TIP3    H140279   4.424   0.991  14.401 -0.7411  0.9043  1.0005
 6288TIP3    H240280   4.437   1.142  14.390  1.5396  0.6680  0.1601
 6289TIP3   OH240281   2.263   1.753  11.502  0.2755  0.1056  0.0689
 6289TIP3    H140282   2.190   1.794  11.454  0.8494 -0.6456 -1.4775
 6289TIP3    H240283   2.220   1.704  11.573 -0.5735  1.3400  0.4325
 6290TIP3   OH240284   6.360   0.633  16.815 -0.4330 -0.2499 -0.8371
 6290TIP3    H140285   6.401   0.547  16.809 -0.9699 -0.5462 -0.3757
 6290TIP3    H240286   6.433   0.695  16.811  0.0090 -0.7477 -0.5830
 6291TIP3   OH240287   5.756   0.989  13.962  0.1155 -0.0081 -0.0531
 6291TIP3    H140288   5.833   1.031  13.924  0.0703  0.0482 -0.0824
 6291TIP3    H240289   5.780   0.897  13.970 -0.2609 -0.2202 -1.2192
 6292TIP3   OH240290   4.779   2.076  16.540 -0.1982  0.3551  0.3988
 6292TIP3    H140291   4.709   2.134  16.571 -1.1714 -0.5282 -0.1470
 6292TIP3    H240292   4.758   2.059  16.448  0.2806 -0.5781  0.4570
 6293TIP3   OH240293   3.605   0.367  13.542 -0.0975 -0.0710  0.6495
 6293TIP3    H140294   3.593   0.324  13.627 -0.7201 -2.2872 -0.5185
 6293TIP3    H240295   3.692   0.339  13.513 -0.4618 -0.4563 -0.0754
 6294TIP3   OH240296   0.291   1.216  16.192  0.4707  0.5086 -0.3288
 6294TIP3    H140297   0.375   1.174  16.174  0.1454  0.0148 -0.7032
 6294TIP3    H240298   0.257   1.240  16.106 -0.3602 -0.4316 -0.2679
 6295TIP3   OH240299   6.604   2.962  11.733  0.3139 -0.3769 -0.0162
 6295TIP3    H140300   6.627   2.900  11.664 -0.8924 -0.2030 -0.5787
 6295TIP3    H240301   6.510   2.951  11.746 -0.1851  2.2062 -1.0396
 6296TIP3   OH240302   4.188   6.134  17.119 -0.0683  0.2885 -0.3264
 6296TIP3    H140303   4.152   6.147  17.031 -3.3210 -0.5542  0.8159
 6296TIP3    H240304   4.254   6.066  17.108 -0.8694 -0.2433 -2.0172
 6297TIP3   OH240305   5.635   3.474   2.086 -0.4600 -0.0857  0.2185
 6297TIP3    H140306   5.713   3.503   2.039  0.1419  0.0628  1.3069
 6297TIP3    H240307   5.590   3.554   2.111 -2.2482 -0.1727 -2.4862
 6298TIP3   OH240308   6.616   3.228  12.329 -0.0694 -0.3851  0.9550
 6298TIP3    H140309   6.661   3.286  12.268 -1.3832  0.2170  0.5264
 6298TIP3    H240310   6.664   3.237  12.412  2.0829 -1.6608 -0.1117
 6299TIP3   OH240311   0.146   2.866  14.169  0.7064  0.6139 -0.0786
 6299TIP3    H140312   0.166   2.844  14.079  1.3922  0.0372  0.2095
 6299TIP3    H240313   0.104   2.952  14.165  1.4171  0.9219 -0.8717
 6300TIP3   OH240314   1.230   5.156   1.221  0.0572 -0.2141  0.1068
 6300TIP3    H140315   1.324   5.152   1.205  0.3268  0.4227  1.4044
 6300TIP3    H240316   1.212   5.083   1.280 -0.2868 -0.4158 -0.2448
 6301TIP3   OH240317   2.420   0.034   4.649  0.2056 -0.1372  0.3438
 6301TIP3    H140318   2.412   0.055   4.556  1.5279 -2.6333 -0.3851
 6301TIP3    H240319   2.407   0.117   4.694 -0.5210  1.0904 -2.0701
 6302TIP3   OH240320   2.667   1.911  15.091 -0.6105 -0.3186 -0.8757
 6302TIP3    H140321   2.611   1.837  15.069 -1.3477  0.0236 -0.2033
 6302TIP3    H240322   2.710   1.885  15.173 -0.9486  0.0236 -0.5842
 6303TIP3   OH240323   1.970   6.622  12.914  0.3980  0.7902  0.6603
 6303TIP3    H140324   2.053   6.602  12.872  0.1021 -1.3263  1.0147
 6303TIP3    H240325   1.931   6.690  12.859  0.6941 -0.8695 -1.6562
 6304TIP3   OH240326   3.038   0.606   2.549  0.0048  0.2979  0.4239
 6304TIP3    H140327   3.053   0.654   2.630  0.5979 -0.5283  0.8128
 6304TIP3    H240328   3.054   0.670   2.479 -1.1081  1.1814  0.9549
 6305TIP3   OH240329   3.855   4.735   1.723 -0.3351 -0.1015  0.0564
 6305TIP3    H140330   3.930   4.716   1.666 -0.4153 -0.8349  0.1867
 6305TIP3    H240331   3.859   4.667   1.790 -0.3213  0.6797  0.8519
 6306TIP3   OH240332   3.583   3.997   2.234  0.7317  0.1339  0.2338
 6306TIP3    H140333   3.524   4.034   2.169  3.0611  1.9513 -0.9179
 6306TIP3    H240334   3.585   4.062   2.304  1.2417 -0.0018  0.3442
 6307TIP3   OH240335   2.748   6.154   5.118  0.0382 -0.2860  0.0313
 6307TIP3    H140336   2.796   6.199   5.049  2.2293 -0.8952  1.1382
 6307TIP3    H240337   2.715   6.074   5.076 -0.3124  0.3004 -0.8152
 6308TIP3   OH240338   1.916   0.090   4.297  0.2591 -0.0712 -0.0867
 6308TIP3    H140339   1.897   0.095   4.391  1.2396  2.1868  0.0165
 6308TIP3    H240340   1.853   0.151   4.257  1.1213  0.4216 -0.6886
 6309TIP3   OH240341   5.140   4.100   4.037 -0.5207  0.2932 -0.2252
 6309TIP3    H140342   5.094   4.171   4.083 -1.9698 -1.4471  1.1018
 6309TIP3    H240343   5.096   4.093   3.953  0.2512  1.5815 -0.7526
 6310TIP3   OH240344   1.190   0.924  13.150  0.1986  0.1021  0.6179
 6310TIP3    H140345   1.259   0.984  13.180 -1.2838  1.8381  0.6631
 6310TIP3    H240346   1.184   0.939  13.056 -0.6057  0.4766  0.7279
 6311TIP3   OH240347   5.541   1.493  12.374  0.1204  0.0908 -0.1529
 6311TIP3    H140348   5.603   1.525  12.440  1.9763  1.5574 -2.5359
 6311TIP3    H240349   5.565   1.401  12.361 -0.5799 -0.3458  1.5465
 6312TIP3   OH240350   3.546   4.221  17.109 -0.5375  0.3192  0.0977
 6312TIP3    H140351   3.497   4.296  17.143 -0.2577  0.6181 -0.1472
 6312TIP3    H240352   3.504   4.200  17.026 -0.1612  0.6856 -0.1965
 6313TIP3   OH240353   0.008   4.222   0.002  0.2055  0.2513  0.1470
 6313TIP3    H140354   0.103   4.237  -0.002  0.0280  1.8793  1.4969
 6313TIP3    H240355  -0.029   4.281  -0.063  0.0609  0.0853  0.0751
 6314TIP3   OH240356   1.460   6.142  14.127  0.2852 -0.5093  0.3616
 6314TIP3    H140357   1.424   6.155  14.215  3.2310 -1.8321  1.8236
 6314TIP3    H240358   1.412   6.067  14.092  1.6405 -2.3573  2.3370
 6315TIP3   OH240359   6.654   4.961  10.959 -0.2252  0.0612 -0.9918
 6315TIP3    H140360   6.685   5.036  10.908  0.8402  0.1177 -0.2818
 6315TIP3    H240361   6.734   4.914  10.984 -0.7924 -0.5229 -0.2369
 6316TIP3   OH240362   6.304   6.271  12.006 -0.8205 -0.2186  0.0482
 6316TIP3    H140363   6.321   6.303  11.917  0.5518 -1.3163 -0.1009
 6316TIP3    H240364   6.303   6.350  12.060  0.4960  0.2711 -0.6197
 6317TIP3   OH240365   1.561   2.972  16.597 -0.2436  0.6063 -1.0380
 6317TIP3    H140366   1.492   2.909  16.574  0.0504  0.2664 -0.9836
 6317TIP3    H240367   1.633   2.951  16.538  0.0271  0.5924 -0.7012
 6318TIP3   OH240368   0.065   3.467   1.157 -1.0681 -0.1294  0.1742
 6318TIP3    H140369  -0.000   3.485   1.089  0.0332 -1.3047 -1.2231
 6318TIP3    H240370   0.066   3.371   1.164  2.3400 -0.3135 -1.7044
 6319TIP3   OH240371   4.455   4.184  11.190  0.0607 -0.8037  0.2385
 6319TIP3    H140372   4.397   4.110  11.208 -3.3577  2.0022  1.4265
 6319TIP3    H240373   4.469   4.225  11.276 -0.5032  1.5647 -0.7555
 6320TIP3   OH240374   3.184   1.307   1.187  0.3603  0.0448  0.1480
 6320TIP3    H140375   3.184   1.380   1.126 -1.3777  0.1659  0.2475
 6320TIP3    H240376   3.147   1.344   1.268 -1.8642 -1.2611 -0.2392
 6321TIP3   OH240377   0.110   0.023   1.051 -1.1348  0.1473  0.3965
 6321TIP3    H140378   0.183  -0.003   1.107 -2.4060 -1.3120  1.3761
 6321TIP3    H240379   0.033  -0.019   1.089 -2.3970  1.1118 -1.0313
 6322TIP3   OH240380   6.088   5.529   2.463  0.2459  0.2219 -0.5294
 6322TIP3    H140381   6.083   5.582   2.383 -2.0826  1.3447  0.3376
 6322TIP3    H240382   6.093   5.439   2.431 -0.8467  0.6468 -1.9343
 6323TIP3   OH240383   1.447   5.740  11.441 -0.0841 -0.1247  0.2530
 6323TIP3    H140384   1.390   5.677  11.397  2.1892 -1.7441 -0.4582
 6323TIP3    H240385   1.502   5.776  11.371  2.5102 -1.5981  1.4643
 6324TIP3   OH240386   2.459   0.665  11.861  0.7002 -0.0796 -0.0030
 6324TIP3    H140387   2.479   0.573  11.843 -0.7444 -0.0426 -1.9261
 6324TIP3    H240388   2.542   0.711  11.849  1.1003 -0.9293 -0.4691
 6325TIP3   OH240389   5.781   3.952  13.480  0.1770 -0.0447  0.1690
 6325TIP3    H140390   5.818   4.025  13.530 -0.9496 -0.1710  1.1986
 6325TIP3    H240391   5.849   3.930  13.416 -0.0777  2.9295 -1.2117
 6326TIP3   OH240392   4.738   2.145  11.533 -0.7050  0.1228 -0.3959
 6326TIP3    H140393   4.712   2.176  11.619  0.6737 -1.8888  0.8010
 6326TIP3    H240394   4.668   2.085  11.506 -0.8044  0.2286 -0.3719
 6327TIP3   OH240395   5.348   3.195  13.610  0.6551  0.1602 -0.3000
 6327TIP3    H140396   5.370   3.105  13.636 -1.9939 -0.6069 -0.4675
 6327TIP3    H240397   5.292   3.227  13.680  2.2779  2.0083  0.1605
 6328TIP3   OH240398   0.160   5.865  13.154 -0.3967 -0.2201  0.4158
 6328TIP3    H140399   0.140   5.842  13.063  0.7329 -1.8915  0.5603
 6328TIP3    H240400   0.255   5.853  13.161 -0.3876  0.5224  1.6490
 6329TIP3   OH240401   0.272   6.210  14.340 -0.0808  0.0129 -0.2873
 6329TIP3    H140402   0.355   6.235  14.380  0.5335  0.9952 -2.0848
 6329TIP3    H240403   0.279   6.116  14.324  0.1035 -0.1721  0.8531
 6330TIP3   OH240404   4.228   3.826  12.615 -0.3841 -0.3181 -0.7197
 6330TIP3    H140405   4.292   3.862  12.554 -1.4621  0.7279 -1.2455
 6330TIP3    H240406   4.167   3.897  12.632 -0.3276 -0.7080  1.3000
 6331TIP3   OH240407   2.210   5.769   0.455 -0.3052  0.5376 -0.1184
 6331TIP3    H140408   2.219   5.809   0.369 -0.8038  1.9278  0.4628
 6331TIP3    H240409   2.288   5.714   0.464 -0.1910  0.4830 -1.3978
 6332TIP3   OH240410   5.218   5.627  10.904  0.4335  0.3420  0.2147
 6332TIP3    H140411   5.227   5.640  10.810  1.8189  2.8376  0.6659
 6332TIP3    H240412   5.126   5.647  10.922  0.1310 -0.2806 -0.6120
 6333TIP3   OH240413   0.325   5.655   2.721  0.2453 -0.1300  0.0255
 6333TIP3    H140414   0.264   5.710   2.770  0.3096 -0.6245  0.6685
 6333TIP3    H240415   0.334   5.576   2.775  1.8817  0.1694  0.1972
 6334TIP3   OH240416   5.902   2.464  15.524 -0.0738 -0.1269 -0.1609
 6334TIP3    H140417   5.933   2.511  15.601 -0.7648  0.3127 -0.1512
 6334TIP3    H240418   5.982   2.430  15.484  0.1344 -2.2564  1.9571
 6335TIP3   OH240419   6.119   2.763   3.902  0.3055  0.3634 -0.5782
 6335TIP3    H140420   6.173   2.842   3.904 -2.1223  2.0953 -1.7809
 6335TIP3    H240421   6.106   2.746   3.808 -0.5190 -0.5654 -0.3026
 6336TIP3   OH240422   3.971   0.200   1.605 -0.0197  0.1354 -0.3269
 6336TIP3    H140423   4.066   0.191   1.598 -0.1922 -0.6679 -1.9701
 6336TIP3    H240424   3.958   0.276   1.661  1.5957  0.9932 -1.0803
 6337TIP3   OH240425   6.015   5.213  10.735  0.3717  0.1344 -0.2114
 6337TIP3    H140426   6.069   5.140  10.704  0.0119 -0.0705 -0.3546
 6337TIP3    H240427   5.937   5.171  10.771  1.8328  0.1841  3.2293
 6338TIP3   OH240428   0.903   6.467   3.992 -0.0744 -0.1991  0.6356
 6338TIP3    H140429   0.917   6.395   3.930  0.4705 -0.4670  1.0597
 6338TIP3    H240430   0.978   6.461   4.051 -0.1785  0.5505  0.8367
 6339TIP3   OH240431   5.531   4.197  11.028  0.1529 -0.4083  0.0464
 6339TIP3    H140432   5.440   4.215  11.004 -0.1572  0.2910  1.6644
 6339TIP3    H240433   5.580   4.207  10.947 -1.2827 -1.3492 -0.9662
 6340TIP3   OH240434   3.768   5.123  17.143 -0.3847 -0.2430  0.1079
 6340TIP3    H140435   3.829   5.078  17.084  2.6389  1.7970  1.5514
 6340TIP3    H240436   3.768   5.071  17.223 -0.9563 -0.5428 -0.0866
 6341TIP3   OH240437   2.081   2.986  15.236  0.5051 -0.3380 -0.5576
 6341TIP3    H140438   2.136   2.972  15.159 -0.4062 -2.3215 -0.8845
 6341TIP3    H240439   2.090   2.905  15.286 -2.8947 -1.1193 -1.1307
 6342TIP3   OH240440   1.167   6.427   4.167  0.1988 -0.4953  0.1020
 6342TIP3    H140441   1.155   6.337   4.198  0.1061 -0.3567  0.4684
 6342TIP3    H240442   1.144   6.481   4.242  0.0619 -0.1597 -0.1818
 6343TIP3   OH240443   2.377   3.046  17.136  0.5390 -0.2071 -0.3854
 6343TIP3    H140444   2.436   2.992  17.188 -0.2782  0.0913  0.8763
 6343TIP3    H240445   2.305   2.988  17.113  1.3963 -0.6453 -2.1431
 6344TIP3   OH240446   3.831   4.862  17.009 -0.0406 -0.1350 -0.0473
 6344TIP3    H140447   3.922   4.876  16.981  0.1244 -0.0488  0.5230
 6344TIP3    H240448   3.831   4.775  17.048 -0.0077  0.2107  0.7413
 6345TIP3   OH240449   3.046   0.902  12.045  0.8003 -0.1507 -0.4776
 6345TIP3    H140450   3.047   0.986  11.999 -0.1544 -0.0510 -0.3368
 6345TIP3    H240451   2.957   0.897  12.082  1.3822 -0.4480  0.9241
 6346TIP3   OH240452   2.245   0.494   5.683 -0.4910  0.8434 -0.7519
 6346TIP3    H140453   2.185   0.558   5.644 -1.7293 -0.3711 -0.8751
 6346TIP3    H240454   2.249   0.423   5.619  0.2640  0.4438 -0.2701
 6347TIP3   OH240455   6.228   5.540  14.881  0.4604 -0.2891  0.1999
 6347TIP3    H140456   6.243   5.530  14.787  0.8178  0.9179  0.1257
 6347TIP3    H240457   6.298   5.488  14.922  0.2279 -0.9173 -0.1918
 6348TIP3   OH240458   1.387   4.872   4.323  0.0306 -0.3371  0.2643
 6348TIP3    H140459   1.435   4.790   4.321 -0.3043 -0.5112 -1.6172
 6348TIP3    H240460   1.397   4.908   4.235 -1.3110  0.7596  0.5407
 6349TIP3   OH240461   0.465   2.838   4.151 -0.2963  0.1463  0.2790
 6349TIP3    H140462   0.497   2.922   4.183 -1.5307 -0.3373  2.8981
 6349TIP3    H240463   0.381   2.858   4.109 -0.3001  0.2970  0.3598
 6350TIP3   OH240464   1.852   5.340  15.770  0.3777  0.0260  0.1099
 6350TIP3    H140465   1.882   5.428  15.793  2.1095 -0.2811 -0.9013
 6350TIP3    H240466   1.768   5.331  15.814  0.3699  2.0464  0.5324
 6351TIP3   OH240467   3.615   6.731  16.110  0.3520 -0.0533  0.0544
 6351TIP3    H140468   3.699   6.721  16.154  0.0968  0.6425  0.7244
 6351TIP3    H240469   3.607   6.654  16.055  0.3937 -1.2849  1.7319
 6352TIP3   OH240470   0.946   3.154   3.024 -0.0896  0.2828 -0.3597
 6352TIP3    H140471   0.907   3.078   3.069 -0.8213  1.4908  1.1120
 6352TIP3    H240472   1.028   3.169   3.071  0.2773  0.1028 -0.9536
 6353TIP3   OH240473   0.803   6.032  12.318 -0.1264  0.1105  0.4658
 6353TIP3    H140474   0.876   6.052  12.260  0.0380  1.7292  1.2198
 6353TIP3    H240475   0.837   6.045  12.406 -0.8625 -0.7024  0.8841
 6354TIP3   OH240476   2.521   6.007  10.901  0.5114 -0.2091 -0.3434
 6354TIP3    H140477   2.593   5.952  10.871 -0.6893 -2.5859  0.9454
 6354TIP3    H240478   2.560   6.064  10.967  1.6017 -0.0873 -1.0825
 6355TIP3   OH240479   0.022   0.345   3.954  0.3054 -0.3654  0.2516
 6355TIP3    H140480   0.090   0.359   4.020 -0.2343  0.1328  0.7127
 6355TIP3    H240481   0.064   0.369   3.871  0.3838  0.9557  0.6525
 6356TIP3   OH240482   6.518   0.714   5.808  0.1841 -0.0361 -0.4341
 6356TIP3    H140483   6.447   0.731   5.869 -0.5761  1.5542 -1.7220
 6356TIP3    H240484   6.477   0.667   5.735  1.1043 -2.0262  0.2805
 6357TIP3   OH240485   1.317   4.903   2.559 -0.7405  0.4980  0.2709
 6357TIP3    H140486   1.360   4.987   2.573  0.5997  0.2703 -2.2527
 6357TIP3    H240487   1.275   4.911   2.473 -3.2133 -0.3563  1.3390
 6358TIP3   OH240488   0.641   1.954   3.641 -1.1395  0.5114 -0.2040
 6358TIP3    H140489   0.590   1.922   3.566 -1.2598  0.2888 -0.0268
 6358TIP3    H240490   0.588   1.932   3.717 -1.5289  1.7129 -0.1135
 6359TIP3   OH240491   0.211   5.757   5.558  0.3623 -0.1556  0.5285
 6359TIP3    H140492   0.304   5.766   5.580  0.8887 -0.9050 -1.3029
 6359TIP3    H240493   0.206   5.672   5.513 -0.8770  0.7730 -1.0986
 6360TIP3   OH240494   3.806   2.029  14.758  0.0722 -0.3673 -0.3405
 6360TIP3    H140495   3.788   1.949  14.709 -0.5220  0.1045 -0.8943
 6360TIP3    H240496   3.858   2.083  14.698 -0.0178 -0.1008 -0.1815
 6361TIP3   OH240497   0.028   4.428   1.964  0.4509  0.0202 -0.1404
 6361TIP3    H140498   0.025   4.516   1.926  0.6506 -0.3780 -1.0913
 6361TIP3    H240499   0.120   4.401   1.952  0.3690 -0.3477  0.0701
 6362TIP3   OH240500   6.515   0.066   0.757  0.4104  0.3035 -0.2145
 6362TIP3    H140501   6.576   0.033   0.823  0.8195 -0.5265 -0.9940
 6362TIP3    H240502   6.560   0.142   0.719  1.3597 -0.8309 -1.3971
 6363TIP3   OH240503   3.674   2.817   5.107 -0.0247  0.1627  0.1219
 6363TIP3    H140504   3.718   2.733   5.094  0.1191  0.5813 -2.1482
 6363TIP3    H240505   3.607   2.798   5.174  0.2755 -1.6533 -0.0733
 6364TIP3   OH240506   2.555   5.679   6.318  0.1481  0.4226 -0.9112
 6364TIP3    H140507   2.587   5.629   6.243 -0.3312 -0.9417 -0.2319
 6364TIP3    H240508   2.535   5.765   6.283 -1.3742 -0.6073 -2.6445
 6365TIP3   OH240509   0.233   6.785   3.960 -0.0609 -0.0477  0.2578
 6365TIP3    H140510   0.232   6.707   4.016  0.6852 -1.9340 -2.2900
 6365TIP3    H240511   0.152   6.831   3.982  0.2727 -0.6734  2.9692
 6366TIP3   OH240512   3.990   3.196   3.645 -0.1908  0.0037  0.1159
 6366TIP3    H140513   4.009   3.136   3.717  0.8786  1.2624  0.9010
 6366TIP3    H240514   4.023   3.281   3.675  0.8681  0.4236 -2.1073
 6367TIP3   OH240515   3.131   5.772   5.743  0.3126 -0.4022  0.3946
 6367TIP3    H140516   3.097   5.683   5.733 -0.5247 -0.0504  0.0518
 6367TIP3    H240517   3.077   5.825   5.684  0.7901  0.3375  0.6143
 6368TIP3   OH240518   5.672   3.818  11.275 -0.1538 -0.3334  0.2659
 6368TIP3    H140519   5.759   3.832  11.236 -0.3295  1.4726  0.4844
 6368TIP3    H240520   5.621   3.893  11.246 -0.9689 -0.1762  2.0819
 6369TIP3   OH240521   4.264   4.391   1.287 -0.6787 -0.0140  0.4667
 6369TIP3    H140522   4.269   4.301   1.255 -0.8653  0.0212  0.3343
 6369TIP3    H240523   4.177   4.421   1.260  0.1886  0.9236 -1.3721
 6370TIP3   OH240524   4.935   2.149   4.782 -0.2058 -0.3435  0.0449
 6370TIP3    H140525   4.885   2.074   4.814 -0.4191 -0.4645 -0.5670
 6370TIP3    H240526   4.872   2.222   4.783 -0.3884 -0.4898 -0.6993
 6371TIP3   OH240527   5.758   3.065   0.637  0.1445  0.6181 -0.2637
 6371TIP3    H140528   5.848   3.091   0.617 -0.3844  2.3939 -0.4047
 6371TIP3    H240529   5.759   3.045   0.731  0.4608  1.6843 -0.0292
 6372TIP3   OH240530   4.733   5.034  14.133  0.1014 -0.1692 -0.0916
 6372TIP3    H140531   4.746   5.102  14.199  1.0847 -0.9475  0.5202
 6372TIP3    H240532   4.819   4.993  14.123 -0.3368 -0.9007 -0.9275
 6373TIP3   OH240533   0.970   1.747  12.321  0.3662  0.3580  0.2351
 6373TIP3    H140534   1.016   1.825  12.293  1.6990 -0.5759 -0.2193
 6373TIP3    H240535   0.965   1.754  12.416  1.9821  0.1959  0.3456
 6374TIP3   OH240536   0.667   2.450   5.211  0.1716  0.4691  0.5955
 6374TIP3    H140537   0.686   2.536   5.174  2.2440 -0.0116  0.4681
 6374TIP3    H240538   0.581   2.427   5.177 -0.1640  2.2536  0.2020
 6375TIP3   OH240539   0.381   1.146   1.226 -0.1102  0.1769  0.3268
 6375TIP3    H140540   0.327   1.103   1.292  0.8132 -1.0757  0.3001
 6375TIP3    H240541   0.351   1.109   1.143  0.3615 -0.0639  0.2607
 6376TIP3   OH240542   4.805   5.002  11.610  0.1284  0.7173 -0.1374
 6376TIP3    H140543   4.873   4.941  11.639  1.0917  0.9696 -1.8400
 6376TIP3    H240544   4.781   4.973  11.522 -1.4300  1.0992  0.1418
 6377TIP3   OH240545   4.723   1.606  16.377 -0.4016  0.4295  0.0456
 6377TIP3    H140546   4.643   1.640  16.337  0.0562 -0.5801 -1.8115
 6377TIP3    H240547   4.793   1.659  16.339 -0.0684  0.2493  0.4101
 6378TIP3   OH240548   3.795   5.784  14.961 -0.3021  0.2666  0.2423
 6378TIP3    H140549   3.834   5.703  14.927  0.6734  0.3899  1.0332
 6378TIP3    H240550   3.763   5.830  14.884 -1.4085 -1.1527 -0.1615
 6379TIP3   OH240551   0.116   2.806   2.064  0.5868  0.5479 -0.3462
 6379TIP3    H140552   0.070   2.723   2.073  0.3152  0.7318 -0.0264
 6379TIP3    H240553   0.067   2.867   2.119  1.9587  0.4467  1.0351
 6380TIP3   OH240554   4.364   3.960  11.698  0.2010 -0.7810  0.5565
 6380TIP3    H140555   4.274   3.990  11.684  1.1240  1.0012 -1.8678
 6380TIP3    H240556   4.379   3.896  11.628  1.7089  0.9637 -0.7348
 6381TIP3   OH240557   1.754   0.886   3.064  0.1192  0.0674 -0.5946
 6381TIP3    H140558   1.837   0.886   3.016  0.8699  1.0169  0.6734
 6381TIP3    H240559   1.780   0.881   3.156 -1.2980 -1.7300 -0.2669
 6382TIP3   OH240560   3.035   5.530   5.713 -0.2040 -0.0498 -0.6880
 6382TIP3    H140561   3.079   5.500   5.634 -0.6777 -0.8635 -0.6456
 6382TIP3    H240562   3.017   5.451   5.763 -0.0245  0.4457  0.1798
 6383TIP3   OH240563   2.326   0.836  13.835 -0.1886  0.3084  0.1108
 6383TIP3    H140564   2.286   0.846  13.921 -0.1886  0.2950  0.1135
 6383TIP3    H240565   2.362   0.747  13.837  0.6590  0.6577  0.4503
 6384TIP3   OH240566   0.326   2.047  16.789  0.2443  0.2116 -0.0691
 6384TIP3    H140567   0.318   1.957  16.822  2.1147 -0.3111 -0.9362
 6384TIP3    H240568   0.277   2.100  16.851  0.8552 -1.1661  1.6461
 6385TIP3   OH240569   0.652   4.642  12.356 -0.1924 -0.2201  0.0149
 6385TIP3    H140570   0.734   4.677  12.320 -0.3465  1.3622  1.1948
 6385TIP3    H240571   0.670   4.630  12.449 -0.5640 -2.0965 -0.1348
 6386TIP3   OH240572   0.736   5.361  13.869 -0.2572 -0.3388 -0.0523
 6386TIP3    H140573   0.730   5.268  13.848  3.3275 -0.7774  0.6260
 6386TIP3    H240574   0.693   5.369  13.954 -0.8604 -1.2930 -0.2552
 6387TIP3   OH240575   1.971   6.683   6.191  0.1219  0.3912  0.5195
 6387TIP3    H140576   1.970   6.746   6.264  0.7245  0.4572  0.4754
 6387TIP3    H240577   2.042   6.622   6.214 -0.2690 -0.1007  0.4180
 6388TIP3   OH240578   1.557   5.485   2.588  0.2168 -0.0211  0.0520
 6388TIP3    H140579   1.606   5.405   2.610 -1.5012 -1.4249 -1.0527
 6388TIP3    H240580   1.478   5.453   2.546 -0.7573  2.2849  0.0766
 6389TIP3   OH240581   0.466   4.837  12.628 -0.1232 -0.1148  0.6451
 6389TIP3    H140582   0.538   4.881  12.583 -1.1618  1.6907  0.7137
 6389TIP3    H240583   0.396   4.833  12.563  0.7415 -3.9265 -0.1946
 6390TIP3   OH240584   2.941   2.923   3.092 -0.5458 -0.1904  0.1151
 6390TIP3    H140585   2.882   2.996   3.111 -0.8727  0.1360 -1.9790
 6390TIP3    H240586   2.936   2.913   2.997  0.2044 -2.3555  0.2768
 6391TIP3   OH240587   2.352   1.514  14.475 -0.2550  0.3337 -0.5681
 6391TIP3    H140588   2.435   1.536  14.434  0.2620  0.3932  0.4957
 6391TIP3    H240589   2.309   1.598  14.491  0.6046  0.4656  1.1822
 6392TIP3   OH240590   5.092   6.459   0.948  0.1974 -0.3321  0.2802
 6392TIP3    H140591   5.010   6.414   0.971  0.2635 -0.1644  0.8549
 6392TIP3    H240592   5.088   6.541   0.997  1.3947 -0.9772  1.4717
 6393TIP3   OH240593   0.473   2.875   5.155 -0.7244  0.0897 -0.4210
 6393TIP3    H140594   0.378   2.886   5.149 -0.9650 -1.5362  0.2296
 6393TIP3    H240595   0.495   2.902   5.244 -0.4612  1.2033 -0.8166
 6394TIP3   OH240596   5.510   5.017   4.027  0.1288  0.0497  0.1012
 6394TIP3    H140597   5.569   4.951   4.062 -0.3410 -0.1500  0.5334
 6394TIP3    H240598   5.487   5.072   4.102 -0.0196  0.2871 -0.1143
 6395TIP3   OH240599   5.909   2.162  16.149  0.3797  0.1184 -0.3571
 6395TIP3    H140600   5.843   2.096  16.171 -0.7866  1.7300  1.1927
 6395TIP3    H240601   5.877   2.201  16.068 -0.8660  1.2376  0.6565
 6396TIP3   OH240602   4.628   5.174   0.594  0.3481 -0.1258 -0.1860
 6396TIP3    H140603   4.585   5.145   0.513  1.3610 -0.8373 -0.4794
 6396TIP3    H240604   4.664   5.093   0.631  1.1754  0.4223  0.2058
 6397TIP3   OH240605   1.688   0.580   5.339  0.1888  0.4228  0.0315
 6397TIP3    H140606   1.693   0.675   5.336  1.2958  0.3521 -0.5865
 6397TIP3    H240607   1.694   0.559   5.433 -1.5505  1.0188  0.2938
 6398TIP3   OH240608   3.233   6.195   5.884  0.0195 -0.0587  0.0161
 6398TIP3    H140609   3.227   6.287   5.911  1.0098 -0.2310  0.8881
 6398TIP3    H240610   3.314   6.190   5.833  0.0668 -0.4771  0.1262
 6399TIP3   OH240611   4.743   6.465  13.477  0.0595  0.2106 -0.0956
 6399TIP3    H140612   4.784   6.505  13.401  0.3423  1.2805  0.6077
 6399TIP3    H240613   4.689   6.535  13.514  0.1173 -0.2261  0.8208
 6400TIP3   OH240614   5.666   2.414   3.254  0.3499 -0.0128 -0.2947
 6400TIP3    H140615   5.653   2.463   3.172 -0.5417 -1.3719 -0.9868
 6400TIP3    H240616   5.747   2.450   3.291  0.9616  0.3768 -1.9589
 6401TIP3   OH240617   2.106   5.037   4.247 -0.0062  0.0016 -0.1086
 6401TIP3    H140618   2.033   5.096   4.229  0.5611  0.6312 -0.3569
 6401TIP3    H240619   2.078   4.953   4.209 -0.9178  0.0350  0.4648
 6402TIP3   OH240620   5.568   6.466  12.157  0.0652  0.3794 -0.5526
 6402TIP3    H140621   5.625   6.488  12.084  0.8840  1.0130  0.2623
 6402TIP3    H240622   5.539   6.550  12.192  1.4429  0.1626  1.2037
 6403TIP3   OH240623   0.473   3.571   4.119 -0.0784  0.3083 -0.1083
 6403TIP3    H140624   0.448   3.661   4.096  0.9201  0.6659  0.1821
 6403TIP3    H240625   0.567   3.567   4.099  0.0695 -0.4016  0.7214
 6404TIP3   OH240626   6.138   1.509   1.981  0.2403  0.2690  0.2500
 6404TIP3    H140627   6.103   1.483   1.896  0.7355 -0.4086  0.2492
 6404TIP3    H240628   6.097   1.594   1.999 -0.6214 -0.0488 -0.2085
 6405TIP3   OH240629   2.060   2.148   2.357 -0.3803  0.1883 -0.3597
 6405TIP3    H140630   2.122   2.093   2.310  0.3854  0.6409  0.1192
 6405TIP3    H240631   2.015   2.198   2.288 -0.3060 -0.2287 -0.7107
 6406TIP3   OH240632   4.231   2.296   2.676  0.1201 -0.2709  0.1411
 6406TIP3    H140633   4.230   2.378   2.627  0.2680  1.3414  2.7759
 6406TIP3    H240634   4.195   2.232   2.615 -0.3010  1.7929 -1.8542
 6407TIP3   OH240635   4.738   2.333   4.730 -0.7474  0.4003  0.1922
 6407TIP3    H140636   4.739   2.417   4.776 -0.6759  0.0923  0.7630
 6407TIP3    H240637   4.653   2.295   4.752 -1.4426  1.0239 -1.3572
 6408TIP3   OH240638   0.170   3.547   1.718 -0.2964 -0.0398 -0.5579
 6408TIP3    H140639   0.266   3.541   1.717 -0.1176  2.5655 -0.9116
 6408TIP3    H240640   0.149   3.580   1.805 -0.9751 -1.5960 -0.1069
 6409TIP3   OH240641   5.624   4.706  15.835  0.4116 -0.1609 -0.3527
 6409TIP3    H140642   5.600   4.714  15.742  0.8655  0.4674 -0.4209
 6409TIP3    H240643   5.665   4.620  15.841 -0.6500 -0.6871 -0.4991
 6410TIP3   OH240644   3.603   0.750  14.518 -0.1863 -0.1506 -0.4418
 6410TIP3    H140645   3.576   0.837  14.491  0.7256  0.7226  1.3581
 6410TIP3    H240646   3.550   0.690  14.465 -0.6638  1.4847 -1.8305
 6411TIP3   OH240647   1.292   3.494   2.831  0.0593  0.2075 -0.2832
 6411TIP3    H140648   1.306   3.585   2.858  0.8672 -0.2802  0.9718
 6411TIP3    H240649   1.287   3.445   2.913  1.7030 -1.1752 -0.9881
 6412TIP3   OH240650   2.054   1.117  12.379  0.0794  0.1780 -0.2224
 6412TIP3    H140651   2.043   1.128  12.473 -0.6306  1.0823 -0.3957
 6412TIP3    H240652   1.968   1.091  12.347  0.3298 -0.1797 -0.6105
 6413TIP3   OH240653   6.308   4.468  16.098 -0.5263 -0.2077  0.8252
 6413TIP3    H140654   6.230   4.520  16.080 -1.2447 -1.1059  1.3233
 6413TIP3    H240655   6.283   4.410  16.169  0.2335 -1.3006  0.2209
 6414TIP3   OH240656   2.419   5.137   0.906  0.4873  0.0511 -0.6652
 6414TIP3    H140657   2.325   5.148   0.918  0.3064 -1.6369 -0.4246
 6414TIP3    H240658   2.434   5.162   0.815 -0.3359 -0.5580 -0.9764
 6415TIP3   OH240659   5.960   3.715   0.992 -0.7624  0.3128  0.4739
 6415TIP3    H140660   6.027   3.769   1.032 -0.4215 -0.9485  1.6251
 6415TIP3    H240661   5.926   3.768   0.920  2.4407  0.4208 -1.0297
 6416TIP3   OH240662   1.950   4.820   4.149  0.1340  0.0036 -0.1046
 6416TIP3    H140663   1.939   4.748   4.087 -0.1733 -0.8079  0.8825
 6416TIP3    H240664   1.866   4.866   4.150 -0.0218 -0.2874  0.0885
 6417TIP3   OH240665   6.208   3.702  15.466  0.6561 -0.1253 -0.3228
 6417TIP3    H140666   6.140   3.638  15.448  0.2821  0.3837 -0.7188
 6417TIP3    H240667   6.193   3.729  15.556 -0.2103  0.6493 -0.6999
 6418TIP3   OH240668   6.290   2.143  11.956 -0.2836  0.1281  0.2631
 6418TIP3    H140669   6.273   2.106  12.042  0.9395 -0.2308  0.3579
 6418TIP3    H240670   6.368   2.197  11.968  0.4219 -0.6274 -0.8076
 6419TIP3   OH240671   4.180   4.142   3.050 -0.1664  0.4292  0.5332
 6419TIP3    H140672   4.250   4.208   3.054 -0.4488  0.7209  0.6062
 6419TIP3    H240673   4.113   4.174   3.109 -1.3878  1.3462 -1.2995
 6420TIP3   OH240674   1.268   5.002  14.721 -0.2340 -0.5777 -0.1401
 6420TIP3    H140675   1.338   4.971  14.779  0.9480 -0.3325 -1.4084
 6420TIP3    H240676   1.202   5.038  14.781  1.8428  1.4800  0.9932
 6421TIP3   OH240677   3.915   1.960   2.491 -0.3903 -0.4008  0.8925
 6421TIP3    H140678   3.926   1.888   2.552  0.7109 -0.7322  0.3173
 6421TIP3    H240679   3.894   1.918   2.407 -1.2659  0.0145  0.9008
 6422TIP3   OH240680   1.637   1.142   5.689  0.1714 -0.1666 -0.3031
 6422TIP3    H140681   1.602   1.059   5.657 -0.0693 -0.1628 -0.0541
 6422TIP3    H240682   1.617   1.205   5.620 -2.3598  0.3069  0.8293
 6423TIP3   OH240683   3.070   0.467   5.013 -0.4823  0.2645 -0.4464
 6423TIP3    H140684   3.138   0.528   5.042  0.5437 -0.5076 -1.1913
 6423TIP3    H240685   2.992   0.493   5.062  0.3493  1.1541  0.4296
 6424TIP3   OH240686   2.243   4.550  14.743 -0.2743  0.0116  0.3005
 6424TIP3    H140687   2.192   4.578  14.819 -0.8035 -1.2804  0.4428
 6424TIP3    H240688   2.298   4.479  14.777 -0.5535 -0.6080 -0.5218
 6425TIP3   OH240689   1.220   3.778   4.456  0.4956  0.2428 -0.2007
 6425TIP3    H140690   1.229   3.796   4.362  0.6887  2.3635  0.2136
 6425TIP3    H240691   1.291   3.828   4.497  0.4914 -0.7698  1.0884
 6426TIP3   OH240692   1.843   5.661  13.539 -0.1353 -0.3181  0.1493
 6426TIP3    H140693   1.825   5.683  13.448  0.2872  0.5707  0.2782
 6426TIP3    H240694   1.833   5.566  13.543  1.6992 -0.5958 -1.2443
 6427TIP3   OH240695   1.288   0.556  15.232  0.0292 -0.3973 -0.2761
 6427TIP3    H140696   1.370   0.559  15.184  1.2524 -2.3798  1.5704
 6427TIP3    H240697   1.237   0.487  15.189 -0.6257  0.7060 -1.3046
 6428TIP3   OH240698   0.586   5.159   5.230 -0.5035 -0.3092 -0.1947
 6428TIP3    H140699   0.637   5.142   5.309 -0.4453 -1.0160 -0.3818
 6428TIP3    H240700   0.499   5.182   5.262  0.0219  1.2862  0.1458
 6429TIP3   OH240701   1.185   0.049  14.869  0.2720 -0.1418 -0.7067
 6429TIP3    H140702   1.106   0.091  14.904  1.0412 -0.6917  1.7944
 6429TIP3    H240703   1.195  -0.031  14.921  2.5141 -0.0449 -0.9452
 6430TIP3   OH240704   0.894   6.373   2.087 -0.7157  0.1369 -0.0949
 6430TIP3    H140705   0.894   6.452   2.140  2.2240  0.2274 -0.1147
 6430TIP3    H240706   0.923   6.403   2.000  1.9942 -1.1247  0.3083
 6431TIP3   OH240707   4.901   3.715  15.596 -0.1488 -0.2275  0.2880
 6431TIP3    H140708   4.952   3.730  15.675 -2.0624 -0.3727  1.5648
 6431TIP3    H240709   4.820   3.764  15.610  0.4398  1.7204 -2.5816
 6432TIP3   OH240710   1.244   5.118  12.017  0.4015 -0.1792  0.2123
 6432TIP3    H140711   1.240   5.134  12.112  2.6768  0.8251  0.1556
 6432TIP3    H240712   1.296   5.038  12.008 -1.1527 -1.1785 -0.1367
 6433TIP3   OH240713   3.567   4.151  14.050  0.0829  0.0226  0.0347
 6433TIP3    H140714   3.515   4.114  14.121 -0.1812 -0.8239 -0.5867
 6433TIP3    H240715   3.616   4.077  14.015  0.4764  0.4998 -0.4359
 6434TIP3   OH240716   3.938   0.755   3.530  0.5144  0.3313  0.8297
 6434TIP3    H140717   3.936   0.728   3.438  1.4641  0.8951  0.6394
 6434TIP3    H240718   3.967   0.677   3.578 -0.5493 -0.1379  0.7224
 6435TIP3   OH240719   5.719   2.642  15.430  0.8933  0.2579  0.1132
 6435TIP3    H140720   5.771   2.562  15.434 -0.0718 -0.4179 -0.5706
 6435TIP3    H240721   5.638   2.616  15.386  0.5451  1.6035 -0.0692
 6436TIP3   OH240722   3.342   6.008   2.383 -0.1746 -0.2891  0.2027
 6436TIP3    H140723   3.345   6.098   2.348  0.2292 -0.4722 -0.2365
 6436TIP3    H240724   3.252   5.980   2.369 -0.5574  0.4132  1.2529
 6437TIP3   OH240725   5.322   2.264  12.745  0.2070 -0.5058 -0.3492
 6437TIP3    H140726   5.380   2.222  12.680  1.2699  1.9569 -1.0708
 6437TIP3    H240727   5.261   2.316  12.692  0.0882  0.2931  0.5658
 6438TIP3   OH240728   3.221   0.978  13.581 -0.5154  0.1799 -0.7305
 6438TIP3    H140729   3.130   0.960  13.560  0.1333 -1.1098 -2.6537
 6438TIP3    H240730   3.271   0.928  13.515  1.5246  2.7559 -1.2148
 6439TIP3   OH240731   3.294   2.463   6.019 -0.2587  0.2317  0.0973
 6439TIP3    H140732   3.372   2.502   6.058 -1.1419  0.6493  1.4794
 6439TIP3    H240733   3.251   2.417   6.092 -0.8671 -0.6836 -0.8262
 6440TIP3   OH240734   6.489   6.268  15.272 -0.1287 -0.2440 -0.1664
 6440TIP3    H140735   6.402   6.287  15.238  0.0835  0.6269 -0.2324
 6440TIP3    H240736   6.480   6.277  15.367  0.6496  3.1309 -0.3597
 6441TIP3   OH240737   6.098   4.876   1.880  0.4916 -0.0818  0.2698
 6441TIP3    H140738   6.163   4.941   1.853  1.6976 -1.9928 -1.6339
 6441TIP3    H240739   6.148   4.795   1.889 -1.7768 -1.9084 -2.4938
 6442TIP3   OH240740   2.534   6.481  13.625  0.5802  0.0241 -0.0478
 6442TIP3    H140741   2.480   6.469  13.546  0.0144  1.3058  0.1325
 6442TIP3    H240742   2.511   6.407  13.681  0.0266 -0.1880 -0.5447
 6443TIP3   OH240743   2.196   4.836   1.060  0.3551  0.1632 -0.1291
 6443TIP3    H140744   2.196   4.859   1.152 -0.0235  0.8094 -0.2850
 6443TIP3    H240745   2.272   4.778   1.049  0.3032 -0.0422  0.6108
 6444TIP3   OH240746   0.665   4.637  16.532  0.0558  0.3002 -0.2383
 6444TIP3    H140747   0.587   4.685  16.506  0.3235  0.8097 -0.1098
 6444TIP3    H240748   0.718   4.631  16.453  0.1362  0.4413 -0.1963
 6445TIP3   OH240749   4.496   6.602   3.619  0.6107  0.0286  0.0223
 6445TIP3    H140750   4.484   6.539   3.547  1.0378 -1.2854  1.0755
 6445TIP3    H240751   4.522   6.548   3.694  0.8276  1.4564  0.9971
 6446TIP3   OH240752   1.341   2.637  14.796  0.3694  0.3358  0.7348
 6446TIP3    H140753   1.324   2.699  14.725  1.8620  0.7080  0.6863
 6446TIP3    H240754   1.257   2.629  14.841 -0.3480  0.8250 -0.4967
 6447TIP3   OH240755   5.696   0.003   0.517 -0.1776  0.0444  0.2892
 6447TIP3    H140756   5.785  -0.030   0.524 -0.3417 -0.1636  1.3944
 6447TIP3    H240757   5.704   0.082   0.463  1.0252  1.3568  2.3369
 6448TIP3   OH240758   5.199   5.360   6.331  0.3873 -0.0100  0.2761
 6448TIP3    H140759   5.120   5.395   6.373  0.0464  0.7963 -1.0148
 6448TIP3    H240760   5.265   5.361   6.400 -0.1312  1.4211  0.7770
 6449TIP3   OH240761   1.477   1.527   5.707  0.3519 -0.3749 -0.4916
 6449TIP3    H140762   1.493   1.493   5.795  0.5148  0.9249 -0.0057
 6449TIP3    H240763   1.457   1.620   5.721 -0.8045 -0.4270 -1.7176
 6450TIP3   OH240764   5.898   2.607  15.219 -0.2671 -0.3499  0.1837
 6450TIP3    H140765   5.846   2.666  15.273  0.8680  0.4287  0.4236
 6450TIP3    H240766   5.950   2.557  15.282 -1.0855 -1.4901 -0.0280
 6451TIP3   OH240767   5.114   0.151   4.721  0.0636  0.4408 -0.5861
 6451TIP3    H140768   5.165   0.083   4.765 -0.1825  0.9772  0.5447
 6451TIP3    H240769   5.057   0.103   4.660 -0.2171 -0.3744  0.3059
 6452TIP3   OH240770   6.772   6.348  12.285 -0.5717 -0.2324  0.0292
 6452TIP3    H140771   6.728   6.338  12.370  0.3688 -1.7272  0.3524
 6452TIP3    H240772   6.763   6.441  12.265 -1.3854  0.0144  1.4512
 6453TIP3   OH240773   4.066   1.953   1.200 -0.0519  0.0349  0.0834
 6453TIP3    H140774   4.116   1.904   1.134 -1.0558 -1.8530  0.6810
 6453TIP3    H240775   4.113   2.036   1.210  2.3971 -1.3094 -0.0474
 6454TIP3   OH240776   5.919   5.034   5.706 -0.1607 -0.3776 -0.4996
 6454TIP3    H140777   5.951   5.000   5.622  0.4016 -0.1791 -0.3635
 6454TIP3    H240778   5.988   5.092   5.736  0.0945 -1.2466  0.6087
 6455TIP3   OH240779   0.028   3.992  16.233 -0.5739 -0.9280 -0.3211
 6455TIP3    H140780  -0.031   3.927  16.194 -1.1856 -0.3224 -0.4248
 6455TIP3    H240781   0.051   4.050  16.161  0.7954 -1.6205 -0.4513
 6456TIP3   OH240782   3.610   1.615   4.256  1.0061  0.0634  0.8347
 6456TIP3    H140783   3.594   1.535   4.206  2.2530  1.4553 -1.8711
 6456TIP3    H240784   3.672   1.588   4.324  1.5004 -1.2577 -0.1147
 6457TIP3   OH240785   1.215   1.624  16.241 -0.3717  0.0370  0.7857
 6457TIP3    H140786   1.249   1.579  16.164  0.1220  1.7407 -0.0103
 6457TIP3    H240787   1.198   1.713  16.211  0.2533  0.8432  2.7494
 6458TIP3   OH240788   5.177   2.067   3.914  0.0856 -0.3579 -0.1967
 6458TIP3    H140789   5.260   2.111   3.932 -0.4952 -0.4251  2.9815
 6458TIP3    H240790   5.120   2.135   3.879  0.9915  0.0272 -0.9437
 6459TIP3   OH240791   5.702   3.359   4.198 -0.4145  0.6221  0.1568
 6459TIP3    H140792   5.639   3.408   4.250 -0.2897 -1.0738  1.9899
 6459TIP3    H240793   5.750   3.425   4.149 -1.1416  2.2091  1.5500
 6460TIP3   OH240794   6.465   0.996   3.728  0.1676 -0.0959 -1.2700
 6460TIP3    H140795   6.499   1.010   3.639 -1.0062  0.3121 -1.6556
 6460TIP3    H240796   6.388   1.053   3.733 -1.9518 -2.8739 -1.2601
 6461TIP3   OH240797   1.109   6.694   3.873 -0.1837  0.3291 -0.2787
 6461TIP3    H140798   1.141   6.693   3.963  0.0744  0.6554 -0.3672
 6461TIP3    H240799   1.184   6.667   3.820 -0.5129 -0.4975 -0.3439
 6462TIP3   OH240800   0.305   0.966  15.402  0.1631  0.0168  0.0557
 6462TIP3    H140801   0.372   0.906  15.369 -0.1926  0.6682 -1.9552
 6462TIP3    H240802   0.305   1.037  15.338 -0.9440  1.0653  1.2279
 6463TIP3   OH240803   4.319   0.398  14.256 -0.2568 -0.0656  0.0442
 6463TIP3    H140804   4.266   0.390  14.335  0.7039  0.8393  0.8027
 6463TIP3    H240805   4.278   0.339  14.193 -1.3067 -0.4487  1.0695
 6464TIP3   OH240806   2.181   0.913  13.614  0.0291  0.4316 -0.5579
 6464TIP3    H140807   2.094   0.941  13.644 -0.3850  0.6014 -1.8848
 6464TIP3    H240808   2.232   0.903  13.694 -1.9123 -2.0708  0.4441
 6465TIP3   OH240809   0.693   1.302  12.164 -0.1511 -0.2208 -0.6459
 6465TIP3    H140810   0.629   1.274  12.229  0.7875 -1.9097 -0.4159
 6465TIP3    H240811   0.721   1.389  12.193 -2.7784  0.8171 -1.1085
 6466TIP3   OH240812   5.454   1.099   1.018  0.5526 -0.3405 -0.1522
 6466TIP3    H140813   5.371   1.054   1.032 -0.4270  0.8933 -1.7791
 6466TIP3    H240814   5.498   1.049   0.949  0.1947  0.2077 -0.7916
 6467TIP3   OH240815   3.865   3.317  15.390 -0.6389 -0.2290  1.0666
 6467TIP3    H140816   3.927   3.287  15.457 -1.4150 -0.5044  1.6643
 6467TIP3    H240817   3.799   3.248  15.387 -1.4533  0.5465  1.1341
 6468TIP3   OH240818   1.369   3.158  17.046 -0.2022  0.1434 -0.9000
 6468TIP3    H140819   1.376   3.238  17.099 -0.5140 -0.4615  0.0521
 6468TIP3    H240820   1.277   3.155  17.021 -0.2827 -0.1687 -0.5555
 6469TIP3   OH240821   4.101   6.635   4.484  0.5577  0.4238 -0.8342
 6469TIP3    H140822   4.029   6.650   4.545  1.7878  0.5348  0.6211
 6469TIP3    H240823   4.117   6.721   4.444  0.1804  0.4970 -0.8309
 6470TIP3   OH240824   5.765   3.394   1.149 -0.5008 -0.4070  0.2753
 6470TIP3    H140825   5.757   3.467   1.211  0.0105 -0.4747  0.4213
 6470TIP3    H240826   5.807   3.431   1.072  0.6285 -0.7619  0.7170
 6471TIP3   OH240827   0.736   4.592  14.824 -0.3920  0.2490  0.4515
 6471TIP3    H140828   0.754   4.510  14.870  0.4069  0.7393  1.0306
 6471TIP3    H240829   0.820   4.616  14.785 -0.4388  1.1443  0.8726
 6472TIP3   OH240830   0.424   2.686  14.074  0.2966 -0.6127 -0.1770
 6472TIP3    H140831   0.480   2.646  14.007 -1.9549 -2.8947 -0.7605
 6472TIP3    H240832   0.391   2.766  14.034  3.2411  0.8706  0.2400
 6473TIP3   OH240833   1.569   6.217   5.657  0.1821 -1.1578 -0.2066
 6473TIP3    H140834   1.648   6.166   5.640 -0.1748 -1.5492 -0.7113
 6473TIP3    H240835   1.506   6.153   5.689 -0.5126 -1.1697 -1.5898
 6474TIP3   OH240836   5.544   2.172  15.988 -0.8905 -0.5405  0.0674
 6474TIP3    H140837   5.596   2.098  16.021 -1.2541 -0.9776 -0.3222
 6474TIP3    H240838   5.542   2.160  15.893  0.2932  0.8185 -0.1432
 6475TIP3   OH240839   5.165   0.337  16.027 -0.2307  0.2930 -0.4505
 6475TIP3    H140840   5.221   0.295  16.093 -0.8344  0.1039 -0.0500
 6475TIP3    H240841   5.077   0.304  16.046 -0.3898  0.1279 -1.4378
 6476TIP3   OH240842   2.011   3.428   1.689  0.1112  0.3044  0.1383
 6476TIP3    H140843   2.004   3.337   1.718  0.6849  0.4476  0.7490
 6476TIP3    H240844   2.093   3.459   1.728  0.2538  0.8845 -0.6072
 6477TIP3   OH240845   2.409   4.682   1.127  0.0219  0.0263 -0.3206
 6477TIP3    H140846   2.475   4.741   1.163 -0.2129  0.0570  0.0605
 6477TIP3    H240847   2.458   4.623   1.069  0.2954  0.4205 -0.4872
 6478TIP3   OH240848   1.675   3.737  12.202  0.1929  0.5209 -0.0334
 6478TIP3    H140849   1.633   3.814  12.240 -1.8387 -0.5374 -0.0389
 6478TIP3    H240850   1.603   3.676  12.185  1.6062 -0.8819 -1.2188
 6479TIP3   OH240851   4.708   6.348  15.670 -0.7868 -0.3788  0.3652
 6479TIP3    H140852   4.739   6.313  15.753 -1.0562  0.6434  0.9143
 6479TIP3    H240853   4.627   6.301  15.652 -0.7408 -0.5844  0.6993
 6480TIP3   OH240854   3.976   5.317   0.088 -0.0967 -0.2766  0.1329
 6480TIP3    H140855   3.934   5.263   0.022 -0.5099  0.8253 -0.5125
 6480TIP3    H240856   4.027   5.255   0.140  0.6161 -1.0925 -1.4954
 6481TIP3   OH240857   3.269   2.847  16.551  0.2592 -0.2829  0.6101
 6481TIP3    H140858   3.194   2.870  16.495 -0.0115 -0.3245  0.9550
 6481TIP3    H240859   3.337   2.820  16.489  0.0542 -0.0569  0.2833
 6482TIP3   OH240860   4.565   0.429  15.177 -0.0143 -0.0421  0.0774
 6482TIP3    H140861   4.540   0.466  15.262  1.0180 -0.3813  0.5353
 6482TIP3    H240862   4.623   0.356  15.199  1.0872  0.5111 -0.9449
 6483TIP3   OH240863   3.290   0.112  11.680 -0.2796  0.0167  0.2481
 6483TIP3    H140864   3.218   0.051  11.664  0.3218 -0.6147 -0.0595
 6483TIP3    H240865   3.296   0.117  11.776  0.6230 -1.5393  0.2737
 6484TIP3   OH240866   4.657   2.955   3.244  0.3372 -0.4297 -0.0398
 6484TIP3    H140867   4.636   2.921   3.157 -0.6025  0.1412 -0.0437
 6484TIP3    H240868   4.711   2.886   3.284 -0.8991 -1.6013 -0.3296
 6485TIP3   OH240869   2.960   5.899  13.703  0.0326 -0.3314 -0.0037
 6485TIP3    H140870   3.030   5.853  13.657  1.7814  0.6295  1.6735
 6485TIP3    H240871   2.910   5.830  13.747  2.3538 -0.7136  2.1067
 6486TIP3   OH240872   4.426   3.911  14.103 -0.0890 -0.7589  0.0246
 6486TIP3    H140873   4.332   3.900  14.116 -0.0469 -0.1834  0.9048
 6486TIP3    H240874   4.463   3.826  14.127 -0.3576 -0.8901 -0.0200
 6487TIP3   OH240875   5.676   3.870  12.978 -0.6235 -0.0932 -0.3427
 6487TIP3    H140876   5.662   3.949  12.927 -1.3168 -0.2915 -0.4587
 6487TIP3    H240877   5.627   3.884  13.059 -1.5027 -0.7900 -0.7553
 6488TIP3   OH240878   2.438   6.185   0.243  0.3275 -0.3162 -1.0062
 6488TIP3    H140879   2.497   6.212   0.313  1.2359 -0.3972 -1.7285
 6488TIP3    H240880   2.357   6.234   0.259  0.7216  0.0907 -0.2381
 6489TIP3   OH240881   4.827   3.330  10.580  0.1521  0.3366  0.0024
 6489TIP3    H140882   4.887   3.257  10.593 -0.0837  0.3104  0.9547
 6489TIP3    H240883   4.869   3.404  10.624 -0.3597  0.3884  0.4198
 6490TIP3   OH240884   2.977   2.328   1.554 -0.2050  0.8653  0.1125
 6490TIP3    H140885   3.010   2.382   1.482 -1.2595 -1.1329 -1.9291
 6490TIP3    H240886   2.887   2.309   1.530  0.0607 -1.5637  0.9214
 6491TIP3   OH240887   4.467   4.732   3.968  0.6325  0.6490 -0.1145
 6491TIP3    H140888   4.524   4.657   3.950 -0.3847  0.0062 -0.7366
 6491TIP3    H240889   4.378   4.696   3.962  0.0854  2.1527 -1.6832
 6492TIP3   OH240890   1.108   3.396   0.938  0.3627 -0.0794  0.1378
 6492TIP3    H140891   1.191   3.352   0.922  0.4119  0.1127 -0.1492
 6492TIP3    H240892   1.071   3.352   1.014  1.2070  0.5048  0.8916
 6493TIP3   OH240893   5.003   5.422   5.337  0.0368  0.8671 -0.8366
 6493TIP3    H140894   5.052   5.481   5.280  0.8077 -1.0065 -2.1715
 6493TIP3    H240895   4.988   5.473   5.417  0.7881  2.8019 -1.8856
 6494TIP3   OH240896   4.972   4.714  13.893 -0.6766  0.5250  0.6652
 6494TIP3    H140897   4.898   4.712  13.954  0.9478 -1.9631  2.6926
 6494TIP3    H240898   4.959   4.637  13.837 -0.7400  1.2984 -0.3909
 6495TIP3   OH240899   5.289   2.772  14.397 -0.2839  0.5178  0.1580
 6495TIP3    H140900   5.375   2.786  14.437 -0.3051 -0.0241  0.3977
 6495TIP3    H240901   5.293   2.821  14.315 -0.0667  1.2502  0.5894
 6496TIP3   OH240902   2.043   4.495  15.843 -1.0556 -0.1805 -0.0185
 6496TIP3    H140903   2.004   4.530  15.763 -0.1648 -0.0886 -0.4211
 6496TIP3    H240904   2.120   4.550  15.858 -0.3717 -1.1352  0.0571
 6497TIP3   OH240905   2.116   2.671  13.818  0.0274  0.2944  0.1063
 6497TIP3    H140906   2.053   2.638  13.754  0.0508 -1.1628  0.8151
 6497TIP3    H240907   2.139   2.758  13.786 -0.0835 -0.3401 -1.7777
 6498TIP3   OH240908   6.232   3.120   3.136  0.1506 -0.3669  0.2049
 6498TIP3    H140909   6.191   3.196   3.178  2.0014  0.7895 -0.0612
 6498TIP3    H240910   6.282   3.156   3.064  1.2293 -1.8314  0.1933
 6499TIP3   OH240911   5.022   2.312   4.452  0.3853 -0.2772 -0.3971
 6499TIP3    H140912   4.957   2.279   4.514 -0.0225 -0.1319 -0.7483
 6499TIP3    H240913   5.099   2.258   4.467  0.7812  0.7172  1.2697
 6500TIP3   OH240914   6.131   2.252   4.183  0.3486  0.2554  0.0057
 6500TIP3    H140915   6.130   2.194   4.106  2.1099 -0.0826  0.2328
 6500TIP3    H240916   6.212   2.303   4.174 -0.9336  2.3706  0.0553
 6501TIP3   OH240917   3.049   0.058  11.473 -0.2334 -0.3376 -0.0454
 6501TIP3    H140918   3.126   0.111  11.453  0.3892 -1.6343 -1.2262
 6501TIP3    H240919   3.010   0.039  11.388 -0.2975 -1.9657  0.3240
 6502TIP3   OH240920   5.655   6.193  13.461 -0.0559 -0.3318  0.0812
 6502TIP3    H140921   5.625   6.148  13.540 -0.2894 -0.4560 -0.0774
 6502TIP3    H240922   5.585   6.179  13.398  0.4077 -0.7653 -0.3434
 6503TIP3   OH240923   1.273   0.248  12.338 -0.3110  0.0259  0.6259
 6503TIP3    H140924   1.345   0.294  12.295 -0.3860 -0.5824 -0.1462
 6503TIP3    H240925   1.246   0.308  12.408  1.2996  0.0326  1.2849
 6504TIP3   OH240926   2.225   0.392  13.503  0.2570 -0.0421 -0.1925
 6504TIP3    H140927   2.162   0.336  13.549 -0.5928  0.0895 -1.1742
 6504TIP3    H240928   2.199   0.481  13.526  0.9707 -0.0213  0.5438
 6505TIP3   OH240929   3.720   3.960   5.477 -0.4430  0.0261 -0.2175
 6505TIP3    H140930   3.807   3.997   5.487 -0.5927  0.7578 -1.5116
 6505TIP3    H240931   3.714   3.893   5.544  0.2466  1.5888  1.4387
 6506TIP3   OH240932   1.619   4.488  11.790  0.0640  0.3143  0.3991
 6506TIP3    H140933   1.553   4.522  11.850  1.4273  1.1397  1.4960
 6506TIP3    H240934   1.577   4.415  11.745 -1.5925  0.8700  1.0191
 6507TIP3   OH240935   0.534   3.110   3.540 -0.1713  0.1494 -0.0120
 6507TIP3    H140936   0.467   3.115   3.608  1.2232  1.1098  1.3422
 6507TIP3    H240937   0.570   3.022   3.547 -0.7553 -0.1070 -0.2213
 6508TIP3   OH240938   1.634   2.025   5.607 -0.0620  1.1298 -0.6684
 6508TIP3    H140939   1.609   2.116   5.596 -0.9278  1.2815  2.2834
 6508TIP3    H240940   1.716   2.028   5.656 -0.1281  0.3457 -0.4946
 6509TIP3   OH240941   1.513   1.964  14.345  0.4580  0.4332  0.2335
 6509TIP3    H140942   1.440   2.010  14.386  0.4807 -0.2870  1.1186
 6509TIP3    H240943   1.580   1.960  14.415  1.1956  0.7659 -0.4443
 6510TIP3   OH240944   3.829   2.573   3.588 -0.1031  0.8440 -0.3646
 6510TIP3    H140945   3.776   2.506   3.544 -0.0847 -0.8447  2.1185
 6510TIP3    H240946   3.816   2.652   3.535 -1.2116 -0.7681 -2.5624
 6511TIP3   OH240947   6.563   6.336  16.157  1.0450  0.0005  0.3702
 6511TIP3    H140948   6.499   6.299  16.217  0.4510 -1.2291 -0.9908
 6511TIP3    H240949   6.541   6.429  16.153 -0.3696 -0.3284  0.2804
 6512TIP3   OH240950   0.050   0.231   5.075 -0.3723 -0.4980  0.2924
 6512TIP3    H140951  -0.021   0.172   5.046 -1.7711  0.9436  0.6971
 6512TIP3    H240952   0.121   0.172   5.100 -1.0771 -1.9556 -1.0348
 6513TIP3   OH240953   2.388   5.235  16.516  0.4903  0.0415 -0.7760
 6513TIP3    H140954   2.325   5.265  16.581  0.3994 -0.2985 -0.7007
 6513TIP3    H240955   2.369   5.287  16.438 -0.9225 -1.1225 -1.2408
 6514TIP3   OH240956   3.496   2.413  14.272 -0.3362  0.3038 -0.4416
 6514TIP3    H140957   3.505   2.319  14.255 -2.0992  0.6312 -3.5809
 6514TIP3    H240958   3.402   2.430  14.265 -0.1784  2.1033  1.3458
 6515TIP3   OH240959   5.879   4.501  15.687  0.0550 -0.4077  0.1593
 6515TIP3    H140960   5.808   4.525  15.628 -0.0560 -1.6827 -0.2352
 6515TIP3    H240961   5.846   4.423  15.733  1.4403 -1.3736 -0.4714
 6516TIP3   OH240962   0.195   1.455  13.623 -0.0392 -0.0397  0.1722
 6516TIP3    H140963   0.109   1.479  13.659  0.8825 -0.1512  2.5436
 6516TIP3    H240964   0.180   1.373  13.577 -1.2451  0.0083  0.4673
 6517TIP3   OH240965   5.465   4.261  12.430  0.4822 -0.1688 -0.1399
 6517TIP3    H140966   5.403   4.332  12.413  0.0148 -1.1678 -3.0040
 6517TIP3    H240967   5.492   4.273  12.521 -2.8670  1.1045  0.7581
 6518TIP3   OH240968   3.359   4.961   5.063  0.3921  0.2788 -0.1646
 6518TIP3    H140969   3.449   4.985   5.084  0.4596 -0.1485  0.0337
 6518TIP3    H240970   3.353   4.868   5.085 -0.2866  0.4668  0.4721
 6519TIP3   OH240971   2.808   5.736   4.186 -0.3309 -0.2203  0.0479
 6519TIP3    H140972   2.716   5.710   4.187 -0.5319  0.4779 -0.1509
 6519TIP3    H240973   2.818   5.788   4.106 -0.0450  0.6730  0.6442
 6520TIP3   OH240974   3.146   2.488  13.918 -0.0995 -0.2881  0.1099
 6520TIP3    H140975   3.211   2.529  13.975 -0.0908 -1.1406  0.7233
 6520TIP3    H240976   3.113   2.560  13.864  0.5259  0.3633  0.5792
 6521TIP3   OH240977   3.774   4.520  16.150 -0.8492  0.1145 -0.6188
 6521TIP3    H140978   3.832   4.596  16.154 -2.1514  1.1249 -0.3203
 6521TIP3    H240979   3.744   4.508  16.240  1.3867 -2.4159 -0.1467
 6522TIP3   OH240980   5.296   0.484  13.806  0.1230  0.2835 -0.2130
 6522TIP3    H140981   5.325   0.404  13.763 -0.6483  0.8774 -1.8706
 6522TIP3    H240982   5.223   0.515  13.753 -2.1372  0.0050  2.6141
 6523TIP3   OH240983   5.004   4.594  15.420  0.0801 -0.6711 -0.2571
 6523TIP3    H140984   5.084   4.630  15.382  0.1804 -0.9819 -0.3427
 6523TIP3    H240985   4.934   4.627  15.364 -0.1495  2.1238  1.6050
 6524TIP3   OH240986   1.343   5.204  14.534 -0.6382 -0.6245  0.0817
 6524TIP3    H140987   1.309   5.118  14.558  1.4037 -1.7298 -0.8746
 6524TIP3    H240988   1.372   5.242  14.617 -0.8618 -1.1572  0.4079
 6525TIP3   OH240989   0.624   1.144  16.833 -0.0415  0.0215 -0.4279
 6525TIP3    H140990   0.594   1.232  16.857  0.1942  0.1711 -0.6711
 6525TIP3    H240991   0.716   1.157  16.806  0.0857 -0.3482 -0.1678
 6526TIP3   OH240992   6.082   6.377  11.684  0.2428 -0.0788  0.1063
 6526TIP3    H140993   6.055   6.301  11.736  0.6106 -1.1742 -1.2824
 6526TIP3    H240994   6.175   6.387  11.701  0.4311 -0.6357 -0.5827
 6527TIP3   OH240995   4.597   6.066  15.069 -0.3604  0.3574 -0.1042
 6527TIP3    H140996   4.533   6.051  15.138  0.1251 -0.8523  0.1092
 6527TIP3    H240997   4.553   6.125  15.007 -2.1881 -1.4778 -0.6266
 6528TIP3   OH240998   3.076   6.312   1.189 -0.0565 -0.0719 -0.1309
 6528TIP3    H140999   3.040   6.401   1.181 -0.6948 -0.3104  0.0992
 6528TIP3    H241000   3.009   6.263   1.236  0.8951 -0.3265  0.9723
 6529TIP3   OH241001   5.691   6.765   5.339 -0.0527 -0.4875  0.0096
 6529TIP3    H141002   5.734   6.834   5.288  1.7952 -1.2780  0.4391
 6529TIP3    H241003   5.753   6.745   5.409 -2.6503  0.7499  2.7858
 6530TIP3   OH241004   4.668   6.295   0.173 -0.3186  0.3820 -0.7850
 6530TIP3    H141005   4.699   6.306   0.083  2.5145 -2.3883 -0.2293
 6530TIP3    H241006   4.584   6.249   0.163  0.0006  0.0453 -2.0151
 6531TIP3   OH241007   4.025   2.864   2.014  0.3196 -0.1668  0.0485
 6531TIP3    H141008   3.953   2.927   2.007  0.6875  0.0891 -1.5492
 6531TIP3    H241009   4.067   2.865   1.928  2.0919 -0.5057  0.8861
 6532TIP3   OH241010   0.696   2.158  15.774  0.1084  0.1931  0.3844
 6532TIP3    H141011   0.734   2.148  15.861 -0.4024 -1.9286  0.4002
 6532TIP3    H241012   0.707   2.072  15.733  0.8331  1.3129 -1.8631
 6533TIP3   OH241013   6.749   2.725  12.542 -0.3249 -0.9096 -0.2105
 6533TIP3    H141014   6.714   2.767  12.620 -2.6100 -1.2371 -1.0298
 6533TIP3    H241015   6.750   2.794  12.476  0.1444 -1.0256 -0.3298
 6534TIP3   OH241016   3.644   6.719  13.137  0.2936  0.7968  0.1603
 6534TIP3    H141017   3.578   6.688  13.198 -0.1244  0.5801 -0.4030
 6534TIP3    H241018   3.687   6.640  13.105 -1.0372  0.7402 -1.5702
 6535TIP3   OH241019   4.547   5.695   2.064 -0.5746  0.3411 -0.5709
 6535TIP3    H141020   4.477   5.721   2.124 -0.3772  0.0870 -0.2277
 6535TIP3    H241021   4.625   5.688   2.120 -0.6114 -0.9184 -0.6605
 6536TIP3   OH241022   0.325   5.584   4.061  0.3302  0.7017 -0.1689
 6536TIP3    H141023   0.239   5.582   4.102 -0.5060 -0.0728 -1.9359
 6536TIP3    H241024   0.345   5.677   4.051 -0.1104  0.8856  0.5975
 6537TIP3   OH241025   4.470   4.874   4.223  0.0129  0.4202  0.0932
 6537TIP3    H141026   4.558   4.841   4.239  0.3616  1.3324  0.0770
 6537TIP3    H241027   4.423   4.800   4.184  2.1879  1.4289 -4.7534
 6538TIP3   OH241028   0.927   0.639  15.012 -0.1699  0.0312 -0.3411
 6538TIP3    H141029   0.969   0.719  15.044 -0.5347  0.2098 -0.3058
 6538TIP3    H241030   0.921   0.650  14.917 -0.0377 -0.0413 -0.3573
 6539TIP3   OH241031   1.938   3.107   5.373  0.4257 -0.8268  0.1443
 6539TIP3    H141032   1.986   3.035   5.415 -0.7637 -1.2775  0.7681
 6539TIP3    H241033   1.874   3.134   5.439 -0.6791 -0.7543 -0.9483
 6540TIP3   OH241034   6.000   0.105  10.448 -0.1771  0.4171  0.6094
 6540TIP3    H141035   6.019   0.036  10.512 -2.0219 -1.0396 -0.3542
 6540TIP3    H241036   6.083   0.120  10.404  0.0043 -2.0812  0.0158
 6541TIP3   OH241037   4.674   2.521  16.049  0.2157 -0.0872 -0.0716
 6541TIP3    H141038   4.656   2.429  16.027 -0.5451 -0.0093  0.2184
 6541TIP3    H241039   4.619   2.539  16.125  2.1546 -0.0864  1.3907
 6542TIP3   OH241040   3.979   4.827   1.987 -0.1915  0.7533  0.2875
 6542TIP3    H141041   3.999   4.878   2.065 -1.2868  2.6365 -0.6222
 6542TIP3    H241042   4.064   4.801   1.953  0.3841  1.7631  0.9179
 6543TIP3   OH241043   4.580   5.029  13.198  0.1479  0.0825 -0.2554
 6543TIP3    H141044   4.631   4.964  13.148  0.2485  0.5531 -0.7652
 6543TIP3    H241045   4.516   5.063  13.136 -0.8252 -0.5264  0.3939
 6544TIP3   OH241046   5.868   3.882   4.129  0.4585  0.2757  0.0704
 6544TIP3    H141047   5.922   3.855   4.055 -0.6663  0.1474 -0.7038
 6544TIP3    H241048   5.800   3.938   4.091 -1.3385 -1.4282  0.7027
 6545TIP3   OH241049   4.208   4.764  14.341 -0.3745  0.3035 -0.2681
 6545TIP3    H141050   4.282   4.761  14.281 -0.6460 -1.9283 -0.5341
 6545TIP3    H241051   4.131   4.774  14.285 -0.4112  0.9993 -0.0997
 6546TIP3   OH241052   3.006   6.287  12.721 -0.0230  0.5324 -0.5342
 6546TIP3    H141053   3.034   6.374  12.691  0.2839  0.2457 -1.0897
 6546TIP3    H241054   2.917   6.301  12.754  0.2558  1.1772 -0.0470
 6547TIP3   OH241055   4.045   0.925  16.031  0.1403  0.0654 -0.2569
 6547TIP3    H141056   4.056   0.878  16.113 -1.5847 -2.3498 -1.3428
 6547TIP3    H241057   4.115   0.892  15.975  0.6801  0.9436 -0.1108
 6548TIP3   OH241058   2.421   3.089  13.776  0.2287  0.4118 -0.2347
 6548TIP3    H141059   2.366   3.161  13.744  1.1020  0.3592 -1.9093
 6548TIP3    H241060   2.394   3.014  13.723  0.1167 -0.2258  0.7206
 6549TIP3   OH241061   6.564   1.830  14.148 -0.3731 -0.3447 -0.1897
 6549TIP3    H141062   6.564   1.737  14.168 -0.4501 -0.2924  0.0561
 6549TIP3    H241063   6.535   1.872  14.229 -1.0022 -0.1523 -0.5116
 6550TIP3   OH241064   6.087   3.052   1.654 -0.2570  0.5988 -0.3447
 6550TIP3    H141065   6.137   3.083   1.579 -0.5999 -0.3576 -0.9778
 6550TIP3    H241066   6.104   2.958   1.657 -2.1302  0.2246 -0.6799
 6551TIP3   OH241067   5.020   3.409  12.764 -0.3218 -0.3328  0.1923
 6551TIP3    H141068   5.107   3.405  12.725 -1.0361 -0.2687 -1.4503
 6551TIP3    H241069   5.019   3.492  12.812  0.1813  0.1624 -0.6455
 6552TIP3   OH241070   0.803   1.561  15.844 -0.1713  0.4556  0.1442
 6552TIP3    H141071   0.734   1.498  15.864  2.4141 -2.2434  0.9087
 6552TIP3    H241072   0.776   1.601  15.761 -1.5086 -2.1971 -0.7533
 6553TIP3   OH241073   6.421   6.669   4.211  0.6308 -0.3139  0.1126
 6553TIP3    H141074   6.455   6.603   4.151  0.7797  1.4021 -1.7407
 6553TIP3    H241075   6.496   6.727   4.227  0.0140  0.4675  0.2152
 6554TIP3   OH241076   5.609   1.140  11.554 -0.6885  0.9958  0.3696
 6554TIP3    H141077   5.675   1.185  11.608  1.3347 -0.8659 -0.4570
 6554TIP3    H241078   5.626   1.172  11.465 -1.8213  1.5259  0.3374
 6555TIP3   OH241079   1.468   6.562   1.235  0.3619 -0.1411 -0.2560
 6555TIP3    H141080   1.444   6.597   1.149 -2.7415  0.6595  0.8664
 6555TIP3    H241081   1.462   6.467   1.225 -0.9556 -0.0240 -0.6812
 6556TIP3   OH241082   0.788   2.821  13.486  0.6445 -0.1500  0.2116
 6556TIP3    H141083   0.728   2.759  13.528 -0.7759  1.0016 -0.0540
 6556TIP3    H241084   0.751   2.834  13.398  0.7249  1.2986  0.3673
 6557TIP3   OH241085   0.826   4.174   1.788 -0.5405 -0.8387 -0.3240
 6557TIP3    H141086   0.782   4.251   1.751  2.2015  0.7610 -0.4037
 6557TIP3    H241087   0.796   4.101   1.734 -2.6695  0.2734 -0.6776
 6558TIP3   OH241088   6.271   0.862  12.186 -0.7219  0.2625 -0.3804
 6558TIP3    H141089   6.306   0.905  12.107 -0.0609  1.0496  0.3281
 6558TIP3    H241090   6.192   0.817  12.156  0.0198 -0.2037 -1.6854
 6559TIP3   OH241091   1.868   1.007  14.026  0.1009 -0.1376 -0.2593
 6559TIP3    H141092   1.885   1.088  14.074  0.4514 -1.1427  1.3514
 6559TIP3    H241093   1.917   1.016  13.944  0.4250  1.1138  0.0747
 6560TIP3   OH241094   4.732   0.432   6.050 -0.0195 -0.4670  0.7672
 6560TIP3    H141095   4.646   0.404   6.082 -2.2973  1.8182 -2.8704
 6560TIP3    H241096   4.738   0.524   6.077  0.3593 -0.0623 -0.6499
 6561TIP3   OH241097   2.512   3.142  12.615 -0.5134 -0.2343 -0.5343
 6561TIP3    H141098   2.450   3.206  12.580 -0.1058  0.0518 -0.7398
 6561TIP3    H241099   2.457   3.078  12.661 -0.7499  1.5658  1.7584
 6562TIP3   OH241100   4.320   0.975   4.767 -0.0523 -0.2826  0.3507
 6562TIP3    H141101   4.403   0.949   4.726  0.0096 -0.1160  0.3703
 6562TIP3    H241102   4.271   0.893   4.776  0.7381 -0.6110  1.7539
 6563TIP3   OH241103   4.845   1.392  17.019  0.2356 -0.0309  0.1513
 6563TIP3    H141104   4.769   1.423  16.969 -1.9966 -0.4414  3.1114
 6563TIP3    H241105   4.890   1.333  16.959 -0.2614  2.2867 -2.6069
 6564TIP3   OH241106   2.136   4.382  12.849 -0.2007 -0.0960 -0.1512
 6564TIP3    H141107   2.160   4.327  12.923 -0.0044  2.7940  2.0270
 6564TIP3    H241108   2.041   4.370  12.840 -0.2117 -0.5218  0.5048
 6565TIP3   OH241109   4.416   1.970  14.803  0.0329  0.6523 -0.5637
 6565TIP3    H141110   4.389   2.025  14.876  1.2836  0.1446  0.2894
 6565TIP3    H241111   4.506   1.998  14.784 -0.1186  0.4475 -1.5872
 6566TIP3   OH241112   1.588   6.380  13.918 -0.0143  0.0759  0.3185
 6566TIP3    H141113   1.616   6.404  14.006  1.6410 -1.0748  0.1267
 6566TIP3    H241114   1.515   6.319  13.932  0.0743  0.1015  0.8947
 6567TIP3   OH241115   3.797   4.359   3.383 -0.4592  0.2311 -0.0173
 6567TIP3    H141116   3.805   4.385   3.475  0.0063 -1.9706  0.5899
 6567TIP3    H241117   3.855   4.418   3.337  1.6583 -0.5888  1.5129
 6568TIP3   OH241118   2.090   3.381  16.904 -0.0100 -0.3996  0.4300
 6568TIP3    H141119   2.087   3.472  16.931  0.1507 -0.4735  0.7029
 6568TIP3    H241120   2.003   3.346  16.924 -1.2721  0.6051 -2.9248
 6569TIP3   OH241121   4.701   1.048   1.383 -0.7415  0.8731  0.1381
 6569TIP3    H141122   4.768   1.062   1.316 -1.3293  0.4515 -0.5373
 6569TIP3    H241123   4.637   0.991   1.341 -1.4152  1.1006  0.8582
 6570TIP3   OH241124   0.213   6.055   2.422 -0.8798 -0.6754  0.2038
 6570TIP3    H141125   0.303   6.080   2.443 -0.3238 -2.6545  0.2033
 6570TIP3    H241126   0.160   6.111   2.479  0.3153  0.6551  0.0632
 6571TIP3   OH241127   2.774   2.886  16.983 -0.0559  0.2047  0.0623
 6571TIP3    H141128   2.742   2.964  16.937  0.5442  0.7836  0.6128
 6571TIP3    H241129   2.863   2.874  16.950  0.7127  1.1595  1.7142
 6572TIP3   OH241130   1.521   1.092  11.525 -0.2835  0.5684 -0.1069
 6572TIP3    H141131   1.522   1.185  11.506 -0.9865  0.3766 -1.0841
 6572TIP3    H241132   1.576   1.053  11.457  0.3903  0.3171  0.5734
 6573TIP3   OH241133   5.274   4.015   2.909 -0.1571  0.0753 -0.3732
 6573TIP3    H141134   5.217   4.072   2.961 -1.3661 -1.3076 -0.1283
 6573TIP3    H241135   5.322   4.075   2.852 -1.8017  1.3100 -0.5152
 6574TIP3   OH241136   3.531   6.406  16.990 -0.0780 -0.3146 -0.2529
 6574TIP3    H141137   3.573   6.379  17.073  0.4288  2.4567  0.4356
 6574TIP3    H241138   3.452   6.453  17.018  0.7323  1.6958 -1.2753
 6575TIP3   OH241139   0.305   1.488   1.932  0.0984  0.0478 -0.5116
 6575TIP3    H141140   0.361   1.447   1.998  1.7825  0.3590 -1.6898
 6575TIP3    H241141   0.224   1.508   1.978  0.8363 -0.7069  1.1761
 6576TIP3   OH241142   0.417   3.566   4.420  0.2162 -0.6126 -0.1601
 6576TIP3    H141143   0.358   3.496   4.448 -0.2586 -0.7518 -1.4922
 6576TIP3    H241144   0.396   3.581   4.328  0.9669  0.6367 -0.1481
 6577TIP3   OH241145   6.231   4.405  11.636 -0.0719  0.1009 -0.1971
 6577TIP3    H141146   6.244   4.326  11.688 -0.2820 -0.0798 -0.4213
 6577TIP3    H241147   6.177   4.377  11.562  2.0484 -0.1399 -1.6984
 6578TIP3   OH241148   4.158   5.850   2.196 -0.0522 -0.4394  0.2999
 6578TIP3    H141149   4.223   5.916   2.172 -0.7764  0.4849  0.8575
 6578TIP3    H241150   4.120   5.822   2.113  0.5641 -0.4781  0.0277
 6579TIP3   OH241151   4.319   1.763   0.118  0.4170 -0.1194 -0.1769
 6579TIP3    H141152   4.355   1.740   0.204 -2.6127  0.5153  1.3253
 6579TIP3    H241153   4.338   1.856   0.108 -0.1733  0.0509  0.2877
 6580TIP3   OH241154   4.840   4.113  13.580 -0.4416  0.4292 -0.0585
 6580TIP3    H141155   4.926   4.090  13.614 -1.4041 -0.2639  1.9829
 6580TIP3    H241156   4.820   4.198  13.620 -1.5386 -0.3533  1.1199
 6581TIP3   OH241157   3.185   3.039  11.868  0.4674  0.0265 -0.2017
 6581TIP3    H141158   3.203   2.949  11.892 -0.6543  0.0794  0.8907
 6581TIP3    H241159   3.097   3.037  11.830  0.4370  0.6630 -0.1759
 6582TIP3   OH241160   4.975   3.519   5.821 -0.3461  0.0243 -0.2005
 6582TIP3    H141161   4.904   3.470   5.781  0.0818 -0.6321 -0.1716
 6582TIP3    H241162   5.052   3.497   5.768 -0.0379  0.2040  0.1677
 6583TIP3   OH241163   5.515   1.606   4.842 -0.2596 -0.4397 -0.3110
 6583TIP3    H141164   5.560   1.587   4.760 -1.1102 -0.4342 -0.7830
 6583TIP3    H241165   5.581   1.592   4.910 -0.5410 -4.2875 -0.6896
 6584TIP3   OH241166   2.114   1.586  11.655 -0.3862 -0.2038 -0.7576
 6584TIP3    H141167   2.037   1.542  11.690  0.4717  0.3661  1.9415
 6584TIP3    H241168   2.188   1.533  11.684  0.3065 -0.2796 -2.6133
 6585TIP3   OH241169   5.714   2.535   5.648 -0.1295  0.6275 -0.7108
 6585TIP3    H141170   5.795   2.571   5.612  0.3461  0.0421 -0.2110
 6585TIP3    H241171   5.720   2.441   5.631 -1.4386  0.7678 -2.1479
 6586TIP3   OH241172   5.881   0.498   5.155  0.0128  0.6007 -0.2054
 6586TIP3    H141173   5.952   0.490   5.092 -0.2132  0.2542 -0.4167
 6586TIP3    H241174   5.912   0.563   5.218  1.5122 -1.3538  1.0915
 6587TIP3   OH241175   0.084   0.101  15.824 -0.1991  0.1786  0.6465
 6587TIP3    H141176   0.116   0.102  15.914  1.4623  0.7880  0.0538
 6587TIP3    H241177   0.119   0.181  15.785  1.7035 -1.6191 -1.4413
 6588TIP3   OH241178   5.235   6.699  15.161 -0.2631  0.0054 -0.0624
 6588TIP3    H141179   5.172   6.760  15.123 -0.9638 -0.5664  0.1901
 6588TIP3    H241180   5.305   6.756  15.195 -0.4154  0.6114 -0.7370
 6589TIP3   OH241181   2.381   3.481  13.484 -0.0390  0.2180  0.2516
 6589TIP3    H141182   2.437   3.463  13.560 -0.8467 -1.1697  0.5411
 6589TIP3    H241183   2.434   3.454  13.409 -0.3448 -1.2057  0.5313
 6590TIP3   OH241184   2.886   1.557   2.156  0.2457  0.1869 -0.2373
 6590TIP3    H141185   2.973   1.527   2.180 -0.8677 -2.5415  0.6348
 6590TIP3    H241186   2.867   1.513   2.073 -1.4698 -1.7654  1.1260
 6591TIP3   OH241187   6.075   4.974   1.011  0.0135  0.0877  0.4500
 6591TIP3    H141188   6.115   4.946   1.093 -1.5095  0.0976  1.2151
 6591TIP3    H241189   6.024   5.051   1.035 -0.4758  0.0667 -0.5057
 6592TIP3   OH241190   4.180   2.988   5.936  0.5328  0.4612 -0.0197
 6592TIP3    H141191   4.147   3.010   6.023  0.7517  3.5457 -0.6645
 6592TIP3    H241192   4.272   3.013   5.938  1.3087 -2.2507 -0.2314
 6593TIP3   OH241193   6.487   5.767  16.520  0.2864  0.8327 -0.5137
 6593TIP3    H141194   6.456   5.746  16.609  3.2471  0.0342  0.3617
 6593TIP3    H241195   6.465   5.690  16.468  1.8386 -0.2079  0.3625
 6594TIP3   OH241196   6.208   6.219  11.026  0.3383  0.0557 -0.4192
 6594TIP3    H141197   6.266   6.180  11.092 -0.4758  1.5456  1.2359
 6594TIP3    H241198   6.267   6.247  10.956  1.4301 -0.0536  0.4453
 6595TIP3   OH241199   2.263   3.380  10.933  0.1492 -0.7994  0.3116
 6595TIP3    H141200   2.306   3.462  10.958  1.0230  0.0469 -3.7063
 6595TIP3    H241201   2.170   3.399  10.941  0.3735 -0.1700  1.6203
 6596TIP3   OH241202   4.696   5.499   0.849  0.1340 -0.2069 -0.1475
 6596TIP3    H141203   4.677   5.584   0.810 -0.9598 -0.7472 -0.8371
 6596TIP3    H241204   4.781   5.509   0.890  0.6259  0.8239 -1.4009
 6597TIP3   OH241205   1.767   6.490  12.187 -0.0170  0.3031 -0.2727
 6597TIP3    H141206   1.692   6.436  12.163  0.8175 -1.7877  1.6119
 6597TIP3    H241207   1.843   6.436  12.165  0.8668  1.1949  0.5274
 6598TIP3   OH241208   1.507   0.061   3.763  0.1268  0.1682 -0.5986
 6598TIP3    H141209   1.594   0.023   3.767  0.5131  1.2720  1.9558
 6598TIP3    H241210   1.449  -0.014   3.745  1.2841 -1.0395  0.6207
 6599TIP3   OH241211   5.513   0.340   0.753 -0.1689  0.3963  0.3752
 6599TIP3    H141212   5.518   0.245   0.740  0.9932  0.5167 -0.0913
 6599TIP3    H241213   5.578   0.376   0.693 -1.4091  1.5737 -0.2850
 6600TIP3   OH241214   1.704   6.430  16.455 -0.2757  0.7094 -0.4711
 6600TIP3    H141215   1.666   6.509  16.492  0.1407 -0.0951  1.7671
 6600TIP3    H241216   1.628   6.378  16.426 -0.5786  1.5647 -1.2422
 6601TIP3   OH241217   1.133   6.177  17.164  0.2260 -0.1275  0.3168
 6601TIP3    H141218   1.112   6.113  17.232 -1.9282  1.6489  1.3803
 6601TIP3    H241219   1.229   6.179  17.163  0.4308 -4.2219 -0.6313
 6602TIP3   OH241220   5.753   6.203  14.242  0.2549 -0.4953 -0.1205
 6602TIP3    H141221   5.729   6.295  14.246 -0.0692 -0.6031  0.4665
 6602TIP3    H241222   5.849   6.203  14.238  0.2551 -0.1377 -0.0868
 6603TIP3   OH241223   2.976   0.557   0.429 -0.0279 -1.1082 -0.2552
 6603TIP3    H141224   2.930   0.549   0.512 -0.2681 -1.9284 -0.4648
 6603TIP3    H241225   3.063   0.589   0.452 -0.5883  0.1421  0.1731
 6604TIP3   OH241226   6.553   0.346  13.336 -0.1837 -0.4717 -0.5929
 6604TIP3    H141227   6.647   0.358  13.350 -0.2513 -0.8214  0.1783
 6604TIP3    H241228   6.546   0.262  13.291  0.0363  0.6800 -2.8612
 6605TIP3   OH241229   6.436   0.239  11.462 -0.1599  0.4324 -0.1504
 6605TIP3    H141230   6.436   0.144  11.475  1.1601  0.1494 -2.0905
 6605TIP3    H241231   6.345   0.265  11.480 -0.6563 -1.2683 -0.1069
 6606TIP3   OH241232   0.627   3.755  14.561  0.0317 -0.5941 -0.7642
 6606TIP3    H141233   0.686   3.783  14.491  0.2743 -0.3601 -0.4693
 6606TIP3    H241234   0.567   3.828  14.573  0.1369 -0.5395 -0.5682
 6607TIP3   OH241235   1.237   0.190   1.213 -0.1648  0.3158  0.3862
 6607TIP3    H141236   1.241   0.120   1.147 -1.9027  0.9999 -0.4573
 6607TIP3    H241237   1.327   0.198   1.244  0.5053 -0.6341 -1.2545
 6608TIP3   OH241238   4.632   5.855  16.845  0.7534 -0.1954  0.0768
 6608TIP3    H141239   4.671   5.769  16.862  1.6641  0.0926 -0.4931
 6608TIP3    H241240   4.706   5.915  16.842  0.4202  0.1604 -2.3393
 6609TIP3   OH241241   4.487   4.521   0.925 -0.1809 -0.4499 -0.0645
 6609TIP3    H141242   4.533   4.524   1.009  1.9561  0.3731 -1.2378
 6609TIP3    H241243   4.415   4.583   0.935  0.1166 -0.2747  1.1156
 6610TIP3   OH241244   3.979   1.138   3.177  0.0615  0.1801 -0.1475
 6610TIP3    H141245   3.896   1.181   3.196  0.0293  0.5805 -1.1640
 6610TIP3    H241246   4.034   1.157   3.253 -1.4505 -1.8697  1.5091
 6611TIP3   OH241247   1.025   1.539   2.685 -0.0096 -0.1013 -0.4908
 6611TIP3    H141248   0.994   1.498   2.765  2.3139 -0.2070  0.4142
 6611TIP3    H241249   0.999   1.630   2.692 -1.2259 -0.4596 -0.3753
 6612TIP3   OH241250   3.759   4.495  16.917  0.4715  0.5929 -0.1972
 6612TIP3    H141251   3.726   4.514  17.005  0.4321  0.1182 -0.1061
 6612TIP3    H241252   3.685   4.509  16.859  0.1417 -0.3145 -0.0120
 6613TIP3   OH241253   6.407   6.551  12.145 -0.2615  0.4980 -0.4954
 6613TIP3    H141254   6.360   6.607  12.207 -0.4442 -0.0478 -0.1309
 6613TIP3    H241255   6.413   6.603  12.065  1.4119  1.8450  0.4698
 6614TIP3   OH241256   4.680   6.634   2.900 -0.5123 -0.4550  0.1759
 6614TIP3    H141257   4.687   6.716   2.949 -2.2743 -0.2583  0.1286
 6614TIP3    H241258   4.692   6.566   2.967 -0.3145 -0.1791  0.4258
 6615TIP3   OH241259   4.320   4.885  13.348  0.0259  0.0521  0.1572
 6615TIP3    H141260   4.326   4.797  13.309  0.2295 -0.5482  1.5299
 6615TIP3    H241261   4.395   4.932  13.312  0.6704 -0.7452  0.4350
 6616TIP3   OH241262   0.498   6.591   3.352 -0.5001 -0.6495 -0.2008
 6616TIP3    H141263   0.492   6.503   3.388 -0.0541  0.0260  1.5664
 6616TIP3    H241264   0.575   6.589   3.295  1.7899 -0.4297  2.7510
 6617TIP3   OH241265   5.168   0.779   2.088 -0.1265 -0.4373 -0.4248
 6617TIP3    H141266   5.156   0.871   2.065  0.9800  0.0706  0.9660
 6617TIP3    H241267   5.223   0.781   2.166 -0.3391 -2.2723 -0.2116
 6618TIP3   OH241268   6.642   5.206  14.371 -0.0741 -0.0650  0.1903
 6618TIP3    H141269   6.664   5.267  14.442  1.3615  0.2472 -0.4847
 6618TIP3    H241270   6.660   5.256  14.291  3.4388 -2.0746 -0.4156
 6619TIP3   OH241271   5.817   1.700  12.932 -0.0251  0.1328  0.0200
 6619TIP3    H141272   5.903   1.670  12.961  0.4673  1.1336 -0.3660
 6619TIP3    H241273   5.814   1.680  12.839 -1.7671 -3.4554  0.7655
 6620TIP3   OH241274   4.957   0.951  17.113 -0.1831 -0.1903  0.4991
 6620TIP3    H141275   4.996   1.002  17.185 -3.0903  1.8480  0.7157
 6620TIP3    H241276   5.023   0.954  17.044  1.0053  1.2257  1.6319
 6621TIP3   OH241277   2.977   6.429   2.568  0.5954 -0.4157  0.3930
 6621TIP3    H141278   3.017   6.484   2.500 -0.8673 -1.0128 -0.9588
 6621TIP3    H241279   3.000   6.473   2.650 -0.2394  2.0431 -0.6376
 6622TIP3   OH241280   4.242   4.860   3.500 -0.1705  0.3362 -0.4826
 6622TIP3    H141281   4.257   4.922   3.429  1.7593  1.1014  0.5494
 6622TIP3    H241282   4.202   4.784   3.458  0.8527  0.8223 -2.3587
 6623TIP3   OH241283   5.074   5.172   0.356  0.3639  0.2848  0.6001
 6623TIP3    H141284   5.163   5.140   0.339 -0.3241 -1.4020  0.0048
 6623TIP3    H241285   5.069   5.254   0.306  0.4108 -1.4765 -2.4570
 6624TIP3   OH241286   5.265   1.496  12.261  0.4280  0.5287 -0.5366
 6624TIP3    H141287   5.254   1.476  12.168  1.5133 -1.3875 -0.2937
 6624TIP3    H241288   5.359   1.509  12.272  0.1833  1.9049  0.1026
 6625TIP3   OH241289   2.806   6.207  12.040  0.2846  0.3537  0.4646
 6625TIP3    H141290   2.832   6.128  11.993 -2.9266 -0.3118 -0.3647
 6625TIP3    H241291   2.826   6.189  12.131  2.2038 -0.2615 -0.0688
 6626TIP3   OH241292   2.680   2.663   3.160 -0.1216 -0.1489 -0.1600
 6626TIP3    H141293   2.744   2.627   3.099  0.8879  0.0041  0.7970
 6626TIP3    H241294   2.618   2.711   3.104  1.2573  0.6828 -1.0008
 6627TIP3   OH241295   5.645   6.647   0.037 -0.3502 -0.0544  0.0726
 6627TIP3    H141296   5.713   6.583   0.058 -1.7906 -1.6646 -0.0753
 6627TIP3    H241297   5.563   6.606   0.065 -1.1948  2.2641  1.1898
 6628TIP3   OH241298   1.654   1.976   2.822 -0.2530  0.4096 -0.1668
 6628TIP3    H141299   1.696   1.984   2.908  1.2838 -0.2485 -0.8280
 6628TIP3    H241300   1.649   2.066   2.790 -0.2692  0.5984  0.3579
 6629TIP3   OH241301   0.914   5.664   2.411 -0.8585 -0.1975  0.3484
 6629TIP3    H141302   1.005   5.634   2.415 -0.6964  0.2899  0.3198
 6629TIP3    H241303   0.906   5.726   2.484 -0.6084  1.2612 -0.8289
 6630TIP3   OH241304   3.376   3.911  15.933  0.4709  0.0905 -0.7250
 6630TIP3    H141305   3.452   3.866  15.895 -0.5077 -0.7801 -1.6715
 6630TIP3    H241306   3.392   3.909  16.027  2.3321  1.1969 -0.9845
 6631TIP3   OH241307   4.632   5.747  15.821  0.4416 -0.5077  0.8874
 6631TIP3    H141308   4.540   5.734  15.800  0.4773  0.0061  0.3775
 6631TIP3    H241309   4.631   5.792  15.906  0.0892  2.3537 -0.5519
 6632TIP3   OH241310   6.581   6.317  13.184 -0.6111 -0.3754 -0.1422
 6632TIP3    H141311   6.635   6.390  13.215  0.4817 -1.3912  0.3660
 6632TIP3    H241312   6.545   6.279  13.265 -0.3215 -1.0598 -0.3383
 6633TIP3   OH241313   4.204   0.441  12.148 -0.4052 -0.2369 -0.4933
 6633TIP3    H141314   4.269   0.397  12.203 -0.1293  0.4015 -0.3107
 6633TIP3    H241315   4.121   0.427  12.193  0.1062  2.2477  1.3150
 6634TIP3   OH241316   0.341   4.361  16.012 -0.6254  0.6367  0.1480
 6634TIP3    H141317   0.417   4.351  16.069 -0.1229  0.5310 -0.5271
 6634TIP3    H241318   0.359   4.441  15.962 -0.4475  0.0430 -0.7671
 6635TIP3   OH241319   5.313   5.586  16.076  0.5486 -0.3283 -0.4548
 6635TIP3    H141320   5.263   5.665  16.097 -0.7178 -1.5152  1.0601
 6635TIP3    H241321   5.247   5.522  16.050  1.4849 -1.1830 -0.7500
 6636TIP3   OH241322   6.520   5.066  13.865 -0.4539 -0.0338  0.1906
 6636TIP3    H141323   6.458   4.999  13.894 -0.2609  0.0827  0.8830
 6636TIP3    H241324   6.589   5.065  13.931 -0.1368  0.4171 -0.1309
 6637TIP3   OH241325   0.901   1.296   0.409  0.0057 -0.2873 -0.7798
 6637TIP3    H141326   0.828   1.235   0.402 -1.8880  1.9518 -0.9367
 6637TIP3    H241327   0.912   1.332   0.321 -1.1700  2.1488  0.0352
 6638TIP3   OH241328   5.700   4.815   5.450  0.1384  0.7073 -0.2777
 6638TIP3    H141329   5.650   4.832   5.370  0.3674 -1.3009 -0.8843
 6638TIP3    H241330   5.635   4.819   5.520 -0.8427 -1.3751 -1.0090
 6639TIP3   OH241331   5.462   1.506  16.340  0.2495  0.1500  0.1764
 6639TIP3    H141332   5.427   1.448  16.408 -0.0601  1.3921  1.1058
 6639TIP3    H241333   5.484   1.587  16.387  0.3389  0.9130 -1.1582
 6640TIP3   OH241334   1.625   6.145  13.309  0.1859 -0.1111 -0.4309
 6640TIP3    H141335   1.614   6.173  13.400 -1.8742  0.7519 -0.9203
 6640TIP3    H241336   1.693   6.078  13.313  0.1239 -0.0830  1.7492
 6641TIP3   OH241337   6.032   3.306   3.232  0.2385 -0.6115  0.4011
 6641TIP3    H141338   5.971   3.260   3.289 -1.7533 -1.1625 -2.0725
 6641TIP3    H241339   5.985   3.386   3.206  1.7845  0.4755  0.8844
 6642TIP3   OH241340   0.705   4.350  12.382  0.2273  0.4497 -0.1795
 6642TIP3    H141341   0.711   4.445  12.374  0.7339  0.7284  2.8505
 6642TIP3    H241342   0.612   4.332  12.390  0.1027  0.6278 -1.1196
 6643TIP3   OH241343   4.132   5.537   5.509 -0.2509 -0.4540  0.3055
 6643TIP3    H141344   4.164   5.485   5.582  1.6239  0.9689  0.5377
 6643TIP3    H241345   4.203   5.536   5.445  0.5139  3.0097  0.9625
 6644TIP3   OH241346   4.451   6.742  16.406 -0.3712 -0.1397  0.2965
 6644TIP3    H141347   4.385   6.807  16.433 -0.8200 -0.7099  0.6017
 6644TIP3    H241348   4.408   6.692  16.337 -0.4099 -0.7857  0.7886
 6645TIP3   OH241349   3.113   0.331  11.909 -0.1871  0.5917 -0.1479
 6645TIP3    H141350   3.050   0.260  11.897  0.2919  0.4093 -1.6343
 6645TIP3    H241351   3.193   0.287  11.940 -0.2959  0.6451  0.2165
 6646TIP3   OH241352   4.228   3.742   3.801 -0.8083  0.1363 -0.4249
 6646TIP3    H141353   4.258   3.744   3.711  0.2258 -0.7243 -0.1122
 6646TIP3    H241354   4.282   3.808   3.846 -0.9279  0.1629 -0.3202
 6647TIP3   OH241355   4.732   5.373   1.114 -0.3067  0.0968  0.1210
 6647TIP3    H141356   4.805   5.356   1.174  0.1251 -0.4876 -0.5651
 6647TIP3    H241357   4.694   5.455   1.145 -0.2846 -0.3604  1.3928
 6648TIP3   OH241358   6.074   1.148   0.128  0.2434 -0.3835 -0.1736
 6648TIP3    H141359   5.994   1.117   0.087  0.3149 -0.3814 -0.3179
 6648TIP3    H241360   6.116   1.201   0.060  0.2907 -0.2589 -0.0469
 6649TIP3   OH241361   5.245   1.455  10.859 -0.3769 -0.3166 -0.3888
 6649TIP3    H141362   5.258   1.483  10.950 -1.5781  0.5203 -0.4686
 6649TIP3    H241363   5.267   1.532  10.807 -2.5426  0.1580 -0.6621
 6650TIP3   OH241364   1.284   5.171  13.872  0.5386 -0.4632  0.0501
 6650TIP3    H141365   1.314   5.080  13.873  2.7565  0.2506  0.1910
 6650TIP3    H241366   1.215   5.173  13.806  1.0558 -2.0654 -0.5524
 6651TIP3   OH241367   0.903   4.929  15.213 -0.2008 -0.5100 -0.6666
 6651TIP3    H141368   0.856   5.001  15.255  0.2003 -0.8199  0.3484
 6651TIP3    H241369   0.991   4.963  15.199  0.3888 -1.2410  1.0898
 6652TIP3   OH241370   2.953   1.229  12.224 -0.6878 -0.3963 -0.3534
 6652TIP3    H141371   2.912   1.161  12.278 -2.3175 -0.1498 -1.2287
 6652TIP3    H241372   2.948   1.194  12.135 -1.9145  1.0225 -0.8708
 6653TIP3   OH241373   2.651   2.657  10.870 -0.4694 -0.2448  0.1454
 6653TIP3    H141374   2.678   2.727  10.810 -2.7570 -1.1431 -2.0842
 6653TIP3    H241375   2.657   2.577  10.817 -3.7722 -0.9076  0.6477
 6654TIP3   OH241376   0.262   1.198   4.208 -0.3861 -0.0132  0.0614
 6654TIP3    H141377   0.277   1.103   4.212 -3.9723 -0.5800  2.1342
 6654TIP3    H241378   0.221   1.212   4.123  1.6070 -0.0411 -0.9331
 6655TIP3   OH241379   5.115   3.588   1.618 -0.0716 -0.8509  0.3578
 6655TIP3    H141380   5.172   3.516   1.591  0.6185 -1.4237  3.2759
 6655TIP3    H241381   5.175   3.661   1.633 -0.3883 -0.6976  0.8732
 6656TIP3   OH241382   0.757   5.827  15.863  0.2553  0.2031  0.2058
 6656TIP3    H141383   0.693   5.815  15.793 -1.5909  2.4323  1.4391
 6656TIP3    H241384   0.827   5.878  15.823 -0.2871  0.5486 -0.3117
 6657TIP3   OH241385   1.537   2.811   0.293  0.1375  0.0240 -0.4958
 6657TIP3    H141386   1.583   2.788   0.374 -0.0876 -1.0098 -0.6597
 6657TIP3    H241387   1.498   2.897   0.311  1.0800  0.3351  0.0752
 6658TIP3   OH241388   1.957   2.658  12.486 -0.0216 -0.1296 -0.5563
 6658TIP3    H141389   1.976   2.642  12.394  2.8302  0.9105 -0.2118
 6658TIP3    H241390   2.041   2.645  12.530 -0.6997  2.0600  1.5193
 6659TIP3   OH241391   1.916   6.021  15.584 -0.1543  0.2471  0.1242
 6659TIP3    H141392   1.930   6.112  15.609  0.0707  0.5525 -1.1069
 6659TIP3    H241393   1.857   5.986  15.651  0.4049  1.0737  1.0482
 6660TIP3   OH241394   3.568   5.045   0.898  0.3882  0.4696  0.2496
 6660TIP3    H141395   3.603   5.128   0.929 -1.7668  0.7974  1.9359
 6660TIP3    H241396   3.606   4.979   0.957 -1.8372  0.8398  2.1654
 6661TIP3   OH241397   4.712   0.917   1.829  0.1523 -0.1517 -0.1134
 6661TIP3    H141398   4.632   0.894   1.781  0.0466  1.3819 -0.7034
 6661TIP3    H241399   4.782   0.910   1.763  0.7580 -2.8483  0.7227
 6662TIP3   OH241400   3.292   1.903   0.893 -0.4729 -0.1460  0.3958
 6662TIP3    H141401   3.218   1.900   0.832  0.6517  1.6729 -1.0903
 6662TIP3    H241402   3.362   1.856   0.848  0.2019  0.7462  0.5041
 6663TIP3   OH241403   5.962   4.226  13.250 -0.5441  0.5369 -0.1779
 6663TIP3    H141404   6.042   4.276  13.236 -1.6638  2.1401 -1.0428
 6663TIP3    H241405   5.945   4.234  13.344  0.7487 -0.5097  0.1530
 6664TIP3   OH241406   6.636   5.811  11.794 -0.1043  0.3254 -0.4939
 6664TIP3    H141407   6.632   5.729  11.743  1.2929  0.6442 -1.1472
 6664TIP3    H241408   6.679   5.873  11.735 -0.9745  1.4853  0.0768
 6665TIP3   OH241409   1.876   0.446  13.548  0.3881 -0.0361 -0.2998
 6665TIP3    H141410   1.923   0.376  13.593  0.3940 -0.5514 -1.1081
 6665TIP3    H241411   1.906   0.441  13.457  0.1422  0.8029 -0.4295
 6666TIP3   OH241412   4.030   5.169  15.919  0.3047  0.1163  0.0568
 6666TIP3    H141413   4.094   5.212  15.863 -0.1446 -0.7340 -1.1112
 6666TIP3    H241414   3.972   5.240  15.947  1.1629  0.7240  0.3497
 6667TIP3   OH241415   5.424   5.385   3.863  0.0282  0.3453  0.0428
 6667TIP3    H141416   5.483   5.404   3.790  0.2092  0.5460  0.2391
 6667TIP3    H241417   5.448   5.450   3.930  0.1735 -0.1313  0.4511
 6668TIP3   OH241418   1.305   1.897  11.492  0.1381 -0.2195 -0.6160
 6668TIP3    H141419   1.368   1.957  11.453  0.5182 -0.6601 -0.6750
 6668TIP3    H241420   1.358   1.837  11.544 -0.0787 -1.6449 -2.0097
 6669TIP3   OH241421   1.441   2.606   2.187 -0.1706 -0.3197  0.8413
 6669TIP3    H141422   1.468   2.692   2.155 -0.3734 -0.3188  0.6719
 6669TIP3    H241423   1.456   2.547   2.114  1.6263 -0.7479  1.5261
 6670TIP3   OH241424   4.876   5.197  14.926  0.1579 -0.0834 -0.3588
 6670TIP3    H141425   4.891   5.103  14.916  0.6359 -0.0035 -0.4329
 6670TIP3    H241426   4.886   5.232  14.837 -0.3967 -0.0137 -0.3928
 6671TIP3   OH241427   5.713   4.383  11.346  0.1095  0.3260  0.4559
 6671TIP3    H141428   5.785   4.368  11.285  0.1801 -1.2620  0.8933
 6671TIP3    H241429   5.669   4.298  11.352  0.8420  0.0986  3.5451
 6672TIP3   OH241430   3.471   5.692   0.911  0.6611  0.6266 -0.0691
 6672TIP3    H141431   3.447   5.675   0.820  1.9623  1.6350 -0.6213
 6672TIP3    H241432   3.401   5.747   0.945 -1.2494 -1.9826  0.3878
 6673TIP3   OH241433   2.834   4.548  16.634  0.3052 -0.4230 -0.1458
 6673TIP3    H141434   2.809   4.568  16.544  0.0231 -1.5920 -0.3336
 6673TIP3    H241435   2.766   4.588  16.688 -0.9743 -2.0025 -0.5790
 6674TIP3   OH241436   3.551   6.531  14.860  0.8771 -0.1148 -0.0029
 6674TIP3    H141437   3.563   6.487  14.776 -1.2131  0.8987 -0.8743
 6674TIP3    H241438   3.508   6.466  14.915 -1.6042  0.5229 -1.0848
 6675TIP3   OH241439   1.681   1.741   6.374 -0.2278 -0.2256 -0.4054
 6675TIP3    H141440   1.629   1.813   6.339  0.2702  0.5980  0.5073
 6675TIP3    H241441   1.765   1.781   6.395  0.6594 -1.4598 -1.5142
 6676TIP3   OH241442   4.510   0.458   4.799 -0.2559 -0.3137  0.2434
 6676TIP3    H141443   4.477   0.396   4.864 -1.7366  0.1392 -0.0450
 6676TIP3    H241444   4.572   0.407   4.747 -0.7269 -1.2945  0.6225
 6677TIP3   OH241445   6.123   3.571   4.901 -0.2482  0.8701  0.6116
 6677TIP3    H141446   6.084   3.567   4.989 -1.1021  0.5294  0.2174
 6677TIP3    H241447   6.139   3.480   4.877 -1.7465  0.8575 -0.3533
 6678TIP3   OH241448   4.252   4.471   0.553 -0.0835 -0.0661 -0.4527
 6678TIP3    H141449   4.177   4.510   0.508 -1.5427 -1.4780  0.6877
 6678TIP3    H241450   4.213   4.419   0.623  1.7420 -3.9184 -2.1491
 6679TIP3   OH241451   3.680   0.996   0.789  0.1314 -0.1871  0.1372
 6679TIP3    H141452   3.667   0.947   0.707  0.2261 -0.4022  0.2505
 6679TIP3    H241453   3.709   1.083   0.761 -0.7442  0.0348 -0.0913
 6680TIP3   OH241454   6.446   3.159   0.258  0.1960 -0.6339  0.5502
 6680TIP3    H141455   6.507   3.089   0.234  0.8113  0.5577 -1.4709
 6680TIP3    H241456   6.495   3.213   0.321  0.4822 -0.8333  0.5005
 6681TIP3   OH241457   6.551   4.391  11.990 -0.1353  0.0730  0.6377
 6681TIP3    H141458   6.536   4.314  11.935  0.4432  0.6743 -0.3986
 6681TIP3    H241459   6.544   4.465  11.930  2.6057  0.6272  0.9122
 6682TIP3   OH241460   4.701   3.966  13.401 -0.1911 -0.1097 -0.3385
 6682TIP3    H141461   4.612   3.987  13.429  0.0825  0.1300  0.3623
 6682TIP3    H241462   4.757   4.018  13.458  0.4034 -0.3598 -0.6901
 6683TIP3   OH241463   1.170   5.018  15.182  0.6016  0.0200 -0.7428
 6683TIP3    H141464   1.174   5.088  15.247  0.7351 -0.1155 -0.6040
 6683TIP3    H241465   1.258   4.980  15.182  0.8113  0.4861 -1.5215
 6684TIP3   OH241466   2.497   4.070  14.346  0.9115  0.1311 -0.0040
 6684TIP3    H141467   2.423   4.042  14.399 -0.2564 -1.8236 -2.5507
 6684TIP3    H241468   2.528   3.989  14.303  2.7554  1.3787 -1.1248
 6685TIP3   OH241469   0.823   4.448  13.721 -0.0370  0.2345 -0.0719
 6685TIP3    H141470   0.885   4.445  13.793 -0.6994  0.0385  0.5004
 6685TIP3    H241471   0.762   4.518  13.744 -1.5555 -1.2681  0.6682
 6686TIP3   OH241472   4.521   3.066  13.190  0.8136  0.3201  0.1436
 6686TIP3    H141473   4.573   2.989  13.166  0.7424 -0.0192  1.0564
 6686TIP3    H241474   4.584   3.128  13.226  0.9623  0.9429 -1.1624
 6687TIP3   OH241475   2.535   3.498   3.158 -0.2214  0.1494  0.4371
 6687TIP3    H141476   2.514   3.406   3.148 -1.7177  0.4690  0.4757
 6687TIP3    H241477   2.524   3.536   3.071 -1.3683  0.6210  0.7769
 6688TIP3   OH241478   1.694   0.494  14.596  0.2185 -0.3413 -0.4835
 6688TIP3    H141479   1.762   0.560  14.609 -1.3667  1.1262  0.5431
 6688TIP3    H241480   1.621   0.523  14.651 -0.5559 -2.8856 -0.0919
 6689TIP3   OH241481   2.550   0.939  14.895 -0.2305  0.0417  0.2867
 6689TIP3    H141482   2.552   0.977  14.808  1.5807  2.4746  1.3470
 6689TIP3    H241483   2.457   0.929  14.914 -0.6726  0.9901 -1.2811
 6690TIP3   OH241484   2.147   4.598   2.970 -0.0214 -0.0853 -0.3700
 6690TIP3    H141485   2.116   4.600   2.880  0.0170 -0.2168 -0.3878
 6690TIP3    H241486   2.074   4.562   3.020 -0.8435  2.0567 -0.0053
 6691TIP3   OH241487   0.697   0.989  14.519 -0.2285  0.1000  0.3402
 6691TIP3    H141488   0.766   0.996  14.585  2.0782 -1.4106 -1.8432
 6691TIP3    H241489   0.724   0.916  14.463 -1.7305  1.7516 -2.6729
 6692TIP3   OH241490   4.692   3.602  12.631 -0.2249  0.3110  0.2610
 6692TIP3    H141491   4.633   3.605  12.555  0.6277 -0.4395 -0.4451
 6692TIP3    H241492   4.665   3.676  12.686  0.0208  1.6860 -1.4263
 6693TIP3   OH241493   3.820   4.297   4.769  0.8857  0.3799 -0.2868
 6693TIP3    H141494   3.899   4.351   4.756  0.1024  0.9254 -3.3740
 6693TIP3    H241495   3.757   4.334   4.707 -1.8168 -0.0693  2.1103
 6694TIP3   OH241496   0.752   1.899  11.591  0.0631 -0.6658  0.5047
 6694TIP3    H141497   0.745   1.810  11.627  0.1572 -0.3582  1.3007
 6694TIP3    H241498   0.846   1.913  11.580  0.0426 -0.7051  0.2898
 6695TIP3   OH241499   2.613   6.147  13.099 -0.5485  0.1000 -0.3088
 6695TIP3    H141500   2.626   6.235  13.135  0.5505 -0.2132  0.0897
 6695TIP3    H241501   2.701   6.119  13.075 -0.6704 -1.5261  1.0667
 6696TIP3   OH241502   6.551   0.890  14.101 -0.4049  0.0931  0.3447
 6696TIP3    H141503   6.506   0.967  14.136  2.1903  2.1294 -0.5515
 6696TIP3    H241504   6.563   0.833  14.177 -2.0047  0.7530  1.1211
 6697TIP3   OH241505   1.896   1.620   5.769  0.3928 -0.3376 -0.1654
 6697TIP3    H141506   1.969   1.665   5.812 -0.8272  1.0785  0.5053
 6697TIP3    H241507   1.881   1.542   5.822  0.7789 -0.1058  0.2839
 6698TIP3   OH241508   4.781   5.107   6.364 -0.7165  0.5348  0.0568
 6698TIP3    H141509   4.858   5.088   6.416  0.1398 -1.1612 -1.7810
 6698TIP3    H241510   4.788   5.201   6.344  1.0338  0.3179 -0.3814
 6699TIP3   OH241511   6.693   0.959   1.672 -0.3123  0.3590  0.0961
 6699TIP3    H141512   6.783   0.954   1.704 -0.7864 -2.2737  1.1941
 6699TIP3    H241513   6.702   0.975   1.578  1.2728  0.9975  0.3406
 6700TIP3   OH241514   1.294   3.387   5.275  0.2996 -0.5006  0.2223
 6700TIP3    H141515   1.213   3.408   5.321  0.7334  1.6884  0.0702
 6700TIP3    H241516   1.276   3.305   5.230 -0.9430 -1.4114  2.3027
 6701TIP3   OH241517   3.501   3.100  11.453 -0.6298  0.1198 -0.1928
 6701TIP3    H141518   3.588   3.139  11.463  0.1174 -1.6596  0.4736
 6701TIP3    H241519   3.466   3.141  11.374  0.7054  1.0617 -0.3173
 6702TIP3   OH241520   4.032   1.750   2.706 -0.1584 -0.7458 -0.0098
 6702TIP3    H141521   3.992   1.695   2.773  1.7021 -2.9894 -0.6702
 6702TIP3    H241522   4.096   1.803   2.754 -2.4103  1.3800  0.7280
 6703TIP3   OH241523   2.267   3.680  15.047 -0.2389  0.3340 -0.1186
 6703TIP3    H141524   2.247   3.760  14.999 -3.4771 -0.8558 -0.8775
 6703TIP3    H241525   2.188   3.664  15.100  0.4352 -2.2445  0.1582
 6704TIP3   OH241526   5.117   3.478   3.968 -0.4168  0.1294 -0.2249
 6704TIP3    H141527   5.135   3.411   3.902  0.1224  1.3360 -1.3333
 6704TIP3    H241528   5.041   3.526   3.933 -0.0826  0.8176 -0.0170
 6705TIP3   OH241529   4.179   5.757  16.869  0.2601 -0.3939 -0.3701
 6705TIP3    H141530   4.161   5.663  16.870  1.4663 -0.6379  1.3982
 6705TIP3    H241531   4.267   5.765  16.905 -0.8365  1.5615  2.0755
 6706TIP3   OH241532   5.494   1.062   4.545  0.3619 -0.0499 -0.1628
 6706TIP3    H141533   5.400   1.053   4.562 -0.0207  0.0567 -2.0158
 6706TIP3    H241534   5.534   0.986   4.586 -0.4664  0.1700  1.0890
 6707TIP3   OH241535   3.105   5.446  13.415 -0.0422 -0.6372  0.4436
 6707TIP3    H141536   3.136   5.355  13.409 -0.3325 -0.7758  0.9679
 6707TIP3    H241537   3.176   5.493  13.459  0.5320 -0.3978 -0.7371
 6708TIP3   OH241538   5.100   3.396   5.286 -0.2426 -0.2140 -0.2554
 6708TIP3    H141539   5.005   3.386   5.281 -0.4359  1.6825 -0.9450
 6708TIP3    H241540   5.128   3.405   5.195  0.5378 -0.3383 -0.0295
 6709TIP3   OH241541   2.863   4.497  16.011 -0.4427  0.0624  0.4465
 6709TIP3    H141542   2.798   4.469  16.076  0.4584  1.1685  1.8511
 6709TIP3    H241543   2.943   4.513  16.062 -0.4705  3.6018 -0.5003
 6710TIP3   OH241544   6.643   2.229  15.830  0.2584  0.0068 -0.1360
 6710TIP3    H141545   6.628   2.136  15.812  0.4851  0.4419 -2.7384
 6710TIP3    H241546   6.734   2.244  15.803 -0.1000  1.2021 -0.7074
 6711TIP3   OH241547   5.690   4.893   2.627 -0.4494 -0.1981  0.0505
 6711TIP3    H141548   5.739   4.960   2.676  0.9651  0.6904 -2.4808
 6711TIP3    H241549   5.704   4.812   2.677  0.1447  0.8554  1.6372
 6712TIP3   OH241550   6.425   3.795   5.554 -0.1784 -0.5928  0.3107
 6712TIP3    H141551   6.489   3.775   5.487  0.4082 -0.7213  0.9088
 6712TIP3    H241552   6.369   3.717   5.558 -0.7794 -0.2165 -0.6719
 6713TIP3   OH241553   1.074   1.567   5.001  0.0198  0.1467  0.1846
 6713TIP3    H141554   1.095   1.479   4.970 -0.0396 -0.1720  1.0380
 6713TIP3    H241555   1.135   1.624   4.954 -0.1240 -0.3152 -0.5717
 6714TIP3   OH241556   2.423   5.438  13.125  0.6784  0.1728  0.2613
 6714TIP3    H141557   2.483   5.372  13.090  1.0338  0.6747 -0.0737
 6714TIP3    H241558   2.476   5.517  13.132 -0.0308  0.6935 -0.3143
 6715TIP3   OH241559   6.345   3.801   4.450  0.3787  0.2598  0.7543
 6715TIP3    H141560   6.429   3.803   4.495  0.5235 -0.7431  0.5242
 6715TIP3    H241561   6.287   3.754   4.510  1.1384 -3.1343 -1.0528
 6716TIP3   OH241562   1.989   4.055   6.050  0.3328 -0.5179  0.1328
 6716TIP3    H141563   2.030   4.046   5.964 -0.9071 -0.7765 -0.4568
 6716TIP3    H241564   2.001   4.147   6.074 -0.6683 -0.0712 -1.0363
 6717TIP3   OH241565   4.482   6.550  15.240  0.0210 -0.4570 -0.0600
 6717TIP3    H141566   4.388   6.553  15.255  0.4075  0.6813  2.3811
 6717TIP3    H241567   4.503   6.457  15.236 -1.0825 -0.7237  0.2970
 6718TIP3   OH241568   1.563   0.068  14.179 -0.1070  0.3876 -0.3250
 6718TIP3    H141569   1.578   0.075  14.085  0.8074 -2.5278 -0.4558
 6718TIP3    H241570   1.638   0.112  14.219  0.8821 -0.6730 -0.9884
 6719TIP3   OH241571   2.780   2.617  16.584 -0.0880 -0.1209 -0.3954
 6719TIP3    H141572   2.864   2.621  16.631 -0.2080  0.9274 -0.2446
 6719TIP3    H241573   2.795   2.557  16.512  0.8649  0.2242 -0.4949
 6720TIP3   OH241574   2.815   2.144   6.147 -1.0887  0.9036 -0.4212
 6720TIP3    H141575   2.850   2.068   6.192 -1.2051  1.9716  1.5691
 6720TIP3    H241576   2.736   2.112   6.103  0.4094 -0.7213 -2.0136
 6721TIP3   OH241577   3.763   3.713   3.689  0.0290 -0.3255 -0.0318
 6721TIP3    H141578   3.836   3.668   3.730  0.4845  0.7218  0.3303
 6721TIP3    H241579   3.685   3.672   3.727  0.3949 -1.9182 -0.9389
 6722TIP3   OH241580   5.739   2.128   5.431  0.0827  0.0230  0.1414
 6722TIP3    H141581   5.665   2.168   5.477  0.9424  0.7226  0.9280
 6722TIP3    H241582   5.816   2.170   5.469  0.7960  1.0695 -2.4031
 6723TIP3   OH241583   3.495   0.101  13.399 -0.1941  0.2819 -0.0673
 6723TIP3    H141584   3.407   0.124  13.428 -0.1231  0.3435  0.1028
 6723TIP3    H241585   3.487   0.012  13.365 -0.5847  0.7784 -1.2662
 6724TIP3   OH241586   3.922   4.070  11.680 -0.2760 -0.2508 -0.0969
 6724TIP3    H141587   3.895   4.079  11.589  3.2593  2.5481 -0.9805
 6724TIP3    H241588   3.973   3.989  11.682 -0.7602 -0.5706 -0.4706
 6725TIP3   OH241589   4.487   1.445   6.607 -0.1933 -0.5172  0.0679
 6725TIP3    H141590   4.451   1.529   6.580  0.1328 -0.0718  1.0250
 6725TIP3    H241591   4.426   1.380   6.572 -1.0363  0.1647  0.2727
 6726TIP3   OH241592   3.282   6.715   1.008 -0.8320  0.2875  0.1149
 6726TIP3    H141593   3.229   6.791   1.030 -1.8107 -0.1978 -0.4854
 6726TIP3    H241594   3.240   6.679   0.930  0.1191 -0.3784 -0.1029
 6727TIP3   OH241595   3.999   4.175   4.329  0.1228 -0.3140 -0.1280
 6727TIP3    H141596   4.028   4.266   4.334 -0.6218 -0.1146  0.8949
 6727TIP3    H241597   4.043   4.132   4.402 -0.0493 -0.6150 -0.1998
 6728TIP3   OH241598   3.479   0.887  13.811  0.2733 -0.8808  0.7138
 6728TIP3    H141599   3.475   0.876  13.716  0.5947  0.6546  0.5201
 6728TIP3    H241600   3.460   0.979  13.826 -1.6818 -1.4831  2.2856
 6729TIP3   OH241601   3.842   6.298   0.181 -0.3819  0.6143 -0.8128
 6729TIP3    H141602   3.931   6.305   0.147 -0.2194 -0.8840 -0.7258
 6729TIP3    H241603   3.842   6.351   0.261  0.5213  0.3613 -0.6454
 6730TIP3   OH241604   6.630   5.227   5.810  1.1426 -0.0631  0.4107
 6730TIP3    H141605   6.688   5.153   5.827  0.8184 -0.2627  0.6626
 6730TIP3    H241606   6.573   5.198   5.739 -0.6938 -1.0366  2.2168
 6731TIP3   OH241607   4.235   6.772  13.926  0.2025 -0.1388 -0.1691
 6731TIP3    H141608   4.295   6.803  13.994 -0.1348 -0.2267  0.1693
 6731TIP3    H241609   4.186   6.850  13.901 -0.8746 -0.4521  0.9141
 6732TIP3   OH241610   5.333   2.388   5.445 -0.3290 -0.1650  0.0528
 6732TIP3    H141611   5.309   2.296   5.434  1.0792 -0.4080 -1.1626
 6732TIP3    H241612   5.366   2.415   5.359  2.0485  0.6121  1.1410
 6733TIP3   OH241613   4.463   6.483  14.229 -0.1526 -0.2921 -0.0735
 6733TIP3    H141614   4.443   6.427  14.303  0.1279 -0.3996 -0.0772
 6733TIP3    H241615   4.451   6.428  14.152 -2.5017  0.4091 -0.2389
 6734TIP3   OH241616   6.090   1.553   4.880 -0.0788 -0.2858  0.0597
 6734TIP3    H141617   6.031   1.574   4.952 -0.1835 -0.7985  0.1227
 6734TIP3    H241618   6.158   1.620   4.884  0.4081 -0.8353  1.1965
 6735TIP3   OH241619   1.419   0.100   4.675 -0.2089  0.0858  0.0483
 6735TIP3    H141620   1.454   0.024   4.721 -0.2904  0.6004  0.9670
 6735TIP3    H241621   1.392   0.160   4.745 -2.0065  0.1195 -0.6453
 6736TIP3   OH241622   5.577   4.140  12.715 -0.3571 -0.5739 -0.2867
 6736TIP3    H141623   5.652   4.197  12.734 -1.2234  0.2393  0.8046
 6736TIP3    H241624   5.607   4.083  12.644  1.0705  0.1719 -0.3020
 6737TIP3   OH241625   0.225   3.645   5.818  0.2227  0.6508  0.4873
 6737TIP3    H141626   0.185   3.562   5.841  0.0048  0.7355  0.4083
 6737TIP3    H241627   0.300   3.652   5.878  1.4012 -0.5125 -0.8184
 6738TIP3   OH241628   0.416   2.532   0.825 -0.3748 -0.1121  0.1306
 6738TIP3    H141629   0.331   2.490   0.836 -0.1912 -0.6945 -0.5767
 6738TIP3    H241630   0.404   2.592   0.752 -0.3295  0.2219  0.3981
 6739TIP3   OH241631   1.681   6.380  14.966 -0.5590  0.1316 -0.1023
 6739TIP3    H141632   1.753   6.400  15.026 -0.8056  0.7859 -0.0199
 6739TIP3    H241633   1.691   6.287  14.947  0.4571  0.2745 -0.2928
 6740TIP3   OH241634   4.493   5.474  16.477  0.3338  0.3490  0.2053
 6740TIP3    H141635   4.578   5.435  16.458  1.3412  1.9585  1.3016
 6740TIP3    H241636   4.510   5.537  16.547 -1.9256  0.0389  1.0853
 6741TIP3   OH241637   4.677   3.345   3.866  0.3289  0.7019 -0.4516
 6741TIP3    H141638   4.744   3.389   3.918 -0.9131 -0.3298  2.1120
 6741TIP3    H241639   4.717   3.261   3.842  0.6731  0.9102 -0.6134
 6742TIP3   OH241640   5.827   1.320   6.373 -0.0612 -0.0201 -0.0221
 6742TIP3    H141641   5.832   1.258   6.300 -1.0693  1.0337 -1.0268
 6742TIP3    H241642   5.917   1.333   6.400  0.3226 -0.5028 -1.0286
 6743TIP3   OH241643   4.820   1.419  13.378  0.6811 -0.1426  0.1580
 6743TIP3    H141644   4.729   1.388  13.372  0.7396 -0.6551  1.6227
 6743TIP3    H241645   4.865   1.349  13.426  1.7235  0.3630 -0.0940
 6744TIP3   OH241646   6.738   4.793  15.235 -0.4723 -0.5692 -0.1633
 6744TIP3    H141647   6.651   4.769  15.201 -0.9142  1.9731 -0.8874
 6744TIP3    H241648   6.770   4.859  15.173  1.6179 -0.8549  0.6013
 6745TIP3   OH241649   3.095   4.939   1.145 -0.0396 -0.0215  0.0693
 6745TIP3    H141650   3.180   4.895   1.150  0.6507  1.3470  0.6720
 6745TIP3    H241651   3.101   4.995   1.067 -0.0432  0.7719  0.6333
 6746TIP3   OH241652   3.557   6.625   5.327  0.2776 -0.3808  0.0526
 6746TIP3    H141653   3.520   6.709   5.298 -0.1144 -0.4434  0.3763
 6746TIP3    H241654   3.487   6.583   5.376  0.4521 -0.9310 -0.1606
 6747TIP3   OH241655   0.123   5.192  16.236 -0.1604  0.0529  0.2387
 6747TIP3    H141656   0.058   5.223  16.299  0.1102 -1.5085  1.2879
 6747TIP3    H241657   0.181   5.135  16.286 -0.0515 -1.3669 -1.4523
 6748TIP3   OH241658   6.639   0.746   2.445  0.4173  0.1559  0.8463
 6748TIP3    H141659   6.639   0.663   2.492  1.9835  0.7862  1.9848
 6748TIP3    H241660   6.548   0.776   2.450 -0.1207 -1.3749  0.6030
 6749TIP3   OH241661   0.137   0.109   4.207  0.2640  0.8673  0.3326
 6749TIP3    H141662   0.102   0.160   4.134 -0.7123 -1.7690 -1.1167
 6749TIP3    H241663   0.232   0.109   4.193  0.3576  3.0203  0.8743
 6750TIP3   OH241664   2.487   3.590  11.151  0.3483 -0.2396 -0.0696
 6750TIP3    H141665   2.421   3.640  11.101  0.0137 -0.0291  0.5735
 6750TIP3    H241666   2.440   3.563  11.230  1.2675  0.6023  0.7744
 6751TIP3   OH241667   1.937   3.234  13.358  0.4182  0.1710  0.3525
 6751TIP3    H141668   2.007   3.245  13.294  0.2931 -0.8501  0.0184
 6751TIP3    H241669   1.940   3.313  13.412  0.0233  1.4097 -1.4043
 6752TIP3   OH241670   3.559   6.227   3.244  0.4624 -0.5423  0.0420
 6752TIP3    H141671   3.566   6.204   3.151  0.6958  0.4101 -0.1844
 6752TIP3    H241672   3.643   6.201   3.282  1.0639  0.7117 -0.3945
 6753TIP3   OH241673   4.496   3.077   3.447  0.2651 -0.4981  0.2563
 6753TIP3    H141674   4.541   3.028   3.379 -2.7765 -0.2823 -2.0050
 6753TIP3    H241675   4.527   3.167   3.437 -0.4037 -0.4065 -1.0921
 6754TIP3   OH241676   1.805   0.877   1.289 -0.1997  0.5060 -0.6815
 6754TIP3    H141677   1.819   0.895   1.382 -0.4989 -0.7820 -0.3801
 6754TIP3    H241678   1.890   0.895   1.248  0.8033 -1.7860  0.2894
 6755TIP3   OH241679   3.098   5.468  14.096 -0.0390 -0.1329  0.1709
 6755TIP3    H141680   3.135   5.387  14.130  0.4242  0.3223  0.7422
 6755TIP3    H241681   3.153   5.538  14.132  0.7376  0.3409 -1.8355
 6756TIP3   OH241682   2.906   6.581   5.939  0.3549 -0.4629 -0.0878
 6756TIP3    H141683   2.934   6.661   5.983 -0.0282 -0.9085  0.9855
 6756TIP3    H241684   2.850   6.611   5.868  0.5705  0.2381  0.0318
 6757TIP3   OH241685   2.685   0.568  13.530  0.1867  0.1176 -0.4461
 6757TIP3    H141686   2.691   0.571  13.625 -4.3624 -1.1533  0.0033
 6757TIP3    H241687   2.737   0.492  13.505 -0.6098 -1.0365  1.3167
 6758TIP3   OH241688   0.274   4.578  11.170  0.2666  0.2165 -0.8912
 6758TIP3    H141689   0.278   4.484  11.189 -1.4470  0.7739  2.5796
 6758TIP3    H241690   0.195   4.588  11.117 -1.6605  0.0916  1.8342
 6759TIP3   OH241691   2.794   5.338  15.067  0.1951 -0.8099 -0.0461
 6759TIP3    H141692   2.741   5.349  14.988 -1.4941 -2.2951  0.8117
 6759TIP3    H241693   2.771   5.412  15.122 -0.8582 -1.3226  0.2240
 6760TIP3   OH241694   4.063   4.983   3.092 -0.1512  0.2784 -0.1356
 6760TIP3    H141695   4.086   5.075   3.078  1.6243  0.2320  2.2043
 6760TIP3    H241696   3.974   4.986   3.127 -0.2119  1.0813 -0.3428
 6761TIP3   OH241697   0.395   1.273   2.060 -0.1262  0.4710 -0.2203
 6761TIP3    H141698   0.333   1.208   2.092 -0.4756  0.7626 -0.3069
 6761TIP3    H241699   0.462   1.277   2.129 -0.7783  0.9618  0.3913
 6762TIP3   OH241700   3.737   4.968   2.018 -0.1959 -0.4893  0.2491
 6762TIP3    H141701   3.667   4.975   1.953  0.5957  0.6372 -0.4893
 6762TIP3    H241702   3.806   4.918   1.974  0.2950  0.1776  0.2495
 6763TIP3   OH241703   3.116   5.260   2.240 -0.0196  0.0678 -0.4196
 6763TIP3    H141704   3.035   5.311   2.230  0.5916  1.2748  0.5709
 6763TIP3    H241705   3.088   5.181   2.286 -0.5844  0.6623  0.2907
 6764TIP3   OH241706   3.943   1.315  13.830  0.6651 -0.0987 -0.3953
 6764TIP3    H141707   4.019   1.340  13.779  1.9731  0.5191  1.7986
 6764TIP3    H241708   3.974   1.310  13.920 -1.7214 -0.5056  0.4639
 6765TIP3   OH241709   5.237   1.597  16.212  0.4908  0.2372  0.4873
 6765TIP3    H141710   5.202   1.635  16.293 -0.4867 -0.1226  0.2384
 6765TIP3    H241711   5.295   1.527  16.241 -1.7851 -1.5734  0.8664
 6766TIP3   OH241712   3.080   4.061   0.337  0.0040  0.9255 -0.2996
 6766TIP3    H141713   3.039   3.977   0.317 -0.2457  0.8088  0.6697
 6766TIP3    H241714   3.174   4.043   0.338 -0.0735  0.5469  0.3938
 6767TIP3   OH241715   3.535   0.491   5.695 -0.1866  0.8098 -0.3402
 6767TIP3    H141716   3.584   0.429   5.641 -0.2336  0.9107 -0.4977
 6767TIP3    H241717   3.602   0.543   5.739 -0.1105 -0.4102  1.0310
 6768TIP3   OH241718   5.770   5.546   3.459 -0.2495 -0.2210  0.5934
 6768TIP3    H141719   5.818   5.626   3.483  2.8042 -1.6742 -0.4683
 6768TIP3    H241720   5.741   5.562   3.369 -1.3130  0.4293  1.0391
 6769TIP3   OH241721   6.641   0.610  15.496  0.9846 -0.5487 -0.4382
 6769TIP3    H141722   6.718   0.660  15.469  0.2728  0.7738 -0.0528
 6769TIP3    H241723   6.653   0.597  15.590  1.4638 -1.6447 -0.6412
 6770TIP3   OH241724   4.116   4.611   5.541 -0.3764  0.2570 -0.3543
 6770TIP3    H141725   4.025   4.585   5.527 -0.8072  1.7541 -0.3647
 6770TIP3    H241726   4.134   4.587   5.632  0.4811 -3.6958 -1.4608
 6771TIP3   OH241727   4.313   6.633  15.846 -0.0554  0.2983 -0.1220
 6771TIP3    H141728   4.367   6.576  15.792  0.9678  1.3114 -0.1877
 6771TIP3    H241729   4.329   6.604  15.935  0.4308  0.4607 -0.1569
 6772TIP3   OH241730   4.725   1.721  15.663  0.6476 -0.4902 -0.4927
 6772TIP3    H141731   4.805   1.692  15.619  0.5571  0.2317 -1.1490
 6772TIP3    H241732   4.747   1.720  15.756  0.8114 -2.1309 -0.5412
 6773TIP3   OH241733   1.923   6.247  16.189  0.0846 -0.2762 -0.1603
 6773TIP3    H141734   1.886   6.318  16.242  1.7600 -0.2214  0.9911
 6773TIP3    H241735   2.014   6.240  16.220  0.9639 -0.5511 -2.7399
 6774TIP3   OH241736   6.773   1.399   5.709  0.1352 -1.1648 -0.1225
 6774TIP3    H141737   6.810   1.379   5.623 -2.7634  2.9882 -2.5111
 6774TIP3    H241738   6.695   1.345   5.715  0.7856 -2.0658  0.2779
 6775TIP3   OH241739   0.427   4.400   3.086 -0.0971  0.2878  0.1969
 6775TIP3    H141740   0.394   4.485   3.115  2.0859  0.6843  1.5980
 6775TIP3    H241741   0.480   4.420   3.009 -2.7627 -0.3096 -1.8532
 6776TIP3   OH241742   2.234   1.528  14.135  0.4665 -0.2198 -0.2265
 6776TIP3    H141743   2.321   1.496  14.110  0.3412 -0.5468 -0.2496
 6776TIP3    H241744   2.249   1.577  14.216  0.6755 -0.2626 -0.2380
 6777TIP3   OH241745   2.752   4.646   2.392 -0.1710 -0.1618 -0.4554
 6777TIP3    H141746   2.712   4.685   2.470 -1.0962 -0.2923 -0.8670
 6777TIP3    H241747   2.846   4.651   2.409 -0.2942  1.8240 -0.2988
 6778TIP3   OH241748   5.405   6.311   4.849  0.2483 -0.0401  0.9621
 6778TIP3    H141749   5.314   6.286   4.838 -0.3168  1.5224  1.9664
 6778TIP3    H241750   5.438   6.321   4.759 -0.9803  0.8062  0.5986
 6779TIP3   OH241751   1.302   4.765   6.607  0.5783 -0.5263 -0.1180
 6779TIP3    H141752   1.214   4.752   6.571 -0.3743 -0.2113  2.0602
 6779TIP3    H241753   1.319   4.688   6.660  0.8897  0.2543  0.9326
 6780TIP3   OH241754   6.507   1.067  13.182  0.3003  0.2832  0.1124
 6780TIP3    H141755   6.435   1.048  13.242  3.6533 -1.2692  3.9124
 6780TIP3    H241756   6.521   0.985  13.135  0.8466 -0.0340  0.8210
 6781TIP3   OH241757   3.829   6.545   5.631  0.0629  1.2581  0.3832
 6781TIP3    H141758   3.809   6.533   5.724  1.9853  0.5728  0.7260
 6781TIP3    H241759   3.910   6.597   5.630 -0.4336  2.0433 -0.9343
 6782TIP3   OH241760   3.540   3.090  12.930  0.7657 -0.4218  0.4059
 6782TIP3    H141761   3.538   3.059  12.840 -0.6745 -1.4890  0.7986
 6782TIP3    H241762   3.453   3.071  12.965 -0.2899  4.2130  0.6374
 6783TIP3   OH241763   5.481   0.482   3.713  0.1176 -0.5322 -0.1240
 6783TIP3    H141764   5.534   0.438   3.646  0.0937 -1.6911  0.6226
 6783TIP3    H241765   5.492   0.429   3.791 -0.4795  0.4020  0.5979
 6784TIP3   OH241766   3.073   5.404   3.104  0.5391  0.4740  0.1448
 6784TIP3    H141767   3.141   5.366   3.048  1.5091  1.6403  0.5168
 6784TIP3    H241768   3.112   5.406   3.191  0.1348  1.3798  0.3117
 6785TIP3   OH241769   2.216   5.990   3.222  0.1868 -0.7202 -0.2396
 6785TIP3    H141770   2.214   6.085   3.209  2.3414 -0.6987 -0.5457
 6785TIP3    H241771   2.282   5.959   3.161  2.2505 -1.9624  2.5463
 6786TIP3   OH241772   1.894   6.728  12.138  0.4105  0.2602 -0.0143
 6786TIP3    H141773   1.982   6.736  12.175  1.1136 -0.7476 -1.4452
 6786TIP3    H241774   1.864   6.642  12.168 -0.0409  0.5544  0.3753
 6787TIP3   OH241775   1.590   2.487   2.906 -0.1119 -0.5136  0.8093
 6787TIP3    H141776   1.617   2.423   2.973 -1.1148  0.0369  1.7576
 6787TIP3    H241777   1.633   2.568   2.932 -0.1329 -0.4161  0.5316
 6788TIP3   OH241778   6.226   5.352  15.483 -0.2956 -0.0706  0.0108
 6788TIP3    H141779   6.220   5.422  15.417 -0.6657  0.5831  0.7348
 6788TIP3    H241780   6.197   5.274  15.437  1.5399 -0.0541 -1.2476
 6789TIP3   OH241781   4.860   2.640  14.051  0.6972 -0.4691  0.1580
 6789TIP3    H141782   4.822   2.623  13.965  0.9619  0.8546 -0.2340
 6789TIP3    H241783   4.788   2.681  14.100  0.9122 -0.0947  0.1635
 6790TIP3   OH241784   2.971   5.323  16.298 -0.0172 -0.1294  0.2769
 6790TIP3    H141785   2.952   5.359  16.385 -0.2823 -0.3518  0.3094
 6790TIP3    H241786   3.038   5.256  16.314 -1.9336 -2.0081  0.6565
 6791TIP3   OH241787   0.768   5.451   1.443 -0.4618 -0.3099 -0.5644
 6791TIP3    H141788   0.794   5.462   1.534 -0.2172  0.1809 -0.6930
 6791TIP3    H241789   0.848   5.426   1.398 -0.7720 -1.4698 -0.4826
 6792TIP3   OH241790   1.740   4.559  12.953  0.5163 -0.4290 -0.6848
 6792TIP3    H141791   1.737   4.511  12.870  1.0931 -0.5232 -0.6514
 6792TIP3    H241792   1.742   4.652  12.927 -3.9586 -0.2389 -0.7167
 6793TIP3   OH241793   4.114   0.519   1.478  0.3959 -0.3775 -0.4460
 6793TIP3    H141794   4.091   0.577   1.552 -2.1342 -2.6543  0.6592
 6793TIP3    H241795   4.029   0.489   1.445  1.5663 -0.6925 -3.2824
 6794TIP3   OH241796   5.088   3.857   3.309 -0.0143 -0.0354  0.1816
 6794TIP3    H141797   5.116   3.808   3.386  0.0473 -0.3456 -0.0392
 6794TIP3    H241798   5.144   3.935   3.308  0.4222 -0.3535  0.0848
 6795TIP3   OH241799   0.783   3.366  16.092  0.3762  0.7463  0.0740
 6795TIP3    H141800   0.863   3.402  16.054  0.5817  2.3116  1.9136
 6795TIP3    H241801   0.726   3.350  16.017  1.2019  2.6863 -1.0080
 6796TIP3   OH241802   5.607   2.750   5.291  0.2335 -0.9398 -0.0995
 6796TIP3    H141803   5.532   2.718   5.242  0.3358 -0.8607 -0.3115
 6796TIP3    H241804   5.571   2.817   5.349  0.0760 -1.1911  0.0902
 6797TIP3   OH241805   4.525   0.840   2.488 -0.3381 -0.1519 -0.1530
 6797TIP3    H141806   4.519   0.750   2.457  0.9258 -0.5484  0.7164
 6797TIP3    H241807   4.557   0.890   2.413 -1.6910 -0.2914 -0.8426
 6798TIP3   OH241808   6.201   2.944  16.045  0.6997  0.2712  0.3671
 6798TIP3    H141809   6.174   2.857  16.074  1.1287 -0.0646 -0.2392
 6798TIP3    H241810   6.269   2.970  16.106  2.5150 -0.9735 -1.0879
 6799TIP3   OH241811   4.869   3.734  16.703  0.3119 -0.0750  0.0189
 6799TIP3    H141812   4.864   3.652  16.753  1.9100  0.3888  0.9675
 6799TIP3    H241813   4.903   3.798  16.765  0.4317  0.9752 -1.1190
 6800TIP3   OH241814   5.540   3.438  16.911  0.3358  0.1513  0.3879
 6800TIP3    H141815   5.542   3.485  16.828 -0.0306 -0.7837 -0.1574
 6800TIP3    H241816   5.449   3.448  16.942  0.4147  0.3085  0.5726
 6801TIP3   OH241817   4.058   0.291   1.188 -0.4157 -0.1842 -0.1262
 6801TIP3    H141818   3.980   0.260   1.236 -0.1240  1.0471  1.1570
 6801TIP3    H241819   4.132   0.252   1.235 -0.1878 -0.0586 -0.3821
 6802TIP3   OH241820   3.172   0.018   2.191  0.2769 -0.2091  0.0804
 6802TIP3    H141821   3.140   0.067   2.116 -0.7204 -0.0264  0.6290
 6802TIP3    H241822   3.227   0.080   2.240 -0.4690  0.1726  0.4315
 6803TIP3   OH241823   6.344   4.739   3.701  0.0684  0.1959  0.4999
 6803TIP3    H141824   6.291   4.814   3.676  0.4810  0.4240  0.3120
 6803TIP3    H241825   6.281   4.677   3.738 -0.3734  0.3504  0.0165
 6804TIP3   OH241826   4.252   3.755  11.915  0.0584 -0.5038 -0.3161
 6804TIP3    H141827   4.309   3.761  11.838  0.9782  0.4718  0.4145
 6804TIP3    H241828   4.237   3.662  11.927 -0.5905 -0.6373 -2.0310
 6805TIP3   OH241829   5.324   2.051   5.757 -0.6612 -0.2591  0.0185
 6805TIP3    H141830   5.307   1.964   5.722  1.3811  0.2378 -2.3459
 6805TIP3    H241831   5.251   2.104   5.727 -2.1784 -1.2328  1.8948
 6806TIP3   OH241832   5.727   6.056  10.721 -0.4077 -0.4005  0.2706
 6806TIP3    H141833   5.815   6.030  10.748 -1.3074 -1.7106  1.9561
 6806TIP3    H241834   5.734   6.067  10.626  1.7257  0.1705  0.4618
 6807TIP3   OH241835   5.182   1.119   2.627  0.5105 -0.6009  0.1784
 6807TIP3    H141836   5.241   1.062   2.677  0.3088 -0.9123  0.0596
 6807TIP3    H241837   5.167   1.073   2.545  0.0874 -0.5345  0.2139
 6808TIP3   OH241838   2.980   1.568  13.923 -0.0652  0.3160  0.2165
 6808TIP3    H141839   2.977   1.657  13.888  0.5699  0.3332  0.1954
 6808TIP3    H241840   2.985   1.580  14.018 -1.3609  0.2759  0.3010
 6809TIP3   OH241841   2.848   5.937   3.695 -0.2082  0.3011  0.4353
 6809TIP3    H141842   2.873   6.019   3.652 -1.5027  0.7862  0.5800
 6809TIP3    H241843   2.817   5.881   3.624  2.1135 -0.6454  0.1287
 6810TIP3   OH241844   1.893   5.543  13.785 -0.0101 -0.2728 -0.4304
 6810TIP3    H141845   1.806   5.514  13.758  1.7166 -3.8104 -2.4833
 6810TIP3    H241846   1.920   5.605  13.717 -0.4431  0.0200 -0.3459
 6811TIP3   OH241847   0.961   4.762   4.074  0.3274  0.3635  0.4074
 6811TIP3    H141848   0.877   4.797   4.045 -0.2186 -0.1387  1.3523
 6811TIP3    H241849   0.952   4.667   4.064  0.5619  0.2675  1.0886
 6812TIP3   OH241850   4.393   0.902   5.579  0.3272 -0.2221  0.3509
 6812TIP3    H141851   4.456   0.898   5.507 -0.2942 -0.5905 -0.1707
 6812TIP3    H241852   4.434   0.851   5.649  1.6426  1.4107  0.8285
 6813TIP3   OH241853   0.594   4.496  13.377 -0.8815  0.3588  0.2286
 6813TIP3    H141854   0.689   4.495  13.391 -0.9686 -1.7267  0.9359
 6813TIP3    H241855   0.562   4.567  13.432  0.0095 -0.6279  2.0607
 6814TIP3   OH241856   2.113   3.189   5.656 -0.0838 -0.3487 -0.2895
 6814TIP3    H141857   2.168   3.172   5.732  2.7829 -0.2392 -2.2512
 6814TIP3    H241858   2.029   3.147   5.676  0.6036 -0.2716  2.8958
 6815TIP3   OH241859   5.733   2.808   4.427 -0.3880  0.2984 -0.3260
 6815TIP3    H141860   5.713   2.733   4.483  1.2346 -1.4441 -2.0143
 6815TIP3    H241861   5.650   2.831   4.387 -0.5827 -1.7225 -1.1355
 6816TIP3   OH241862   4.013   2.756  13.487 -0.5288 -0.7679 -0.7225
 6816TIP3    H141863   3.932   2.784  13.445 -0.7555 -0.1014  0.1469
 6816TIP3    H241864   4.070   2.731  13.414 -0.8560  0.5444 -1.4523
 6817TIP3   OH241865   4.293   2.400  12.017  0.2245 -0.2399  0.0605
 6817TIP3    H141866   4.198   2.409  12.018  0.1347 -1.0474 -0.6032
 6817TIP3    H241867   4.309   2.322  11.965  1.1361 -1.5685  2.2642
 6818TIP3   OH241868   3.430   1.047  11.458  0.4176  0.0786 -0.4893
 6818TIP3    H141869   3.496   1.112  11.482  0.8723  0.2811 -2.1904
 6818TIP3    H241870   3.418   0.994  11.536  1.3671  1.0929  0.3548
 6819TIP3   OH241871   4.212   5.920   0.629 -0.3695  0.5492  0.0561
 6819TIP3    H141872   4.289   5.977   0.634  1.3765 -1.6134 -1.2720
 6819TIP3    H241873   4.151   5.968   0.573  1.2273  0.9461 -1.3875
 6820TIP3   OH241874   0.541   4.223   5.366 -0.6629  0.0514  0.0297
 6820TIP3    H141875   0.546   4.316   5.389 -1.2491 -0.1496  0.9995
 6820TIP3    H241876   0.613   4.210   5.304  0.1850  0.8837  0.8165
 6821TIP3   OH241877   2.349   5.091  11.446  0.2641  0.3422  0.2960
 6821TIP3    H141878   2.374   5.098  11.354 -3.3901  2.1641 -0.6314
 6821TIP3    H241879   2.282   5.023  11.448  0.4812  0.1553  1.6598
 6822TIP3   OH241880   6.246   5.362  14.662 -0.2776 -0.1261 -0.1850
 6822TIP3    H141881   6.171   5.397  14.614 -0.5177  0.6893  0.7434
 6822TIP3    H241882   6.207   5.304  14.728  0.0680 -1.5040 -1.1926
 6823TIP3   OH241883   5.664   6.561   3.969  0.4009 -0.0083  0.4336
 6823TIP3    H141884   5.626   6.572   3.882  0.5579 -0.3927  0.3158
 6823TIP3    H241885   5.590   6.562   4.029  0.1719 -1.0773  0.1781
 6824TIP3   OH241886   2.778   4.297  12.620  0.3186  0.2328  0.2717
 6824TIP3    H141887   2.803   4.387  12.602  0.2297 -0.0208 -1.1500
 6824TIP3    H241888   2.839   4.269  12.689  0.4358  1.3229  0.6264
 6825TIP3   OH241889   6.602   5.177  12.353  0.0037  0.1449 -0.0748
 6825TIP3    H141890   6.660   5.187  12.277 -0.1214 -1.0617 -0.3296
 6825TIP3    H241891   6.557   5.095  12.338 -0.3040  0.0881  1.1348
 6826TIP3   OH241892   4.514   4.318   4.125 -0.0671 -0.1913  0.5243
 6826TIP3    H141893   4.547   4.330   4.214 -1.9089  0.2406  1.1690
 6826TIP3    H241894   4.534   4.226   4.104  0.7574 -0.1761  1.2035
 6827TIP3   OH241895   5.647   2.304  11.929 -0.9763  0.1825 -0.4607
 6827TIP3    H141896   5.666   2.365  11.857  0.8445  0.0468 -0.1182
 6827TIP3    H241897   5.588   2.239  11.890 -0.7960  0.6651 -1.5670
 6828TIP3   OH241898   2.872   2.770   1.171  0.4221 -0.6578  0.1366
 6828TIP3    H141899   2.907   2.685   1.146  2.2460  0.5252 -1.4058
 6828TIP3    H241900   2.889   2.827   1.096 -1.0955  1.0009  1.0001
 6829TIP3   OH241901   4.705   2.107   4.546 -0.1080 -0.2319 -0.6746
 6829TIP3    H141902   4.734   2.120   4.455  2.2648 -0.4134  0.0294
 6829TIP3    H241903   4.717   2.192   4.587  0.1175 -0.4988 -0.1834
 6830TIP3   OH241904   3.585   2.657  16.042 -0.2444  0.4340 -0.3657
 6830TIP3    H141905   3.600   2.685  16.132 -0.8499 -0.2869 -0.0335
 6830TIP3    H241906   3.489   2.653  16.034 -0.1724 -0.5931 -0.7020
 6831TIP3   OH241907   2.669   1.111  12.723 -0.2791 -0.4322 -0.0045
 6831TIP3    H141908   2.645   1.124  12.815  0.3244  1.8099 -0.1444
 6831TIP3    H241909   2.624   1.031  12.698 -1.9024 -0.0944  1.7324
 6832TIP3   OH241910   6.273   0.888  13.612 -0.0038  0.0056 -0.5477
 6832TIP3    H141911   6.320   0.938  13.679 -1.3370  0.1962  0.2468
 6832TIP3    H241912   6.300   0.797  13.628  0.8472  0.2181 -0.7198
 6833TIP3   OH241913   0.419   3.063  12.816  0.4655 -0.0413  0.4320
 6833TIP3    H141914   0.341   3.030  12.772  0.3771 -1.3880  1.5641
 6833TIP3    H241915   0.435   3.001  12.887  1.4274  1.3115  1.4263
 6834TIP3   OH241916   4.028   0.922   4.548 -0.2221 -0.1745  0.5275
 6834TIP3    H141917   3.963   0.898   4.614 -0.2888 -1.0391  0.1477
 6834TIP3    H241918   4.008   1.014   4.528 -1.2847 -0.4088  0.4601
 6835TIP3   OH241919   2.851   5.884  16.944 -0.4829 -0.1872  0.1704
 6835TIP3    H141920   2.946   5.885  16.951 -0.5800  0.3873  1.5489
 6835TIP3    H241921   2.833   5.829  16.867  0.9620  0.1242 -0.3971
 6836TIP3   OH241922   6.037   0.467   4.935 -0.6818  0.6726  0.1012
 6836TIP3    H141923   5.966   0.521   4.899 -0.3462  1.7780  1.0476
 6836TIP3    H241924   6.095   0.451   4.861 -0.5377  2.0392 -0.0896
 6837TIP3   OH241925   2.904   0.950   0.424 -0.2614 -0.2097  0.0647
 6837TIP3    H141926   2.892   1.044   0.437  1.2030  0.1218 -0.9406
 6837TIP3    H241927   2.825   0.923   0.377 -0.2987  0.6802 -0.4027
 6838TIP3   OH241928   2.191   5.413  11.268 -0.4875 -0.1110  0.0210
 6838TIP3    H141929   2.162   5.504  11.266  0.1997  0.1135 -0.0806
 6838TIP3    H241930   2.285   5.418  11.251 -0.4799 -0.8577 -0.1875
 6839TIP3   OH241931   2.740   1.125  15.073 -0.2049 -0.0321 -0.3571
 6839TIP3    H141932   2.822   1.085  15.102 -1.2002 -1.7434  0.1838
 6839TIP3    H241933   2.682   1.051  15.058 -1.4037  1.1279 -1.5242
 6840TIP3   OH241934   5.272   0.271   2.845 -0.3114 -0.2757 -0.0496
 6840TIP3    H141935   5.329   0.346   2.832  0.0242 -0.5862 -0.4071
 6840TIP3    H241936   5.297   0.236   2.931 -0.6719  0.1958  0.2431
 6841TIP3   OH241937   1.575   5.291  15.198  0.1515  0.5967 -0.1051
 6841TIP3    H141938   1.655   5.291  15.146 -0.9011 -0.6904 -1.7646
 6841TIP3    H241939   1.523   5.219  15.163 -0.3397 -0.7057  3.1472
 6842TIP3   OH241940   3.244   1.155   0.904 -0.0787  0.3912  0.0104
 6842TIP3    H141941   3.260   1.249   0.914 -1.1994  0.6829 -0.7728
 6842TIP3    H241942   3.165   1.150   0.850 -0.4102 -0.9970  0.5945
 6843TIP3   OH241943   5.821   4.403  11.683 -0.1351  0.4996  0.7926
 6843TIP3    H141944   5.911   4.399  11.653 -0.8864  3.2877 -2.1743
 6843TIP3    H241945   5.770   4.360  11.615 -1.0390 -1.6627  2.7563
 6844TIP3   OH241946   2.651   2.821   2.710  0.6605  0.7661 -0.3444
 6844TIP3    H141947   2.596   2.818   2.788  0.9958  0.9826 -0.1004
 6844TIP3    H241948   2.624   2.745   2.659  0.7215  0.3952  0.1731
 6845TIP3   OH241949   0.618   4.941  14.199 -1.1668 -0.0277  0.2128
 6845TIP3    H141950   0.536   4.895  14.218 -1.0692  0.2717  1.3914
 6845TIP3    H241951   0.686   4.875  14.215 -1.1287  0.0040  0.1800
 6846TIP3   OH241952   6.550   0.771  13.379 -0.0967 -0.7245 -0.2299
 6846TIP3    H141953   6.470   0.753  13.330 -0.4856  0.8504 -0.2031
 6846TIP3    H241954   6.535   0.733  13.466 -1.0223  0.0034 -0.0632
 6847TIP3   OH241955   1.830   6.255  13.010  0.3401 -0.0394 -0.1219
 6847TIP3    H141956   1.787   6.230  12.928  0.8860  0.1120 -0.4596
 6847TIP3    H241957   1.798   6.344  13.026  0.6794  0.1499 -0.4791
 6848TIP3   OH241958   4.366   2.203  13.424 -0.6344  0.4213  0.5230
 6848TIP3    H141959   4.387   2.112  13.400  0.8313  0.8283  0.1958
 6848TIP3    H241960   4.337   2.243  13.342 -0.2327  0.5354  0.4358
 6849TIP3   OH241961   3.581   4.111  15.000 -0.5885 -0.0245 -0.0673
 6849TIP3    H141962   3.565   4.199  15.035 -2.1721 -0.6046  0.7018
 6849TIP3    H241963   3.495   4.071  14.995  0.1778 -1.7324  0.0774
 6850TIP3   OH241964   1.516   4.947   5.864 -0.1846  0.1032 -0.4373
 6850TIP3    H141965   1.503   4.961   5.957 -1.1503  1.0872 -0.7164
 6850TIP3    H241966   1.568   4.866   5.859 -0.1596  0.0252  0.9368
 6851TIP3   OH241967   4.737   5.246  13.324  0.0538 -0.4166  0.3433
 6851TIP3    H141968   4.721   5.183  13.254 -1.6713 -0.3439  0.6622
 6851TIP3    H241969   4.779   5.321  13.280 -0.9423 -0.4082 -0.5919
 6852TIP3   OH241970   3.956   6.295   5.565 -0.0940 -0.5798  0.3595
 6852TIP3    H141971   3.945   6.274   5.657  0.9557 -0.3593  0.5438
 6852TIP3    H241972   3.939   6.389   5.560  1.0992 -0.3368  0.5610
 6853TIP3   OH241973   3.799   6.001  15.750  0.8048  0.9567 -0.5860
 6853TIP3    H141974   3.793   5.987  15.655 -1.1542  1.3295 -0.5453
 6853TIP3    H241975   3.838   6.087  15.760  1.2399  0.8143 -1.0523
 6854TIP3   OH241976   2.942   5.649  15.378  0.0109  0.1485 -0.0529
 6854TIP3    H141977   3.015   5.609  15.330  0.6705  0.7023  0.4820
 6854TIP3    H241978   2.883   5.679  15.309 -0.8078 -2.2952 -0.4535
 6855TIP3   OH241979   3.651   6.037   6.115 -0.0512 -0.0374 -0.0224
 6855TIP3    H141980   3.666   5.945   6.138  1.2961 -0.1991 -1.4657
 6855TIP3    H241981   3.727   6.062   6.062 -1.1540  1.4405 -0.9797
 6856TIP3   OH241982   0.383   5.355   0.186 -0.3050  0.4144 -0.5350
 6856TIP3    H141983   0.302   5.405   0.195  0.2778  1.2896  0.0493
 6856TIP3    H241984   0.363   5.270   0.224 -1.5073 -0.0365 -2.1435
 6857TIP3   OH241985   5.565   4.072   4.349 -0.2503  0.2437 -0.2747
 6857TIP3    H141986   5.480   4.103   4.383  0.1407 -0.5769  1.4989
 6857TIP3    H241987   5.624   4.146   4.364 -0.6908  0.9012 -1.7194
 6858TIP3   OH241988   3.379   4.634  12.604  0.6933 -0.1606  0.3933
 6858TIP3    H141989   3.380   4.555  12.550 -0.2337  2.2667 -3.3680
 6858TIP3    H241990   3.467   4.670  12.595  0.5673  0.2009  0.5914
 6859TIP3   OH241991   1.318   4.989   5.095 -0.1139  0.2444  0.3626
 6859TIP3    H141992   1.225   4.970   5.104 -0.4720  2.3793  1.6308
 6859TIP3    H241993   1.339   5.042   5.172  2.2577 -0.5740  0.3322
 6860TIP3   OH241994   1.168   5.710   3.401  0.2936 -0.4880  0.3286
 6860TIP3    H141995   1.147   5.804   3.408 -0.0734 -0.4362 -1.1856
 6860TIP3    H241996   1.214   5.702   3.318  1.3145 -1.4973  0.9792
 6861TIP3   OH241997   6.583   4.821   4.851 -0.0536  0.6689  0.1768
 6861TIP3    H141998   6.589   4.854   4.940  1.2326 -0.7837  0.6477
 6861TIP3    H241999   6.607   4.729   4.857 -0.1376  0.4965 -1.6362
 6862TIP3   OH242000   4.768   1.416   2.630  0.7562  0.0478  0.1675
 6862TIP3    H142001   4.848   1.363   2.621  0.6307 -0.4939  2.0362
 6862TIP3    H242002   4.735   1.394   2.717 -0.8131  1.1424 -0.1446
 6863TIP3   OH242003   2.557   3.118  13.171  0.1866  0.2195  0.4376
 6863TIP3    H142004   2.496   3.191  13.174 -0.0050  0.0795  0.0335
 6863TIP3    H242005   2.532   3.069  13.092 -0.7123 -1.1851  1.5736
 6864TIP3   OH242006   4.235   3.963  11.354 -0.2743 -0.2382  0.5862
 6864TIP3    H142007   4.270   3.892  11.409  2.1019 -0.1033 -0.7054
 6864TIP3    H242008   4.257   3.937  11.265 -1.8121  0.8247 -0.1195
 6865TIP3   OH242009   2.571   6.606  15.373  0.0122 -0.4512 -0.1667
 6865TIP3    H142010   2.614   6.581  15.291 -0.3808 -0.0821 -0.4877
 6865TIP3    H242011   2.644   6.631  15.431  0.2283  0.4355 -0.7986
 6866TIP3   OH242012   5.935   2.595  15.775  0.0370 -0.4304 -0.6632
 6866TIP3    H142013   5.964   2.676  15.818  0.4419 -0.7802 -0.2696
 6866TIP3    H242014   5.840   2.596  15.783 -0.0067  0.3262 -1.2355
 6867TIP3   OH242015   3.556   0.451   6.600 -0.1023  0.2768  0.0807
 6867TIP3    H142016   3.553   0.413   6.688  1.1744  0.4028  0.1981
 6867TIP3    H242017   3.517   0.384   6.543 -2.4932  0.8965  0.9608
 6868TIP3   OH242018   3.853   4.549   0.126 -0.1927 -0.8050  0.0321
 6868TIP3    H142019   3.930   4.559   0.182 -0.6996  1.4358  0.3764
 6868TIP3    H242020   3.779   4.576   0.182 -0.8541  0.1540 -1.2792
 6869TIP3   OH242021   6.384   5.741   0.698  0.2603  0.0138 -0.0387
 6869TIP3    H142022   6.311   5.725   0.758  0.8372 -0.4086  0.5661
 6869TIP3    H242023   6.367   5.683   0.624  0.0378 -0.1669  0.1516
 6870TIP3   OH242024   1.801   2.352  16.497  0.2365 -0.3514 -0.3099
 6870TIP3    H142025   1.819   2.322  16.408  0.6950 -0.5298 -0.1575
 6870TIP3    H242026   1.812   2.274  16.551  0.4701 -0.1275 -0.0333
 6871TIP3   OH242027   2.798   2.598   0.165 -0.2845 -0.4483 -0.1496
 6871TIP3    H142028   2.854   2.522   0.184 -0.5711 -0.5102  0.4641
 6871TIP3    H242029   2.794   2.602   0.070  1.6968  0.2353 -0.2323
 6872TIP3   OH242030   0.623   1.787  16.790  0.1891  0.2825  0.1180
 6872TIP3    H142031   0.528   1.789  16.792  0.1950 -0.3763  1.3619
 6872TIP3    H242032   0.649   1.879  16.778 -0.5965  0.3753 -0.9258
 6873TIP3   OH242033   5.346   4.979   5.427 -0.1005 -0.0411 -0.0749
 6873TIP3    H142034   5.326   5.067   5.396  2.0986  0.6815  0.4917
 6873TIP3    H242035   5.407   4.944   5.362 -0.5809 -0.9739 -0.0350
 6874TIP3   OH242036   1.933   0.880  14.469 -0.0161  0.3831 -0.5620
 6874TIP3    H142037   1.998   0.937  14.428  2.5672 -1.8708  0.1876
 6874TIP3    H242038   1.880   0.847  14.397  0.9705  0.6766 -1.4326
 6875TIP3   OH242039   0.962   0.682   0.031  0.3833 -0.2866 -0.2636
 6875TIP3    H142040   0.897   0.751   0.022  0.3138 -0.4334 -0.9379
 6875TIP3    H242041   0.920   0.604  -0.006  0.8347 -0.4424 -0.4576
 6876TIP3   OH242042   5.081   4.504   5.828 -0.5372 -0.0268  0.0594
 6876TIP3    H142043   5.139   4.573   5.797  0.1850 -1.1560 -1.1959
 6876TIP3    H242044   5.128   4.423   5.809 -2.0990 -0.9328 -0.0709
 6877TIP3   OH242045   5.604   0.560  12.398 -0.7534 -0.2848  0.0806
 6877TIP3    H142046   5.526   0.580  12.450 -1.3375 -1.2127 -0.4223
 6877TIP3    H242047   5.569   0.520  12.318  0.2732 -1.4485  0.2078
 6878TIP3   OH242048   4.435   1.286   4.438  0.4127  0.4765  0.7233
 6878TIP3    H142049   4.434   1.259   4.346 -3.0019 -1.6987  1.3117
 6878TIP3    H242050   4.528   1.284   4.462  1.1410 -1.2996 -2.0013
 6879TIP3   OH242051   4.447   0.704  15.337 -0.3124  0.2755  0.1395
 6879TIP3    H142052   4.424   0.636  15.400  1.1246 -0.8001 -0.4409
 6879TIP3    H242053   4.370   0.713  15.281 -0.5367 -0.8431  0.2609
 6880TIP3   OH242054   3.062   3.275   5.834  0.0797  0.0497  0.6634
 6880TIP3    H142055   3.049   3.314   5.920  0.9202  1.7055  0.0588
 6880TIP3    H242056   2.975   3.246   5.807 -0.9582  3.3447  0.2700
 6881TIP3   OH242057   6.634   2.342  13.262 -0.0005  0.0971 -0.8676
 6881TIP3    H142058   6.563   2.351  13.199 -0.9827 -0.5895  0.1345
 6881TIP3    H242059   6.623   2.254  13.298  0.9209  0.2554 -0.1820
 6882TIP3   OH242060   3.644   0.394   1.338 -0.0071  0.0266 -0.0931
 6882TIP3    H142061   3.712   0.460   1.325 -0.6375  1.1515  2.0641
 6882TIP3    H242062   3.565   0.433   1.302 -0.0355 -0.2531 -0.3380
 6883TIP3   OH242063   4.780   3.510  10.891 -0.1413  0.4958 -0.3572
 6883TIP3    H142064   4.825   3.505  10.806 -0.6996 -2.1808 -0.5378
 6883TIP3    H242065   4.714   3.577  10.879  1.5061  2.0224 -1.1929
 6884TIP3   OH242066   0.659   1.367   2.202  0.2801 -0.0830  0.8857
 6884TIP3    H142067   0.710   1.312   2.143  0.4811  0.2604  0.7318
 6884TIP3    H242068   0.725   1.416   2.251  0.1319  2.0870 -0.9360
 6885TIP3   OH242069   0.321   3.317   4.607  0.7935  0.2991  0.3379
 6885TIP3    H142070   0.388   3.289   4.669 -0.6158 -0.9104  1.3255
 6885TIP3    H242071   0.336   3.264   4.529  1.5607  0.6979  0.2078
 6886TIP3   OH242072   0.027   0.953  10.757 -0.0591 -0.2356 -0.3274
 6886TIP3    H142073   0.112   0.962  10.713  0.1770 -0.6936  0.0346
 6886TIP3    H242074   0.044   0.892  10.828 -0.4016  0.6223  0.4909
 6887TIP3   OH242075   5.454   3.680   1.378 -0.0655  0.2035 -0.5492
 6887TIP3    H142076   5.379   3.631   1.346 -0.3727  1.8317 -2.3782
 6887TIP3    H242077   5.446   3.677   1.474 -2.9249  1.0693 -0.7169
 6888TIP3   OH242078   5.699   5.563  12.756  0.0992  0.2019  0.1306
 6888TIP3    H142079   5.630   5.565  12.822 -0.3392  1.1586 -0.3437
 6888TIP3    H242080   5.671   5.494  12.695  1.0197 -1.3834  1.4713
 6889TIP3   OH242081   0.952   6.068  16.980 -0.1076  0.3243 -0.2877
 6889TIP3    H142082   1.027   6.083  17.037  0.8322 -0.7171 -1.2144
 6889TIP3    H242083   0.883   6.125  17.014  0.5700  0.0358  1.5960
 6890TIP3   OH242084   0.872   3.281   2.665 -0.0628 -0.3901 -0.6071
 6890TIP3    H142085   0.829   3.291   2.750  0.2350  1.9456 -0.7124
 6890TIP3    H242086   0.811   3.321   2.602  0.7547 -0.0939 -1.2118
 6891TIP3   OH242087   3.934   3.102   2.792 -0.0773 -0.6085 -0.3241
 6891TIP3    H142088   3.855   3.110   2.845 -0.3553  1.4919 -1.0349
 6891TIP3    H242089   4.002   3.144   2.844  0.1834 -0.7921 -0.5185
 6892TIP3   OH242090   5.615   4.088  11.265 -0.4161  0.2088 -0.0622
 6892TIP3    H142091   5.525   4.074  11.295 -0.0988 -2.0648 -0.0445
 6892TIP3    H242092   5.606   4.134  11.182 -1.6593 -1.0554 -0.6439
 6893TIP3   OH242093   3.104   5.905  16.157 -0.0985 -0.3401 -0.2617
 6893TIP3    H142094   3.042   5.949  16.215 -0.9073 -1.3817 -0.3307
 6893TIP3    H242095   3.053   5.885  16.079  0.5223 -0.5592 -0.6130
 6894TIP3   OH242096   1.385   3.359   2.072  0.2103  0.3377  0.5549
 6894TIP3    H142097   1.337   3.349   1.990  0.6473  0.3133  0.2980
 6894TIP3    H242098   1.384   3.453   2.089 -1.6306  0.1394  1.5892
 6895TIP3   OH242099   4.208   0.065  17.032 -0.4282  0.2626 -0.0114
 6895TIP3    H142100   4.257   0.026  16.959  0.2297  2.0337 -0.5362
 6895TIP3    H242101   4.217   0.001  17.103  2.3524  0.3805 -0.2151
 6896TIP3   OH242102   3.561   3.769   5.327  0.0315 -0.2847 -0.1004
 6896TIP3    H142103   3.541   3.717   5.405 -0.1781 -1.9221 -1.2083
 6896TIP3    H242104   3.623   3.835   5.357 -0.5191 -0.5079  1.5750
 6897TIP3   OH242105   1.116   0.157   1.468  0.2087 -0.5220  0.1059
 6897TIP3    H142106   1.188   0.213   1.439 -1.2433  1.0707 -0.5263
 6897TIP3    H242107   1.048   0.169   1.401 -2.2285  1.2224  2.7358
 6898TIP3   OH242108   6.294   6.292  15.060  0.4538  0.5123 -0.6856
 6898TIP3    H142109   6.299   6.331  14.973 -1.3495  1.1018 -0.5537
 6898TIP3    H242110   6.256   6.205  15.047 -0.5865  0.9122 -0.4330
 6899TIP3   OH242111   2.641   5.577   3.818  0.5441  0.4186  0.1733
 6899TIP3    H142112   2.679   5.525   3.889  0.4695 -0.4692 -0.4289
 6899TIP3    H242113   2.548   5.583   3.841  0.6679  0.8539  0.5825
 6900TIP3   OH242114   3.666   2.073  11.762 -0.0350 -0.2563 -0.2520
 6900TIP3    H142115   3.734   2.005  11.765  1.1017  0.8268 -0.8250
 6900TIP3    H242116   3.589   2.028  11.727  0.3932 -1.4913  0.3468
 6901TIP3   OH242117   4.028   4.636   5.190 -0.8793 -0.3584 -0.0605
 6901TIP3    H142118   4.030   4.731   5.184 -3.8704 -0.3403 -1.5824
 6901TIP3    H242119   4.085   4.606   5.119 -1.9603  0.3008 -1.2223
 6902TIP3   OH242120   3.659   1.764  11.162  0.6266 -0.4781 -0.3736
 6902TIP3    H142121   3.567   1.745  11.183  0.3071  0.7354 -0.6505
 6902TIP3    H242122   3.656   1.803  11.075  1.2100  1.3580  0.4156
 6903TIP3   OH242123   3.992   4.895  12.068  0.0846 -0.2144 -0.1067
 6903TIP3    H142124   3.976   4.859  11.981  1.5721  1.0937 -0.9531
 6903TIP3    H242125   4.073   4.946  12.059 -0.2255  0.6970  1.8125
 6904TIP3   OH242126   3.761   5.090  11.156 -0.3587  0.6714  0.8504
 6904TIP3    H142127   3.711   5.150  11.101 -0.3977  0.4544  0.6472
 6904TIP3    H242128   3.771   5.011  11.103  0.4542  0.8172  0.7802
 6905TIP3   OH242129   2.767   0.201  13.793  0.5164  0.2042 -0.4439
 6905TIP3    H142130   2.694   0.140  13.781 -0.3296  1.0820  0.2191
 6905TIP3    H242131   2.845   0.149  13.774 -0.2671 -0.7922 -0.9668
 6906TIP3   OH242132   6.046   2.413   4.855 -0.1321 -0.7770  0.1422
 6906TIP3    H142133   5.983   2.438   4.922  0.6882 -0.2528  0.7262
 6906TIP3    H242134   6.047   2.317   4.858  0.3492 -0.7435  1.3078
 6907TIP3   OH242135   4.584   2.529   5.552  0.6592  0.8405  0.1252
 6907TIP3    H142136   4.499   2.491   5.576  1.0542 -0.5676 -0.7028
 6907TIP3    H242137   4.619   2.471   5.485  2.3440  1.3500  0.5377
 6908TIP3   OH242138   1.201   4.665  11.063  0.2014 -0.3527  0.1899
 6908TIP3    H142139   1.188   4.571  11.074 -1.3301 -0.2510 -0.6721
 6908TIP3    H242140   1.152   4.687  10.984  1.4244  0.9844 -0.2144
 6909TIP3   OH242141   6.430   5.318  13.302 -0.0929 -0.7330 -0.1270
 6909TIP3    H142142   6.395   5.229  13.306 -0.3412 -0.6105  0.4170
 6909TIP3    H242143   6.367   5.366  13.248  0.8835 -1.2721 -1.7972
 6910TIP3   OH242144   3.021   2.258   4.228  0.7003  0.0900 -0.3728
 6910TIP3    H142145   2.991   2.189   4.286 -1.0144  1.1004 -0.0242
 6910TIP3    H242146   2.967   2.249   4.150 -0.1202  1.5170  0.0023
 6911TIP3   OH242147   5.517   0.128   3.004  0.8460 -0.2510  0.1116
 6911TIP3    H142148   5.575   0.059   3.036  1.4415  0.1767 -0.0381
 6911TIP3    H242149   5.429   0.091   3.013  1.2140 -1.3856 -0.8565
 6912TIP3   OH242150   5.734   4.575  15.348  0.2391  0.6905  0.6067
 6912TIP3    H142151   5.708   4.583  15.256  1.0004  1.3577  0.4414
 6912TIP3    H242152   5.828   4.558  15.345  0.0654 -0.4337  1.2338
 6913TIP3   OH242153   2.568   0.439  15.348 -0.0634 -0.5619  0.1386
 6913TIP3    H142154   2.661   0.449  15.330 -0.1662 -0.5478 -0.3923
 6913TIP3    H242155   2.556   0.345  15.364  0.1598 -0.4640  0.8951
 6914TIP3   OH242156   0.196   4.664  14.158  0.6356 -0.8658 -0.0399
 6914TIP3    H142157   0.200   4.580  14.112  0.9117 -1.6309  1.3304
 6914TIP3    H242158   0.110   4.664  14.200 -1.3042  1.6456 -3.8498
 6915TIP3   OH242159   4.053   3.637   4.115 -0.3286 -0.0607 -0.1197
 6915TIP3    H142160   4.127   3.697   4.122  0.3780 -0.7300 -1.7801
 6915TIP3    H242161   4.045   3.598   4.202  0.9722  0.3509  0.1922
 6916TIP3   OH242162   4.840   3.902  12.391 -0.0117  0.0930  0.2831
 6916TIP3    H142163   4.762   3.846  12.384 -0.2628  0.2256  1.8555
 6916TIP3    H242164   4.868   3.916  12.300 -0.6898 -1.5338 -0.1831
 6917TIP3   OH242165   4.746   4.268  12.538 -0.5274 -0.4758  0.3953
 6917TIP3    H142166   4.778   4.339  12.593 -0.2733 -1.2225  1.2445
 6917TIP3    H242167   4.679   4.225  12.592 -0.8313 -0.7491 -0.1917
 6918TIP3   OH242168   3.809   5.782   0.370 -0.2407 -0.4467 -0.1445
 6918TIP3    H142169   3.763   5.780   0.286 -1.3757 -1.0615  0.4872
 6918TIP3    H242170   3.809   5.690   0.399  1.2062 -0.4246 -0.0466
 6919TIP3   OH242171   6.320   5.046   5.434  0.0987  0.3209 -0.1235
 6919TIP3    H142172   6.281   4.959   5.433 -0.9921  0.8106 -0.3144
 6919TIP3    H242173   6.393   5.039   5.497 -0.6020 -0.4511  0.6125
 6920TIP3   OH242174   4.324   3.605   3.439 -0.1892 -0.3109 -0.8407
 6920TIP3    H142175   4.280   3.667   3.381 -0.0167  0.7428  0.1509
 6920TIP3    H242176   4.313   3.520   3.395 -1.2441  0.2667 -1.7246
 6921TIP3   OH242177   6.377   1.292   1.810 -0.0904 -0.8100  0.1442
 6921TIP3    H142178   6.380   1.386   1.824 -0.8784 -0.9713  1.4518
 6921TIP3    H242179   6.468   1.266   1.801  0.1968 -0.0927  0.9501
 6922TIP3   OH242180   6.390   3.081  11.534 -0.0497 -0.2090 -0.3353
 6922TIP3    H142181   6.325   3.076  11.604 -1.9417  1.3331 -1.9074
 6922TIP3    H242182   6.356   3.023  11.465  1.8194 -1.7699  0.0293
 6923TIP3   OH242183   1.734   2.019  12.798  0.4162 -0.8048 -0.1089
 6923TIP3    H142184   1.677   2.045  12.726  1.0672  1.7745  0.2802
 6923TIP3    H242185   1.819   2.004  12.757  0.6617  0.1609  0.0498
 6924TIP3   OH242186   4.086   3.802   1.252  0.2562  0.5617  0.0568
 6924TIP3    H142187   4.126   3.868   1.197 -0.3943  0.8628 -0.0626
 6924TIP3    H242188   4.017   3.763   1.198  1.9633 -1.6406 -0.5938
 6925TIP3   OH242189   3.918   3.881  12.241  0.2439  0.9376  0.5209
 6925TIP3    H142190   3.927   3.811  12.305 -1.1739 -0.9269 -1.2515
 6925TIP3    H242191   3.921   3.961  12.293 -0.7762 -0.5240  2.9187
 6926TIP3   OH242192   5.311   6.767  15.795 -0.0178 -0.3191 -0.0156
 6926TIP3    H142193   5.374   6.767  15.867 -0.1359 -1.3176  0.0951
 6926TIP3    H242194   5.309   6.858  15.764  0.5955 -0.0470  0.7447
 6927TIP3   OH242195   1.194   0.972   2.018  0.0719  0.3894  0.1289
 6927TIP3    H142196   1.282   1.007   2.033  0.1056  0.5999 -0.5561
 6927TIP3    H242197   1.135   1.042   2.047  0.1367  0.5051 -0.0143
 6928TIP3   OH242198   6.766   3.344   3.891  0.1613 -0.2731 -0.4507
 6928TIP3    H142199   6.680   3.386   3.886 -0.0036 -0.6580 -0.8565
 6928TIP3    H242200   6.753   3.272   3.954  1.0217  1.6644  2.0355
 6929TIP3   OH242201   1.371   1.151  16.368 -0.1019 -0.5801 -0.8051
 6929TIP3    H142202   1.443   1.206  16.335 -0.0925  1.2347  2.0167
 6929TIP3    H242203   1.296   1.211  16.372 -0.8532 -1.5464 -0.4173
 6930TIP3   OH242204   3.846   0.720   5.589  0.3333 -0.2507  0.4067
 6930TIP3    H142205   3.914   0.771   5.633  0.7517 -0.4659  0.0155
 6930TIP3    H242206   3.861   0.630   5.617  0.6514 -0.3999 -0.2347
 6931TIP3   OH242207   6.613   3.043  11.338 -0.0647  0.2691  0.0355
 6931TIP3    H142208   6.588   2.981  11.270 -0.0970  0.5308 -0.1929
 6931TIP3    H242209   6.540   3.042  11.400  0.2811 -0.5018  0.4381
 6932TIP3   OH242210   6.666   0.977  16.950 -0.2890 -0.5036 -0.3479
 6932TIP3    H142211   6.633   0.908  16.893  0.5452 -0.4056 -0.9762
 6932TIP3    H242212   6.743   1.011  16.903 -0.5801  0.7108  0.0379
 6933TIP3   OH242213   5.128   5.124   2.801  0.3431  0.3895 -0.2176
 6933TIP3    H142214   5.079   5.135   2.720  0.6997  2.0711 -0.2327
 6933TIP3    H242215   5.203   5.069   2.777 -0.5524 -0.6646 -0.5993
 6934TIP3   OH242216   0.975   6.584   5.176 -0.3946  0.3068 -0.0261
 6934TIP3    H142217   0.933   6.592   5.091 -0.0315  0.6680 -0.1730
 6934TIP3    H242218   1.043   6.651   5.176 -0.2917  0.2075  0.4887
 6935TIP3   OH242219   1.708   3.646   0.136  0.7871 -0.2335 -0.2853
 6935TIP3    H142220   1.735   3.555   0.150  3.2841  0.3526 -1.0355
 6935TIP3    H242221   1.677   3.675   0.222  1.4615 -1.3194  0.3382
 6936TIP3   OH242222   4.666   3.206  16.900 -0.2228 -0.1114 -0.0316
 6936TIP3    H142223   4.636   3.134  16.844 -0.7778  0.4586 -0.4772
 6936TIP3    H242224   4.757   3.185  16.920 -0.5722 -1.2841  0.3902
 6937TIP3   OH242225   2.988   0.545   3.995  0.1060  0.2565 -0.0635
 6937TIP3    H142226   3.074   0.579   4.021  0.8334  0.3289 -2.4219
 6937TIP3    H242227   2.973   0.471   4.054  0.5383  1.8974  2.1601
 6938TIP3   OH242228   2.202   6.746   2.937  0.3137  0.5123 -0.0274
 6938TIP3    H142229   2.155   6.794   3.006  0.9729 -0.7209  1.3106
 6938TIP3    H242230   2.144   6.673   2.916  1.9784 -1.5700  2.3172
 6939TIP3   OH242231   0.266   4.300   2.256  0.1695  0.2172 -0.3890
 6939TIP3    H142232   0.224   4.233   2.202  2.0262 -0.5584 -0.8767
 6939TIP3    H242233   0.228   4.287   2.343  1.4916 -2.3728 -0.1557
 6940TIP3   OH242234   3.789   1.017  14.619 -0.0565  0.0900 -0.5295
 6940TIP3    H142235   3.723   1.047  14.681  1.0341  0.5400  0.4456
 6940TIP3    H242236   3.832   0.943  14.664 -1.1321 -1.4263 -1.9269
 6941TIP3   OH242237   3.551   0.219  12.369  0.6556 -0.5019  0.0874
 6941TIP3    H142238   3.461   0.252  12.364  1.8801  2.9854 -0.0056
 6941TIP3    H242239   3.545   0.143  12.427 -2.4932 -0.9682 -0.7123
 6942TIP3   OH242240   1.568   3.672   5.897  0.1612 -0.7181  0.1908
 6942TIP3    H142241   1.529   3.664   5.984 -0.8021  2.0051  0.0556
 6942TIP3    H242242   1.654   3.631   5.906  0.3786  0.1452  2.6463
 6943TIP3   OH242243   3.646   4.685  13.242 -0.4038 -0.0479  0.3032
 6943TIP3    H142244   3.727   4.675  13.193 -0.1403 -1.8082  1.0299
 6943TIP3    H242245   3.581   4.709  13.177  0.2197 -0.9846 -0.6953
 6944TIP3   OH242246   2.334   6.689   0.515  0.2451  0.6632 -0.2119
 6944TIP3    H142247   2.329   6.781   0.537  1.0520  0.6676 -0.0314
 6944TIP3    H242248   2.248   6.668   0.478 -0.5677  1.0290  1.4535
 6945TIP3   OH242249   6.327   1.986   3.724  0.7196 -0.1692  0.1701
 6945TIP3    H142250   6.379   1.951   3.797  0.0914 -1.6232 -0.0643
 6945TIP3    H242251   6.328   1.916   3.658 -1.1117 -0.0341 -0.0360
 6946TIP3   OH242252   4.070   2.934   6.257 -0.3158  0.1353  0.0025
 6946TIP3    H142253   4.137   2.994   6.289 -0.2018 -0.0172  0.0527
 6946TIP3    H242254   4.089   2.851   6.300 -1.0360  0.3030  0.6469
 6947TIP3   OH242255   3.580   2.072   5.241 -0.2149  0.8125 -0.1245
 6947TIP3    H142256   3.595   1.981   5.217  1.0386  0.4320  1.9876
 6947TIP3    H242257   3.559   2.069   5.334 -2.9212  2.4233 -0.6352
 6948TIP3   OH242258   1.232   0.201  16.442  0.2510  0.8467  0.0571
 6948TIP3    H142259   1.313   0.176  16.397  0.0131  0.7128 -0.2974
 6948TIP3    H242260   1.204   0.281  16.399 -1.5119 -0.8194 -1.9648
 6949TIP3   OH242261   3.988   0.538  16.287  0.3745  0.5389  0.3956
 6949TIP3    H142262   4.083   0.533  16.277  0.5208  2.0271  0.8389
 6949TIP3    H242263   3.975   0.590  16.366 -0.8081  1.0586 -0.1251
 6950TIP3   OH242264   5.577   2.775  14.098 -0.0001 -0.4200  0.3132
 6950TIP3    H142265   5.485   2.764  14.123  0.1163  0.0498  0.9472
 6950TIP3    H242266   5.575   2.785  14.003 -0.6259 -0.1383  0.3559
 6951TIP3   OH242267   1.791   5.935  11.932 -0.0282 -0.0990  0.0545
 6951TIP3    H142268   1.867   5.888  11.898  1.4301 -0.3318  3.4371
 6951TIP3    H242269   1.804   6.026  11.906  0.5808 -0.4150 -0.7484
 6952TIP3   OH242270   1.441   6.119  17.126 -0.1760 -0.2814  0.5317
 6952TIP3    H142271   1.414   6.210  17.124  0.8062  0.0358  1.0821
 6952TIP3    H242272   1.531   6.119  17.091 -0.1348 -1.0157  0.6151
 6953TIP3   OH242273   3.103   5.368   2.669 -0.0418  0.0872 -1.4079
 6953TIP3    H142274   3.123   5.402   2.582 -1.4208 -1.8503 -2.5164
 6953TIP3    H242275   3.020   5.410   2.692  1.5495  2.5494  0.1049
 6954TIP3   OH242276   0.906   5.108   1.262  0.1884  0.1766 -0.5009
 6954TIP3    H142277   0.947   5.063   1.336 -0.0148 -0.9631 -1.0673
 6954TIP3    H242278   0.868   5.037   1.210  0.6869  0.9454 -1.9051
 6955TIP3   OH242279   6.580   2.189  14.585  0.3310 -0.3388  0.0231
 6955TIP3    H142280   6.566   2.135  14.507 -0.4157  2.6889 -2.0212
 6955TIP3    H242281   6.673   2.211  14.583  0.6492 -1.5820  0.8913
 6956TIP3   OH242282   1.407   2.709  15.580 -0.2716  0.5374 -0.2429
 6956TIP3    H142283   1.411   2.736  15.489  0.2646 -0.8201 -0.6349
 6956TIP3    H242284   1.497   2.685  15.603 -0.8500 -1.7158 -0.1879
 6957TIP3   OH242285   6.721   6.159  13.015 -0.1313  0.1120  0.1218
 6957TIP3    H142286   6.814   6.176  13.033  0.4605 -3.9256  1.5083
 6957TIP3    H242287   6.675   6.199  13.089  0.8678 -1.1484  1.4591
 6958TIP3   OH242288   1.599   2.144  15.699  0.9025 -0.0883 -0.2225
 6958TIP3    H142289   1.537   2.156  15.627 -0.8924 -0.1357  1.2946
 6958TIP3    H242290   1.594   2.226  15.749 -1.4286 -1.8239  2.5272
 6959TIP3   OH242291   0.417   1.388  12.655  0.2534  0.1685  0.2341
 6959TIP3    H142292   0.407   1.477  12.621 -1.8360  0.2508  0.9905
 6959TIP3    H242293   0.433   1.399  12.749 -1.6184 -0.2885  0.6195
 6960TIP3   OH242294   1.608   2.093  17.006 -0.2571  0.2855  0.3533
 6960TIP3    H142295   1.619   2.103  16.911 -0.5165 -0.0742  0.2852
 6960TIP3    H242296   1.540   2.026  17.015  0.8559 -0.8105  0.8003
 6961TIP3   OH242297   5.408   2.992  17.000  0.6059 -0.3827  0.6921
 6961TIP3    H142298   5.350   2.992  16.924  0.5095 -0.8385  0.7608
 6961TIP3    H242299   5.403   3.081  17.035  0.1002 -0.3645  0.5820
 6962TIP3   OH242300   5.007   4.084   1.808  0.1709  0.0365  0.3655
 6962TIP3    H142301   4.959   4.001   1.802 -3.1789  1.9056 -0.3537
 6962TIP3    H242302   4.988   4.116   1.896  1.2051  0.1645  0.5416
 6963TIP3   OH242303   6.642   6.580  12.398  0.2359  0.3348 -0.2938
 6963TIP3    H142304   6.693   6.658  12.419  1.3744  0.0455 -1.8749
 6963TIP3    H242305   6.599   6.556  12.480  1.6021  1.3534  0.7353
 6964TIP3   OH242306   2.717   1.783   1.187  0.1558 -0.2460 -0.3365
 6964TIP3    H142307   2.747   1.866   1.150 -1.7822  0.1677 -1.0462
 6964TIP3    H242308   2.740   1.790   1.280 -1.5656  1.8909 -0.0105
 6965TIP3   OH242309   1.976   5.148  13.978  0.4447  0.0706  0.6608
 6965TIP3    H142310   2.001   5.131  13.887 -1.3206  3.2598 -0.5280
 6965TIP3    H242311   2.056   5.179  14.020  1.2568 -1.3671  0.2155
 6966TIP3   OH242312   3.823   5.633  11.809 -0.7281 -0.2130 -1.1721
 6966TIP3    H142313   3.848   5.719  11.846 -0.3537 -0.3851 -1.0192
 6966TIP3    H242314   3.735   5.618  11.842  0.0899 -0.9701  0.7790
 6967TIP3   OH242315   6.236   5.026   2.693 -0.2716 -0.0628 -0.2627
 6967TIP3    H142316   6.246   5.121   2.697  0.0766 -0.0435 -1.4508
 6967TIP3    H242317   6.287   5.000   2.617 -0.6333 -1.1732 -0.1305
 6968TIP3   OH242318   6.466   6.250  17.223 -0.3188 -0.0635 -0.3829
 6968TIP3    H142319   6.506   6.320  17.276 -0.7419  0.8186 -1.2127
 6968TIP3    H242320   6.384   6.288  17.191  0.3682 -0.2383 -2.4404
 6969TIP3   OH242321   3.317   5.929   2.840 -0.3366  0.3578 -0.2564
 6969TIP3    H142322   3.396   5.974   2.811  1.8127 -3.1451 -0.0440
 6969TIP3    H242323   3.277   5.895   2.760 -0.2581 -0.0855 -0.1044
 6970TIP3   OH242324   3.329   1.474   4.854  0.2587  0.0748 -0.2405
 6970TIP3    H142325   3.360   1.564   4.847  0.1436  0.1937  0.7118
 6970TIP3    H242326   3.250   1.472   4.800  0.2634  0.5354 -0.2684
 6971TIP3   OH242327   1.268   5.447   2.716 -0.3296 -0.2532 -0.6056
 6971TIP3    H142328   1.343   5.395   2.745 -0.3066 -0.8605 -1.7069
 6971TIP3    H242329   1.195   5.385   2.713 -0.1736 -0.3836 -2.4857
 6972TIP3   OH242330   0.282   2.157  13.313  0.8805  0.0168  0.0328
 6972TIP3    H142331   0.343   2.083  13.320 -1.4652 -2.3011 -2.9707
 6972TIP3    H242332   0.207   2.132  13.366  0.3489  0.5412 -0.4572
 6973TIP3   OH242333   1.163   2.098  16.978  0.2267  0.8292  1.0603
 6973TIP3    H142334   1.257   2.087  16.991  0.4067 -0.1908 -0.9230
 6973TIP3    H242335   1.155   2.185  16.937  0.2414  1.1490  1.7225
 6974TIP3   OH242336   2.565   3.070   5.559  0.1305 -0.7512  0.5689
 6974TIP3    H142337   2.488   3.070   5.503 -0.9877 -0.0659  2.0913
 6974TIP3    H242338   2.545   3.007   5.628  0.6606 -0.0812  1.3439
 6975TIP3   OH242339   3.645   2.406   2.139 -1.0041 -0.2535  0.2659
 6975TIP3    H142340   3.578   2.399   2.207 -0.4681  0.1300  0.8466
 6975TIP3    H242341   3.723   2.368   2.178 -0.6266  0.1934 -0.0411
 6976TIP3   OH242342   5.475   3.327  15.630 -0.1189  0.6465  0.0825
 6976TIP3    H142343   5.394   3.348  15.584 -0.0205 -0.1695 -0.4830
 6976TIP3    H242344   5.491   3.234  15.610  0.8125  0.7271  0.3943
 6977TIP3   OH242345   1.108   4.142  14.342 -0.2949  0.1914 -0.2757
 6977TIP3    H142346   1.015   4.159  14.359  0.3774  1.0373  2.6950
 6977TIP3    H242347   1.125   4.057  14.383  0.5886  0.7033  0.4156
 6978TIP3   OH242348   0.549   1.392   4.316 -0.3580 -0.0313 -0.1462
 6978TIP3    H142349   0.492   1.337   4.262 -1.5199  1.1685 -0.1776
 6978TIP3    H242350   0.503   1.476   4.320  1.0216  0.6973  0.5186
 6979TIP3   OH242351   3.407   3.122   4.584 -0.0435 -0.3831 -0.5845
 6979TIP3    H142352   3.326   3.073   4.566 -2.1535  2.4087  0.8098
 6979TIP3    H242353   3.405   3.137   4.679  0.3145  2.6011 -0.9842
 6980TIP3   OH242354   4.902   1.712   1.783 -0.1954  0.2050 -0.8885
 6980TIP3    H142355   4.809   1.718   1.763  0.6017  3.0207 -4.2712
 6980TIP3    H242356   4.935   1.642   1.726  0.1167  0.7347 -1.3717
 6981TIP3   OH242357   0.931   2.359   0.882  0.1871 -0.0091 -0.0996
 6981TIP3    H142358   0.837   2.337   0.878  0.1318 -0.2407  1.8969
 6981TIP3    H242359   0.971   2.281   0.920  0.9806  0.6904  0.4907
 6982TIP3   OH242360   2.612   4.275  14.878 -0.3578  1.0529  0.3110
 6982TIP3    H142361   2.694   4.281  14.828 -0.4607  0.3261  0.0502
 6982TIP3    H242362   2.610   4.355  14.930  1.6729  0.0404  2.0736
 6983TIP3   OH242363   5.250   6.419   1.885 -0.4096 -0.6249  0.0541
 6983TIP3    H142364   5.194   6.395   1.812 -0.5679  0.3918 -0.1741
 6983TIP3    H242365   5.323   6.466   1.844 -0.4545 -0.1307  0.5298
 6984TIP3   OH242366   5.948   4.023  12.705  0.0514  0.0173  0.6783
 6984TIP3    H142367   5.909   4.083  12.641 -0.0821  0.3580  1.0740
 6984TIP3    H242368   6.010   4.078  12.754  0.6742 -0.4035  0.3798
 6985TIP3   OH242369   2.707   6.205   5.451  0.2316 -0.4396 -0.1617
 6985TIP3    H142370   2.648   6.159   5.511 -0.2604  0.0746 -0.2399
 6985TIP3    H242371   2.717   6.292   5.490 -1.5985  0.5327 -1.7791
 6986TIP3   OH242372   4.296   4.013  15.313 -0.1608  0.0244 -0.2094
 6986TIP3    H142373   4.300   4.058  15.229  0.5004  0.3757  0.0033
 6986TIP3    H242374   4.337   3.928  15.296  0.3965  0.2742 -0.1362
 6987TIP3   OH242375   4.633   2.010  11.229  0.1261  0.3346 -0.2241
 6987TIP3    H142376   4.678   1.943  11.178  0.1869 -0.8958  1.4023
 6987TIP3    H242377   4.541   2.003  11.202  0.5042  1.1852 -1.7544
 6988TIP3   OH242378   5.540   6.163  14.844  0.3673  0.0895 -0.1800
 6988TIP3    H142379   5.567   6.194  14.931  2.2833  0.2190 -0.8015
 6988TIP3    H242380   5.483   6.233  14.810  0.6056  0.6091  0.4748
 6989TIP3   OH242381   5.520   0.895  10.564  0.4664 -0.0150 -0.1572
 6989TIP3    H142382   5.464   0.843  10.506  0.3071 -2.4402  2.0817
 6989TIP3    H242383   5.609   0.870  10.541  0.3924 -1.3263  0.8642
 6990TIP3   OH242384   0.542   2.540   4.405  0.4978 -0.0096 -0.4723
 6990TIP3    H142385   0.607   2.479   4.441  1.2459  0.3576 -1.2007
 6990TIP3    H242386   0.558   2.622   4.452 -0.7078 -0.4374  0.7270
 6991TIP3   OH242387   0.076   3.548  14.609 -0.1857 -0.2868 -0.5097
 6991TIP3    H142388  -0.007   3.555  14.656  0.2745  0.5295  0.1944
 6991TIP3    H242389   0.056   3.494  14.533 -1.0413 -1.2554  0.3923
 6992TIP3   OH242390   6.762   1.512   0.149  0.3932  0.2151  0.0908
 6992TIP3    H142391   6.689   1.574   0.152  0.2256  0.0035  0.4638
 6992TIP3    H242392   6.743   1.456   0.074  1.4708  1.7382 -1.3550
 6993TIP3   OH242393   1.690   4.501  14.973 -0.6452  0.2420  0.8239
 6993TIP3    H142394   1.722   4.438  15.037 -1.1216 -0.9838 -0.1153
 6993TIP3    H242395   1.594   4.494  14.979 -0.6975  0.8824  0.7295
 6994TIP3   OH242396   4.056   0.901   5.681 -0.2891  0.2089  0.2768
 6994TIP3    H142397   4.110   0.933   5.609 -0.8045  2.4488  0.8339
 6994TIP3    H242398   4.080   0.809   5.691  2.6939  0.8999 -0.1495
 6995TIP3   OH242399   5.484   6.297   3.761  0.5378 -0.0918  0.0890
 6995TIP3    H142400   5.496   6.391   3.748 -0.0116  0.1073  0.9644
 6995TIP3    H242401   5.563   6.269   3.809  0.5315 -0.0121  0.1448
 6996TIP3   OH242402   1.932   3.584  11.179 -0.0447 -0.5535  0.4951
 6996TIP3    H142403   2.003   3.640  11.146  0.1987 -0.9854  0.2835
 6996TIP3    H242404   1.852   3.628  11.151  0.1640 -1.3943 -1.5224
 6997TIP3   OH242405   2.159   0.264   5.249  0.1355 -0.3515  0.0394
 6997TIP3    H142406   2.134   0.172   5.259  1.1342 -0.5463  0.8002
 6997TIP3    H242407   2.079   0.313   5.269 -1.0925 -1.1048 -2.8113
 6998TIP3   OH242408   1.128   2.981  16.346 -0.2951 -0.3167 -0.3127
 6998TIP3    H142409   1.146   3.072  16.370 -1.5016 -0.3644  0.8040
 6998TIP3    H242410   1.035   2.981  16.323  0.1151 -0.9174 -2.0094
 6999TIP3   OH242411   0.245   2.143  12.040 -0.2418 -0.1563 -0.2564
 6999TIP3    H142412   0.228   2.049  12.034 -0.6719 -0.2872  2.4690
 6999TIP3    H242413   0.320   2.151  12.099 -1.5084  1.2711  1.2356
 7000TIP3   OH242414   1.122   5.931  15.983  0.1015 -0.4049  0.4062
 7000TIP3    H142415   1.172   6.005  15.948 -0.2404  0.3838  1.5416
 7000TIP3    H242416   1.040   5.970  16.014  1.0191 -0.7791  3.5004
 7001TIP3   OH242417   2.954   5.634   0.179 -0.6771  0.0765 -0.0648
 7001TIP3    H142418   2.920   5.588   0.255 -1.0838  0.8575  0.2338
 7001TIP3    H242419   2.941   5.573   0.106 -0.3013 -0.6638  0.4872
 7002TIP3   OH242420   3.100   1.205   2.061 -0.3877 -0.6115  0.0932
 7002TIP3    H142421   3.143   1.197   1.976 -0.3313  0.9223 -0.0438
 7002TIP3    H242422   3.161   1.257   2.114 -0.7047 -1.0168  0.8746
 7003TIP3   OH242423   2.674   3.563  12.563 -0.0220 -0.4249 -0.8192
 7003TIP3    H142424   2.578   3.563  12.555 -0.0444  0.5706 -0.6584
 7003TIP3    H242425   2.691   3.511  12.642 -0.3618 -1.5201 -1.4583
 7004TIP3   OH242426   1.430   0.840   5.968 -0.6246 -0.0832 -0.5231
 7004TIP3    H142427   1.400   0.886   6.046  0.2250  0.8641 -0.7497
 7004TIP3    H242428   1.521   0.817   5.987  0.0594  1.4415 -1.7910
 7005TIP3   OH242429   0.402   6.606   3.606 -0.1001 -0.4000 -0.4195
 7005TIP3    H142430   0.322   6.553   3.608 -1.2026  1.1730 -1.1799
 7005TIP3    H242431   0.422   6.616   3.513 -0.1902  0.8959 -0.3115
 7006TIP3   OH242432   3.506   6.465  15.253 -0.2939  0.3418 -0.0000
 7006TIP3    H142433   3.473   6.402  15.189  0.2079  0.3607 -0.2792
 7006TIP3    H242434   3.430   6.485  15.308 -0.3115 -0.9476  0.4577
 7007TIP3   OH242435   5.136   3.234  13.183  0.0187 -0.8674  0.1114
 7007TIP3    H142436   5.095   3.224  13.097 -0.5410 -1.6899  0.4653
 7007TIP3    H242437   5.083   3.180  13.241  1.1296 -1.2867  0.7415
 7008TIP3   OH242438   4.142   0.747   2.530 -0.1673  0.4015  0.2538
 7008TIP3    H142439   4.115   0.780   2.444 -2.5123  0.6772  1.0552
 7008TIP3    H242440   4.196   0.817   2.567  0.6348  0.3945 -0.8761
 7009TIP3   OH242441   5.641   4.227   1.442 -0.2212  0.4273  0.4426
 7009TIP3    H142442   5.684   4.312   1.451 -1.1249  0.7053  2.5545
 7009TIP3    H242443   5.549   4.249   1.425  0.2784 -0.1568 -3.5551
 7010TIP3   OH242444   5.134   0.447   3.425  0.4860  0.2748  0.3360
 7010TIP3    H142445   5.201   0.492   3.374  0.5820  0.7720  0.9014
 7010TIP3    H242446   5.170   0.359   3.439  0.6871  0.3016  0.0040
 7011TIP3   OH242447   3.521   3.102   4.874  0.0152 -0.2033  0.0488
 7011TIP3    H142448   3.450   3.045   4.902 -0.0147 -0.1582  0.0657
 7011TIP3    H242449   3.592   3.043   4.851  0.5830 -0.1891  1.7074
 7012TIP3   OH242450   0.552   3.099  11.924  0.1873  0.6037 -0.4103
 7012TIP3    H142451   0.509   3.126  12.005  0.7575  0.8407 -0.1805
 7012TIP3    H242452   0.492   3.036  11.884 -0.7258  1.5370 -0.5024
 7013TIP3   OH242453   2.870   5.804   2.107 -0.3731 -0.2340 -0.2675
 7013TIP3    H142454   2.783   5.833   2.079 -1.0564 -1.6434  0.3708
 7013TIP3    H242455   2.853   5.745   2.180  1.1071 -0.7838 -0.3619
 7014TIP3   OH242456   1.948   2.284   3.812 -0.0086 -0.2563 -0.0977
 7014TIP3    H142457   1.900   2.201   3.814  0.4489 -0.5238 -0.2510
 7014TIP3    H242458   1.887   2.347   3.851  0.2239 -0.9678  1.4722
 7015TIP3   OH242459   0.878   2.497   3.356 -0.4092 -1.3339 -0.0226
 7015TIP3    H142460   0.966   2.460   3.366  2.5382  4.7088 -0.9161
 7015TIP3    H242461   0.851   2.471   3.268  0.5482 -3.0600  0.1735
 7016TIP3   OH242462   1.844   3.250   2.397 -0.3068 -0.2329  0.3716
 7016TIP3    H142463   1.885   3.315   2.454 -0.0527 -1.3648  1.5080
 7016TIP3    H242464   1.751   3.258   2.415 -0.1350 -1.4195  1.8732
 7017TIP3   OH242465   6.696   5.524  16.073  0.0624 -0.0525  0.4379
 7017TIP3    H142466   6.615   5.540  16.023  0.2265 -0.6773 -0.0363
 7017TIP3    H242467   6.699   5.595  16.136 -1.4396 -0.6338  1.1956
 7018TIP3   OH242468   2.616   4.428  10.685 -0.6474 -0.1353  0.3929
 7018TIP3    H142469   2.585   4.518  10.688  2.4478  0.9685  0.8289
 7018TIP3    H242470   2.681   4.422  10.755  0.3440 -2.2670 -0.6553
 7019TIP3   OH242471   6.567   2.598  16.752  0.8603 -0.1935 -0.3143
 7019TIP3    H142472   6.626   2.566  16.820 -0.9417  1.6456  2.2445
 7019TIP3    H242473   6.480   2.570  16.782 -0.1846  2.5232 -0.7085
 7020TIP3   OH242474   2.740   6.309   3.280 -0.6342  0.7684  0.8359
 7020TIP3    H142475   2.670   6.371   3.263 -0.7285  0.0746 -1.3612
 7020TIP3    H242476   2.793   6.309   3.201  2.0902  1.5455  2.5772
 7021TIP3   OH242477   2.789   3.122   3.747 -0.2485  0.4439 -0.4070
 7021TIP3    H142478   2.727   3.064   3.702  2.0357 -1.5472 -1.1120
 7021TIP3    H242479   2.839   3.064   3.805 -0.9414  2.4547  2.3470
 7022TIP3   OH242480   0.067   4.375   5.094  0.1407  0.4197  0.2039
 7022TIP3    H142481   0.155   4.340   5.085  1.0685  2.3262  1.6685
 7022TIP3    H242482   0.044   4.362   5.186 -1.6142 -1.1569 -0.4059
 7023TIP3   OH242483   5.157   4.559   0.954  0.1046  0.2637 -0.4667
 7023TIP3    H142484   5.136   4.652   0.946 -0.0152  0.3523  0.7482
 7023TIP3    H242485   5.230   4.556   1.015 -0.3854 -0.4945  0.0936
 7024TIP3   OH242486   4.517   3.619   4.775  0.2460  0.5709 -0.4620
 7024TIP3    H142487   4.462   3.664   4.840  0.6474 -1.1327  1.0903
 7024TIP3    H242488   4.469   3.628   4.693 -2.0207 -0.2338  0.7176
 7025TIP3   OH242489   1.896   3.199  13.915  0.2894  0.0618 -0.1110
 7025TIP3    H142490   1.895   3.201  13.820 -0.2316  0.4311 -0.0987
 7025TIP3    H242491   1.900   3.291  13.941  3.4197 -0.0876  0.1997
 7026TIP3   OH242492   5.704   5.445   3.976 -0.5630  0.0288 -0.5369
 7026TIP3    H142493   5.721   5.364   4.024  0.2058 -0.3338 -1.4160
 7026TIP3    H242494   5.771   5.448   3.908 -0.9285  1.1248 -0.8674
 7027TIP3   OH242495   5.138   3.913   0.296  0.1030 -0.0007 -0.3598
 7027TIP3    H142496   5.211   3.972   0.316  1.3428 -1.2786 -1.0327
 7027TIP3    H242497   5.143   3.845   0.363  0.6008 -1.0228 -1.4133
 7028TIP3   OH242498   3.405   5.524  14.237 -0.2373 -0.3345 -0.0458
 7028TIP3    H142499   3.427   5.607  14.279 -0.6975  0.1273 -0.7088
 7028TIP3    H242500   3.412   5.541  14.143  1.7135 -1.6147 -0.1729
 7029TIP3   OH242501   5.707   0.788  11.998 -0.0370 -0.2670  0.7366
 7029TIP3    H142502   5.693   0.697  12.024 -0.5064 -0.6660 -0.8794
 7029TIP3    H242503   5.709   0.786  11.902 -0.6567  1.5037  0.6711
 7030TIP3   OH242504   4.478   6.255   5.622 -0.2473 -0.4506 -0.0490
 7030TIP3    H142505   4.564   6.259   5.580 -0.2847 -1.3943 -0.2191
 7030TIP3    H242506   4.496   6.267   5.715 -0.2063  2.1394 -0.3525
 7031TIP3   OH242507   4.515   0.612  13.493  0.2831 -0.0883 -0.3858
 7031TIP3    H142508   4.593   0.603  13.438  1.1784  0.3363  0.7950
 7031TIP3    H242509   4.447   0.564  13.446  1.4722 -1.1836 -1.0149
 7032TIP3   OH242510   0.357   4.277   5.056  0.2392 -0.0341  0.0097
 7032TIP3    H142511   0.428   4.337   5.079  1.3834 -0.8773 -1.2444
 7032TIP3    H242512   0.357   4.212   5.126  0.2042  0.3824  0.4020
 7033TIP3   OH242513   5.384   1.465  11.382  0.3311  0.3240 -0.1070
 7033TIP3    H142514   5.327   1.399  11.423 -0.6744  1.4650  0.3425
 7033TIP3    H242515   5.467   1.456  11.429 -0.1767  0.1982  0.7909
 7034TIP3   OH242516   3.097   6.466   4.505 -0.0141 -0.0320 -0.6430
 7034TIP3    H142517   3.102   6.513   4.589 -0.1025  0.4617 -0.9137
 7034TIP3    H242518   3.004   6.462   4.485  0.0009 -0.2330 -0.6747
 7035TIP3   OH242519   5.672   2.044   4.359 -0.0547  0.5609  0.3002
 7035TIP3    H142520   5.603   1.987   4.326 -1.8445  1.7578  1.8348
 7035TIP3    H242521   5.670   2.120   4.302 -0.5653  0.9447  0.8187
 7036TIP3   OH242522   5.401   1.446   0.361  0.2534  0.1593 -0.0983
 7036TIP3    H142523   5.324   1.440   0.418  1.7058 -0.4653  1.8305
 7036TIP3    H242524   5.476   1.445   0.420  1.8043 -0.0739 -1.9953
 7037TIP3   OH242525   1.971   6.513   1.120  0.1427  0.1425 -0.0399
 7037TIP3    H142526   1.899   6.450   1.130  0.4687 -0.3682 -0.9067
 7037TIP3    H242527   2.042   6.463   1.080  0.7121  0.8484  0.0716
 7038TIP3   OH242528   6.569   1.001  16.069  0.0308 -0.0455 -0.0846
 7038TIP3    H142529   6.629   0.973  16.138  0.9520  1.4429 -0.2672
 7038TIP3    H242530   6.538   0.919  16.030 -1.3232 -0.9228  2.7450
 7039TIP3   OH242531   1.695   2.898  14.198 -0.3220  0.1287  0.0326
 7039TIP3    H142532   1.636   2.965  14.166 -0.9371 -0.1014  0.6872
 7039TIP3    H242533   1.774   2.909  14.145  0.1098  2.2571  1.0766
 7040TIP3   OH242534   0.679   3.279   3.005  0.5710 -0.0259  0.0699
 7040TIP3    H142535   0.629   3.247   2.929 -0.0304 -0.5577  0.6883
 7040TIP3    H242536   0.744   3.211   3.020 -1.0160 -1.2475  1.6878
 7041TIP3   OH242537   0.206   6.782  15.106  0.1625 -0.2553 -0.2656
 7041TIP3    H142538   0.275   6.762  15.170 -0.4507  0.4853  0.6382
 7041TIP3    H242539   0.202   6.704  15.051  0.5547 -1.0084  0.7439
 7042TIP3   OH242540   6.544   0.158  16.931 -0.2881 -0.3296  0.0492
 7042TIP3    H142541   6.570   0.073  16.895  0.3093 -0.0057 -0.3003
 7042TIP3    H242542   6.602   0.169  17.007 -0.0285 -0.0119 -0.1977
 7043TIP3   OH242543   4.035   3.054   3.866 -0.2364 -0.5096  0.0694
 7043TIP3    H142544   4.116   3.015   3.897 -1.1257 -3.3947 -1.1558
 7043TIP3    H242545   3.983   3.066   3.946 -0.2080 -2.4950  0.4155
 7044TIP3   OH242546   2.087   5.531  11.636  0.3450  0.1684  0.1163
 7044TIP3    H142547   2.113   5.443  11.607 -0.0673 -0.0343  0.3429
 7044TIP3    H242548   2.100   5.586  11.560  2.6865  0.3415  0.6006
 7045TIP3   OH242549   2.174   6.267   0.461  0.9162 -0.7203  0.1910
 7045TIP3    H142550   2.161   6.303   0.549  2.3230 -3.4381  1.5612
 7045TIP3    H242551   2.227   6.333   0.416 -1.0236  1.3618  0.8790
 7046TIP3   OH242552   2.648   3.597   1.784 -0.0848  0.0303 -0.0208
 7046TIP3    H142553   2.673   3.684   1.816 -0.4727 -0.4084  1.5575
 7046TIP3    H242554   2.604   3.614   1.701  1.6636  1.1540 -0.7305
 7047TIP3   OH242555   1.443   4.638  16.071  0.1052 -0.2824 -0.0434
 7047TIP3    H142556   1.414   4.729  16.074  1.2415  0.0763  0.2993
 7047TIP3    H242557   1.501   4.629  16.147 -0.3205 -1.4067  0.1583
 7048TIP3   OH242558   4.469   3.003  13.528 -0.1462  0.1147  0.4756
 7048TIP3    H142559   4.448   2.917  13.566 -0.9373 -0.1231 -0.4900
 7048TIP3    H242560   4.386   3.036  13.495  0.6928 -0.1323 -1.9575
 7049TIP3   OH242561   1.750   4.304   2.158  0.2466 -0.7213  0.1283
 7049TIP3    H142562   1.839   4.304   2.122  0.7120  0.7758  1.2462
 7049TIP3    H242563   1.700   4.358   2.097 -0.0039 -1.8466 -0.6933
 7050TIP3   OH242564   1.078   5.204  13.692 -0.0561  0.2604 -0.6871
 7050TIP3    H142565   1.063   5.143  13.619 -1.1098  0.8979 -1.0161
 7050TIP3    H242566   1.021   5.278  13.673  0.5672  0.9670  0.1708
 7051TIP3   OH242567   4.636   3.572   2.132 -0.3449  0.0312 -0.1732
 7051TIP3    H142568   4.634   3.594   2.225 -2.1912 -0.0943 -0.1786
 7051TIP3    H242569   4.587   3.490   2.126 -2.0671  1.1448 -1.5443
 7052TIP3   OH242570   0.963   0.347   3.726 -0.1783 -0.3220 -0.3668
 7052TIP3    H142571   0.907   0.287   3.677 -2.8337  0.8541  1.1414
 7052TIP3    H242572   0.968   0.309   3.814 -0.8833  1.0116  0.2585
 7053TIP3   OH242573   4.530   5.715   5.941 -0.5382  0.2636  0.4548
 7053TIP3    H142574   4.452   5.771   5.936  0.1425  1.2607  0.8989
 7053TIP3    H242575   4.603   5.774   5.921 -0.1096 -1.2093 -2.5729
 7054TIP3   OH242576   2.533   6.396  15.778 -0.3533 -0.0250  0.0678
 7054TIP3    H142577   2.438   6.389  15.785 -0.2899 -1.4287 -0.4188
 7054TIP3    H242578   2.567   6.344  15.851  0.0563 -0.9097 -0.7397
 7055TIP3   OH242579   3.095   5.745  13.970 -0.4058  0.2141 -0.1495
 7055TIP3    H142580   3.030   5.677  13.986  1.0296 -1.1910 -0.2131
 7055TIP3    H242581   3.092   5.800  14.049 -0.8677 -0.4974  0.3340
 7056TIP3   OH242582   1.641   1.125  14.177 -0.0758  0.5521  0.0537
 7056TIP3    H142583   1.699   1.097  14.248  0.2866 -0.0619 -0.4882
 7056TIP3    H242584   1.666   1.071  14.102  0.9168  2.6240 -1.1317
 7057TIP3   OH242585   4.284   1.163   3.732 -0.0697  0.8042  0.1296
 7057TIP3    H142586   4.216   1.229   3.728 -0.6073  0.2426 -0.1263
 7057TIP3    H242587   4.238   1.082   3.755  0.2621  0.0784 -1.7114
 7058TIP3   OH242588   3.532   3.956  12.481  0.0424 -0.0468  0.6227
 7058TIP3    H142589   3.481   4.027  12.442 -1.4963 -1.2951  0.3184
 7058TIP3    H242590   3.528   3.972  12.575 -0.7527 -0.0167  0.5903
 7059TIP3   OH242591   4.063   4.497  12.693  0.2779  0.0707  0.7118
 7059TIP3    H142592   4.110   4.461  12.618  0.1544 -1.0976  1.1916
 7059TIP3    H242593   4.022   4.577  12.659 -0.3902 -0.8361 -0.6781
 7060TIP3   OH242594   4.652   6.041  14.127  0.4832 -0.3139  0.4184
 7060TIP3    H142595   4.703   6.111  14.086  0.3555 -1.1792 -1.2264
 7060TIP3    H242596   4.561   6.066  14.113  0.4124 -1.8427 -2.0109
 7061TIP3   OH242597   2.942   0.919   3.056  0.5358 -0.5352  0.5150
 7061TIP3    H142598   2.917   0.878   2.973 -0.3982 -1.0901  1.0635
 7061TIP3    H242599   2.920   1.011   3.045  0.7974 -0.5271  0.0014
 7062TIP3   OH242600   3.553   3.922   6.296 -0.1403 -0.7235  0.3003
 7062TIP3    H142601   3.606   3.881   6.227 -0.7613 -2.2000  0.6812
 7062TIP3    H242602   3.603   3.907   6.376 -0.4155 -0.8213  0.4539
 7063TIP3   OH242603   6.214   6.535   1.716  0.2505 -0.1921  0.3455
 7063TIP3    H142604   6.302   6.566   1.698 -0.1099  0.5775 -0.1171
 7063TIP3    H242605   6.173   6.606   1.765 -0.8067  0.4041 -1.3440
 7064TIP3   OH242606   1.549   1.910   4.008  0.7226 -0.0400  0.5982
 7064TIP3    H142607   1.611   1.973   4.045 -0.1251  0.4644  1.2031
 7064TIP3    H242608   1.529   1.851   4.081  1.6667 -1.1328 -0.0271
 7065TIP3   OH242609   1.767   4.993  15.748  0.5788 -0.4445  0.1885
 7065TIP3    H142610   1.833   5.020  15.812 -0.9894 -1.1131  2.1100
 7065TIP3    H242611   1.786   4.900  15.733 -0.4574 -0.8546  1.3977
 7066TIP3   OH242612   3.297   6.154   3.308  0.6846  0.0072 -0.0757
 7066TIP3    H142613   3.388   6.175   3.285  0.0344  0.3171 -2.5330
 7066TIP3    H242614   3.251   6.238   3.300 -0.1470 -0.4963 -0.6039
 7067TIP3   OH242615   3.510   6.360  11.196 -0.3045 -0.5910  0.3492
 7067TIP3    H142616   3.568   6.415  11.143 -1.3764 -0.1151 -0.3548
 7067TIP3    H242617   3.432   6.414  11.211 -0.6079 -1.2496  1.2075
 7068TIP3   OH242618   6.492   2.264   2.261  0.2668  0.6807  0.3440
 7068TIP3    H142619   6.555   2.283   2.191  1.5574  0.0709  1.3202
 7068TIP3    H242620   6.408   2.256   2.216  1.3407 -1.4146 -1.3647
 7069TIP3   OH242621   5.191   1.857   5.190  0.0822 -0.6953 -0.3212
 7069TIP3    H142622   5.135   1.789   5.153 -1.4232 -0.6585  1.7791
 7069TIP3    H242623   5.274   1.814   5.208  0.3645 -1.0478 -2.3927
 7070TIP3   OH242624   5.412   4.584  11.260 -0.6658  0.0848 -0.0539
 7070TIP3    H142625   5.346   4.650  11.239 -0.8635 -0.3441 -0.8008
 7070TIP3    H242626   5.402   4.518  11.192 -0.1558 -0.4898  0.4268
 7071TIP3   OH242627   2.978   2.712  12.501  0.0114  0.1784  0.1991
 7071TIP3    H142628   2.952   2.651  12.431 -1.2325 -0.0543  0.8521
 7071TIP3    H242629   3.023   2.657  12.565 -1.9057 -0.2711  1.2260
 7072TIP3   OH242630   1.902   4.791   1.760  0.2054  0.4232 -0.3821
 7072TIP3    H142631   1.852   4.763   1.836  1.4477 -0.8257  0.0087
 7072TIP3    H242632   1.840   4.788   1.687 -0.3736 -0.7953  0.1433
 7073TIP3   OH242633   2.276   2.594  14.080 -0.1015 -0.6158  0.0966
 7073TIP3    H142634   2.362   2.634  14.066 -0.7985  0.9456  0.1910
 7073TIP3    H242635   2.221   2.632  14.011 -0.8767 -1.0953  0.4472
 7074TIP3   OH242636   0.348   4.733   3.941  0.6247 -0.4934 -0.7291
 7074TIP3    H142637   0.295   4.656   3.921  0.4121 -0.8964  1.2501
 7074TIP3    H242638   0.368   4.725   4.034 -0.3271  2.3696 -0.2146
 7075TIP3   OH242639   3.423   3.889   5.925 -0.5760 -0.2306 -0.1161
 7075TIP3    H142640   3.445   3.825   5.992  0.0618 -0.6762 -0.7414
 7075TIP3    H242641   3.484   3.962   5.941 -1.1171  0.1046  0.4249
 7076TIP3   OH242642   3.297   4.969  15.843  0.1628 -0.2738  0.0654
 7076TIP3    H142643   3.353   4.952  15.767 -2.4951  1.1795 -2.2772
 7076TIP3    H242644   3.263   4.883  15.868  0.8426 -0.7179 -0.5123
 7077TIP3   OH242645   2.505   4.660   5.159  0.4997 -0.6902  0.1504
 7077TIP3    H142646   2.586   4.696   5.121 -0.7859  3.3226  0.9043
 7077TIP3    H242647   2.458   4.625   5.084  2.3731 -1.9347 -0.4815
 7078TIP3   OH242648   5.219   2.953   4.000  0.0571  0.1694  0.7502
 7078TIP3    H142649   5.202   3.040   4.037  1.3340  0.3886  0.8421
 7078TIP3    H242650   5.262   2.970   3.916 -1.0006 -0.3596  0.0852
 7079TIP3   OH242651   1.213   1.910  16.119  0.2650 -0.4543  0.2683
 7079TIP3    H142652   1.134   1.942  16.162  0.5673 -0.6436  0.9769
 7079TIP3    H242653   1.282   1.970  16.146  0.4628 -0.5853  0.0636
 7080TIP3   OH242654   1.865   4.612   5.980 -0.1058  0.0374 -0.3624
 7080TIP3    H142655   1.933   4.618   6.047  1.5675 -1.0137 -1.8910
 7080TIP3    H242656   1.910   4.637   5.899 -1.4860 -0.8995 -1.4429
 7081TIP3   OH242657   6.699   1.801  16.651  0.2708  0.3671  0.2046
 7081TIP3    H142658   6.657   1.840  16.574  0.8278  2.1016  0.7529
 7081TIP3    H242659   6.664   1.712  16.655 -1.9510  1.1754 -0.3986
 7082TIP3   OH242660   4.291   1.760  12.176  0.3913 -0.3627 -0.1727
 7082TIP3    H142661   4.203   1.776  12.210  1.1243  0.5872  1.3546
 7082TIP3    H242662   4.308   1.832  12.116  0.9821  0.7355  1.2833
 7083TIP3   OH242663   2.277   3.974  15.788 -0.0128  0.0632  0.1307
 7083TIP3    H142664   2.251   3.950  15.877  1.7002 -0.1565  0.5766
 7083TIP3    H242665   2.288   3.890  15.743  0.6290  0.1336  0.1518
 7084TIP3   OH242666   3.726   3.066  15.762 -0.0312 -0.0258 -0.3540
 7084TIP3    H142667   3.742   3.081  15.855  0.3031 -2.2371 -0.0317
 7084TIP3    H242668   3.662   2.995  15.759 -0.5268  0.4605 -1.8005
 7085TIP3   OH242669   3.309   0.147  11.968  0.1566  0.8238  0.4365
 7085TIP3    H142670   3.272   0.116  12.051  0.4824 -1.2203 -0.1383
 7085TIP3    H242671   3.403   0.128  11.976  0.0623 -0.1667 -0.7239
 7086TIP3   OH242672   2.234   5.768  14.747 -0.4733  0.5015  0.3902
 7086TIP3    H142673   2.167   5.814  14.797 -0.6012 -0.2440  0.9249
 7086TIP3    H242674   2.317   5.797  14.786 -0.5787 -0.1843  1.1334
 7087TIP3   OH242675   3.043   4.683   6.064  0.0483 -0.2771 -0.6362
 7087TIP3    H142676   3.064   4.775   6.053  1.0356 -0.1820  1.7933
 7087TIP3    H242677   3.089   4.639   5.992  0.2584  1.0286 -1.3085
 7088TIP3   OH242678   5.735   2.745  12.984 -0.7609  0.1166  0.2063
 7088TIP3    H142679   5.762   2.654  12.969  1.3150  0.3060  2.5756
 7088TIP3    H242680   5.782   2.795  12.917  0.8096 -0.1736  1.0704
 7089TIP3   OH242681   6.184   6.208  16.016 -0.1044 -0.1311 -0.0797
 7089TIP3    H142682   6.177   6.296  16.052  0.4096 -0.9239  2.0147
 7089TIP3    H242683   6.132   6.154  16.075  1.9399 -1.7050  0.3168
 7090TIP3   OH242684   6.623   6.193   1.473 -0.5946  0.4648  0.2249
 7090TIP3    H142685   6.588   6.137   1.542 -0.1473  0.3441  0.3535
 7090TIP3    H242686   6.558   6.188   1.402 -0.4430 -0.3769  0.1510
 7091TIP3   OH242687   4.553   4.465   2.792 -0.1878  0.7231 -0.2419
 7091TIP3    H142688   4.597   4.550   2.794 -0.0545  0.6791 -1.0828
 7091TIP3    H242689   4.551   4.441   2.700  0.2426 -0.4389  0.0416
 7092TIP3   OH242690   5.917   3.768  15.823 -0.1890  0.4283  0.1772
 7092TIP3    H142691   5.822   3.778  15.827 -0.3412 -0.2439 -1.4541
 7092TIP3    H242692   5.931   3.674  15.812  0.6214  0.6076 -0.4146
 7093TIP3   OH242693   3.421   1.513  14.221  0.0752 -0.0735 -1.1529
 7093TIP3    H142694   3.364   1.572  14.172 -1.1859  0.3757  0.8180
 7093TIP3    H242695   3.480   1.571  14.270 -0.1172 -0.4715 -0.4408
 7094TIP3   OH242696   2.635   2.923   4.021 -0.2743  0.0292  0.1244
 7094TIP3    H142697   2.608   2.982   3.951  0.5084 -1.4555 -1.5016
 7094TIP3    H242698   2.653   2.980   4.096 -2.4113  1.5243 -0.4735
 7095TIP3   OH242699   3.973   4.484   1.750  0.5761 -0.4114  0.0925
 7095TIP3    H142700   3.903   4.460   1.689  0.8495 -0.0282 -0.3730
 7095TIP3    H242701   4.022   4.403   1.763  2.4878  0.1904 -2.7444
 7096TIP3   OH242702   6.382   1.022  13.823  0.1078 -0.1313  0.0236
 7096TIP3    H142703   6.300   1.072  13.828  0.2501  0.1461 -0.4209
 7096TIP3    H242704   6.437   1.060  13.892 -0.1931 -0.4151  0.4168
 7097TIP3   OH242705   2.128   3.684   4.769 -0.3381  0.1335 -0.1335
 7097TIP3    H142706   2.048   3.636   4.791 -2.2443  3.4277  0.3664
 7097TIP3    H242707   2.156   3.723   4.852  1.6569 -0.7428 -0.3674
 7098TIP3   OH242708   5.267   3.704   2.310 -0.2348  0.3826  0.5942
 7098TIP3    H142709   5.210   3.743   2.377 -2.3003 -0.7293 -0.4840
 7098TIP3    H242710   5.239   3.745   2.228  0.6162 -0.0698  0.0733
 7099TIP3   OH242711   2.764   1.361  10.930 -0.3369  0.5078  0.0192
 7099TIP3    H142712   2.708   1.347  10.854 -2.6728 -0.2138  1.7856
 7099TIP3    H242713   2.715   1.422  10.985  1.6107  1.5404  0.6543
 7100TIP3   OH242714   4.572   2.885   2.371 -0.0055  0.5614 -0.1444
 7100TIP3    H142715   4.560   2.866   2.278 -0.1460 -0.9340  0.1685
 7100TIP3    H242716   4.508   2.830   2.416  0.1862  1.1301  0.8534
 7101TIP3   OH242717   0.555   3.362  11.569  0.5130  0.5037  0.2234
 7101TIP3    H142718   0.539   3.288  11.511  0.0328 -0.9237  2.1246
 7101TIP3    H242719   0.650   3.366  11.578  0.8222  2.7227 -3.1163
 7102TIP3   OH242720   6.125   1.425  11.103 -0.0846 -0.3148 -0.3465
 7102TIP3    H142721   6.089   1.495  11.159  1.7025  0.7680 -0.5276
 7102TIP3    H242722   6.048   1.386  11.062 -1.2064  0.8035  0.6361
 7103TIP3   OH242723   5.456   3.697   3.248  0.7638  0.2138  0.3817
 7103TIP3    H142724   5.550   3.696   3.228  0.7178  0.0493  0.1724
 7103TIP3    H242725   5.442   3.783   3.288  1.1538 -0.0739  1.1541
 7104TIP3   OH242726   3.254   1.158  13.285  0.2082 -0.1716 -0.1326
 7104TIP3    H142727   3.309   1.153  13.207 -0.0575 -0.7242 -0.2857
 7104TIP3    H242728   3.164   1.164  13.252 -0.0225 -1.9020  0.1316
 7105TIP3   OH242729   2.997   3.939  13.144  0.3244  0.1204 -0.5727
 7105TIP3    H142730   2.928   3.896  13.094  0.0303  1.0974 -1.0163
 7105TIP3    H242731   3.072   3.940  13.084 -0.1429  1.6394 -1.1615
 7106TIP3   OH242732   0.210   0.951  11.070  0.2408  0.3848 -0.0670
 7106TIP3    H142733   0.202   0.877  11.011  1.7050  0.5877 -0.5386
 7106TIP3    H242734   0.146   0.934  11.139 -0.2361 -0.7287 -0.7680
 7107TIP3   OH242735   2.735   3.959   3.913 -0.4370  0.2228  0.5666
 7107TIP3    H142736   2.675   3.900   3.959  1.3754 -0.5817  1.9742
 7107TIP3    H242737   2.760   4.024   3.978 -1.4980  1.8779 -0.6490
 7108TIP3   OH242738   4.604   3.534  17.098 -0.6039 -0.1379  0.2961
 7108TIP3    H142739   4.618   3.629  17.099  0.4167 -0.2845  0.5960
 7108TIP3    H242740   4.510   3.524  17.081 -0.3567  0.8876 -1.9043
 7109TIP3   OH242741   6.559   1.972  12.342  0.1411 -0.1697 -0.8136
 7109TIP3    H142742   6.652   1.968  12.365  0.1198 -1.0580 -0.8454
 7109TIP3    H242743   6.523   1.892  12.380 -0.3480 -0.4866 -1.9553
 7110TIP3   OH242744   5.523   4.756  16.072 -0.1287  0.2043 -0.0916
 7110TIP3    H142745   5.464   4.831  16.067 -0.8855 -0.3976 -0.3309
 7110TIP3    H242746   5.550   4.741  15.982  1.4841  1.3350  0.1969
 7111TIP3   OH242747   3.802   0.679  12.299  0.3086  0.2069  0.2324
 7111TIP3    H142748   3.750   0.758  12.315 -0.1754 -0.0290 -0.1796
 7111TIP3    H242749   3.832   0.688  12.209  0.7024  0.1801  0.3634
 7112TIP3   OH242750   1.156   2.385   1.407 -0.4283 -0.2527 -0.3527
 7112TIP3    H142751   1.186   2.328   1.478 -0.7737  1.8840  1.5626
 7112TIP3    H242752   1.155   2.473   1.445  0.0431  1.0591 -3.2104
 7113TIP3   OH242753   2.835   1.181  16.195 -0.5752 -0.0510 -0.2818
 7113TIP3    H142754   2.740   1.188  16.195 -0.5434  0.4352 -0.8924
 7113TIP3    H242755   2.865   1.264  16.158  0.2130  1.3922  3.3264
 7114TIP3   OH242756   6.516   1.913  11.841  0.4097  0.0255  0.0241
 7114TIP3    H142757   6.424   1.938  11.852  0.1143 -0.7402 -0.6572
 7114TIP3    H242758   6.536   1.935  11.750  0.5958 -0.7695 -0.1319
 7115TIP3   OH242759   2.565   6.181   0.009 -0.3678 -0.5417  0.0708
 7115TIP3    H142760   2.647   6.227   0.029  0.1950 -1.8060  0.6866
 7115TIP3    H242761   2.511   6.191   0.087 -0.5441 -0.2913 -0.0803
 7116TIP3   OH242762   4.696   4.078  12.763 -0.4438 -0.2667 -0.3584
 7116TIP3    H142763   4.789   4.071  12.784 -0.7107  0.9913  1.3563
 7116TIP3    H242764   4.671   3.989  12.737  0.4949 -1.3763  2.3579
 7117TIP3   OH242765   3.388   6.588   0.236 -0.0562  0.1268 -0.0003
 7117TIP3    H142766   3.402   6.580   0.141 -2.8949 -0.6718 -0.3782
 7117TIP3    H242767   3.298   6.558   0.250  0.0924  0.9085  2.8735
 7118TIP3   OH242768   5.005   1.249   3.399  0.2605 -0.3426 -0.0794
 7118TIP3    H142769   4.918   1.284   3.418 -0.0560  0.0204 -2.0503
 7118TIP3    H242770   4.996   1.154   3.408 -1.2235 -0.5808 -3.4350
 7119TIP3   OH242771   4.224   3.563  12.562  0.0156 -0.1530 -0.0365
 7119TIP3    H142772   4.243   3.566  12.656  0.4984 -0.9562 -0.1007
 7119TIP3    H242773   4.229   3.654  12.534 -1.3233  0.2462  0.9429
 7120TIP3   OH242774   1.544   1.431   5.067 -0.2783 -0.0694  0.3145
 7120TIP3    H142775   1.603   1.462   4.998 -1.6804  0.8415 -0.5139
 7120TIP3    H242776   1.519   1.510   5.114 -3.0510  0.0129 -1.1467
 7121TIP3   OH242777   3.638   2.542  10.181  0.0139 -0.4589 -0.2394
 7121TIP3    H142778   3.717   2.490  10.193 -0.0195 -0.3446  0.4508
 7121TIP3    H242779   3.657   2.626  10.223  0.4321  0.4604 -2.1877
 7122TIP3   OH242780   1.987   4.436   5.438  0.5633 -0.0898  0.1318
 7122TIP3    H142781   1.910   4.425   5.494  0.4680 -0.0855  0.0022
 7122TIP3    H242782   1.951   4.459   5.352  0.7084 -0.1187  0.0630
 7123TIP3   OH242783   4.282   3.052  13.743  0.1514  0.0088 -1.3519
 7123TIP3    H142784   4.332   3.118  13.697  0.0888  0.8026 -0.2919
 7123TIP3    H242785   4.251   3.096  13.823  0.2210 -1.3209 -0.5728
 7124TIP3   OH242786   1.896   2.857  16.508 -0.4977 -0.3696  0.2476
 7124TIP3    H142787   1.905   2.784  16.447  0.8018 -0.3170  0.3522
 7124TIP3    H242788   1.866   2.930  16.455 -1.4459 -0.8754  0.0710
 7125TIP3   OH242789   1.463   1.093  14.519 -0.5783 -0.2062 -0.0492
 7125TIP3    H142790   1.483   1.043  14.440 -0.0486 -1.1964  0.6828
 7125TIP3    H242791   1.528   1.164  14.519 -0.7260 -0.0673 -0.6150
 7126TIP3   OH242792   0.112   6.033   1.120 -0.3545 -0.4188 -0.0210
 7126TIP3    H142793   0.124   6.056   1.213  0.1057 -0.5675 -0.0383
 7126TIP3    H242794   0.150   6.107   1.073 -0.3185 -0.4785 -0.0853
 7127TIP3   OH242795   1.247   2.815   1.642  0.0070  0.0736  0.3316
 7127TIP3    H142796   1.268   2.735   1.594 -1.8895  0.1349 -0.6535
 7127TIP3    H242797   1.170   2.792   1.693 -1.7643  1.7931 -1.4579
 7128TIP3   OH242798   0.966   4.034   5.479 -0.0030 -0.1601 -0.2627
 7128TIP3    H142799   0.980   4.101   5.545  0.3798  0.7582 -1.2592
 7128TIP3    H242800   1.031   3.966   5.499 -0.8556 -0.5629  1.1621
 7129TIP3   OH242801   2.973   4.579   3.465 -0.1286  0.1701 -0.0670
 7129TIP3    H142802   2.939   4.499   3.425 -0.7637  0.2233  0.3506
 7129TIP3    H242803   3.042   4.609   3.405  0.5310 -1.0153  0.0936
 7130TIP3   OH242804   3.758   5.312   0.321  0.4131 -0.0726  0.8273
 7130TIP3    H142805   3.852   5.300   0.324  0.4320 -0.1658  0.0611
 7130TIP3    H242806   3.745   5.379   0.253 -0.2271 -1.8559 -0.8375
 7131TIP3   OH242807   2.904   1.030   2.052  0.2955 -0.6060  0.3753
 7131TIP3    H142808   2.973   1.096   2.049  1.1983 -1.5111  1.1436
 7131TIP3    H242809   2.947   0.950   2.082 -1.3873 -0.7636  2.4886
 7132TIP3   OH242810   0.410   3.762   2.702  0.1264 -0.0154 -0.0591
 7132TIP3    H142811   0.416   3.724   2.614 -1.3076  1.0582 -0.6379
 7132TIP3    H242812   0.374   3.849   2.688 -2.0218 -0.5563  1.7648
 7133TIP3   OH242813   0.837   0.472  11.688 -0.2210  0.0460 -0.0088
 7133TIP3    H142814   0.913   0.414  11.691  0.8083  1.3964  1.3464
 7133TIP3    H242815   0.850   0.525  11.610 -0.7027 -0.9307 -0.7574
 7134TIP3   OH242816   4.596   2.259  11.208 -0.2295 -0.0769 -0.5958
 7134TIP3    H142817   4.665   2.291  11.150  0.0621 -0.8620 -0.6836
 7134TIP3    H242818   4.623   2.170  11.231 -0.7756 -0.0781  0.0580
 7135TIP3   OH242819   5.094   2.522   3.861  0.3957 -0.2058  0.1173
 7135TIP3    H142820   5.094   2.613   3.828 -1.1991  0.0120  0.6691
 7135TIP3    H242821   5.121   2.470   3.785 -1.2971  0.4908 -1.0043
 7136TIP3   OH242822   3.131   5.056   4.939 -0.6960 -0.1545 -0.3648
 7136TIP3    H142823   3.101   5.116   5.007  0.1615  0.9034 -0.9229
 7136TIP3    H242824   3.203   5.007   4.980 -1.3793 -0.8041  0.0810
 7137TIP3   OH242825   1.633   2.199  16.748  0.6276  0.3350  0.2267
 7137TIP3    H142826   1.591   2.281  16.725  0.0937  0.4102  1.4336
 7137TIP3    H242827   1.627   2.145  16.669  0.2587  1.1516 -0.3063
 7138TIP3   OH242828   6.603   3.104  16.337 -0.4365 -0.2799  0.4918
 7138TIP3    H142829   6.589   3.197  16.317  1.0143 -0.1783 -0.1136
 7138TIP3    H242830   6.685   3.102  16.386 -0.2632 -1.2814  0.1730
 7139TIP3   OH242831   1.427   2.076   0.365  0.2189 -0.4761  0.1704
 7139TIP3    H142832   1.469   2.094   0.449 -0.5971 -1.2538  0.7612
 7139TIP3    H242833   1.497   2.085   0.300  0.6888  0.8607  0.8554
 7140TIP3   OH242834   4.676   1.195   5.270 -0.2701 -0.5558  0.0260
 7140TIP3    H142835   4.677   1.239   5.185  0.0299  1.9859  1.3035
 7140TIP3    H242836   4.618   1.249   5.324  2.5998  0.1165  2.5574
 7141TIP3   OH242837   3.590   0.723  16.507 -0.0633  0.0269 -0.0052
 7141TIP3    H142838   3.512   0.740  16.454  0.8254 -0.1236 -1.4045
 7141TIP3    H242839   3.557   0.680  16.586 -1.5509  1.4769  0.1774
 7142TIP3   OH242840   3.015   0.581  12.373  0.8747 -0.2986  0.7702
 7142TIP3    H142841   2.935   0.571  12.424  1.0051  1.5916  1.3822
 7142TIP3    H242842   3.015   0.506  12.313 -0.3707 -1.3591  2.0551
 7143TIP3   OH242843   3.411   5.512   2.700 -0.1128 -0.4060  0.1658
 7143TIP3    H142844   3.359   5.517   2.780 -0.3476  1.1166 -0.0618
 7143TIP3    H242845   3.365   5.569   2.638  1.3569  0.2890 -0.3056
 7144TIP3   OH242846   1.578   3.864   3.304 -0.7784  0.2819 -0.1433
 7144TIP3    H142847   1.592   3.939   3.246  2.9099 -1.3755 -1.5116
 7144TIP3    H242848   1.538   3.797   3.249 -0.0241 -0.2664 -0.0313
 7145TIP3   OH242849   0.763   2.782   2.892  0.2466  0.2446 -0.0324
 7145TIP3    H142850   0.830   2.825   2.839  0.2574  0.3422  0.0607
 7145TIP3    H242851   0.771   2.689   2.869  0.6922  0.2042  0.2892
 7146TIP3   OH242852   0.400   4.751   1.257 -0.2380 -0.3926  0.0305
 7146TIP3    H142853   0.330   4.708   1.207  0.5226 -0.7635 -0.7217
 7146TIP3    H242854   0.355   4.789   1.332 -1.3347 -0.1845 -0.7195
 7147TIP3   OH242855   1.618   3.643   3.086 -0.3415 -0.2695  0.0410
 7147TIP3    H142856   1.589   3.728   3.051  0.6566  0.7136  1.5261
 7147TIP3    H242857   1.708   3.634   3.055 -1.0685 -1.7147 -1.7201
 7148TIP3   OH242858   5.166   1.242  14.055 -0.2965 -0.4416  0.6022
 7148TIP3    H142859   5.214   1.325  14.061 -1.6466  0.2595  1.9998
 7148TIP3    H242860   5.194   1.192  14.131 -2.0981  0.1578  1.6824
 7149TIP3   OH242861   6.581   1.386  10.974 -0.0509 -0.3080  0.4770
 7149TIP3    H142862   6.658   1.374  11.029  0.3136  0.9617  0.2514
 7149TIP3    H242863   6.614   1.378  10.885 -0.0452  1.0117  0.3615
 7150TIP3   OH242864   3.101   0.186  14.714 -0.8814  0.0307  0.2853
 7150TIP3    H142865   3.151   0.115  14.674 -2.2202 -0.6029 -0.2956
 7150TIP3    H242866   3.145   0.203  14.797  0.3819 -0.4084 -0.2900
 7151TIP3   OH242867   3.505   5.709   5.740 -0.0656 -0.6851  0.2664
 7151TIP3    H142868   3.552   5.669   5.667  1.2267 -0.0424  0.7340
 7151TIP3    H242869   3.439   5.644   5.765  0.7465 -1.7090 -0.2317
 7152TIP3   OH242870   3.937   3.060   4.829 -0.3141  0.4184 -0.5506
 7152TIP3    H142871   3.926   3.117   4.753  1.2677 -1.0588 -1.9237
 7152TIP3    H242872   3.864   2.998   4.824 -0.3593  0.4837 -0.6926
 7153TIP3   OH242873   0.522   3.076  11.473  0.0197 -0.6505  0.2321
 7153TIP3    H142874   0.589   3.059  11.406 -2.1819 -1.4851 -1.8546
 7153TIP3    H242875   0.559   3.041  11.554  3.6711  2.3383 -0.0439
 7154TIP3   OH242876   5.847   5.845  11.705 -0.2552  0.0796  0.3557
 7154TIP3    H142877   5.840   5.868  11.798  0.0820  0.1320  0.3708
 7154TIP3    H242878   5.759   5.860  11.669 -0.3669  0.1280  0.6503
 7155TIP3   OH242879   3.881   1.894  11.422 -0.7266 -0.0798  0.1591
 7155TIP3    H142880   3.839   1.959  11.366 -1.9272 -1.9593 -1.1400
 7155TIP3    H242881   3.941   1.847  11.364 -1.3930 -1.5169  0.6128
 7156TIP3   OH242882   3.901   3.113  17.186 -0.3029 -0.3158 -0.0826
 7156TIP3    H142883   3.917   3.138  17.277 -0.4331  1.0792 -0.4361
 7156TIP3    H242884   3.813   3.145  17.168 -0.3315 -0.7198 -0.6587
 7157TIP3   OH242885   2.926   0.514   1.094  0.2777 -0.1067  0.4709
 7157TIP3    H142886   2.903   0.458   1.168  0.3057 -0.8802 -0.1103
 7157TIP3    H242887   3.014   0.546   1.115  0.0606  0.1400  1.0430
 7158TIP3   OH242888   1.574   1.566   2.621 -0.0921 -0.1911  0.2038
 7158TIP3    H142889   1.668   1.567   2.600  0.0609  1.1807  0.9183
 7158TIP3    H242890   1.560   1.647   2.671 -1.1999 -1.5267  2.0941
 7159TIP3   OH242891   0.876   3.093  13.221 -0.3738 -0.3814  0.2646
 7159TIP3    H142892   0.889   3.131  13.135  0.3414 -2.5495 -0.6157
 7159TIP3    H242893   0.959   3.049  13.241 -1.0294 -1.1496  1.4060
 7160TIP3   OH242894   3.120   5.861  11.706  0.5884  0.3551  0.6834
 7160TIP3    H142895   3.151   5.773  11.683  0.0018  0.3689 -0.2009
 7160TIP3    H242896   3.173   5.920  11.652 -0.1380  0.4432  0.0510
 7161TIP3   OH242897   2.122   2.321   6.165 -0.5596  0.2476  0.1103
 7161TIP3    H142898   2.028   2.330   6.180 -0.5090 -1.8589  1.9053
 7161TIP3    H242899   2.163   2.371   6.236 -0.3582 -2.7391  2.1968
 7162TIP3   OH242900   0.824   4.600  16.260  0.3132 -0.2247 -0.3594
 7162TIP3    H142901   0.915   4.589  16.287  0.6780  1.9052 -0.6224
 7162TIP3    H242902   0.826   4.592  16.165  0.6074  2.0518 -0.5672
 7163TIP3   OH242903   5.871   4.489   0.153  0.1999 -0.2099 -0.0626
 7163TIP3    H142904   5.795   4.539   0.179  0.9907 -0.1343  2.2217
 7163TIP3    H242905   5.837   4.401   0.135 -0.5867  0.0940 -0.0681
 7164TIP3   OH242906   5.923   3.002   5.953  0.2561  0.8197 -0.6143
 7164TIP3    H142907   5.868   3.079   5.962  0.8390  1.1845 -0.2042
 7164TIP3    H242908   6.009   3.029   5.983 -0.0919 -0.6642  1.8545
 7165TIP3   OH242909   2.452   2.354  14.838 -0.3086  0.0941  0.1840
 7165TIP3    H142910   2.515   2.296  14.881 -1.8179 -1.2604  0.5678
 7165TIP3    H242911   2.382   2.297  14.809 -2.7388  1.9269  2.2374
 7166TIP3   OH242912   4.939   0.375  10.891 -0.2969 -0.3884 -0.1207
 7166TIP3    H142913   5.007   0.411  10.835 -1.2485  0.9543 -0.4637
 7166TIP3    H242914   4.859   0.382  10.839 -0.8454 -1.0476  0.6267
 7167TIP3   OH242915   5.656   2.648  15.794 -0.3949 -0.4166  0.4458
 7167TIP3    H142916   5.567   2.621  15.772  0.1421 -1.6804 -0.3123
 7167TIP3    H242917   5.668   2.620  15.885 -1.0861  0.6075  0.8517
 7168TIP3   OH242918   1.558   1.967  13.005 -0.0678  0.1506  0.1043
 7168TIP3    H142919   1.623   1.950  12.937  1.2250 -0.1574  1.3844
 7168TIP3    H242920   1.562   2.062  13.019 -0.1717  0.1827 -0.0757
 7169TIP3   OH242921   0.276   5.326   2.527  0.2328 -0.5007  1.0914
 7169TIP3    H142922   0.227   5.283   2.597 -0.7913 -0.2610  0.5354
 7169TIP3    H242923   0.284   5.259   2.459  0.8553 -0.5969  1.2505
 7170TIP3   OH242924   3.632   4.355  11.711  0.0714  0.3736 -0.2687
 7170TIP3    H142925   3.546   4.397  11.706 -0.6473 -0.9852  0.4837
 7170TIP3    H242926   3.668   4.385  11.794 -0.5064 -0.6183  0.3404
 7171TIP3   OH242927   5.289   3.699   4.443  0.7473 -0.4954  0.0545
 7171TIP3    H142928   5.239   3.755   4.383 -0.4207 -0.4029  1.1045
 7171TIP3    H242929   5.270   3.610   4.412  3.6220 -0.3327 -2.4195
 7172TIP3   OH242930   1.947   1.807   6.479  0.0162 -0.0605 -0.0732
 7172TIP3    H142931   1.947   1.879   6.416 -1.7747  0.5312  0.5900
 7172TIP3    H242932   1.966   1.848   6.563 -1.5922 -0.2716  0.3987
 7173TIP3   OH242933   3.254   6.410  15.908  0.1555 -0.3156 -0.5036
 7173TIP3    H142934   3.239   6.337  15.969 -0.4216 -0.7214 -1.1306
 7173TIP3    H242935   3.345   6.401  15.882 -0.2171 -1.4569 -1.4219
 7174TIP3   OH242936   3.767   4.028   4.284  0.0858  0.2128  0.2182
 7174TIP3    H142937   3.849   4.077   4.290  0.7360 -0.8401  0.0709
 7174TIP3    H242938   3.770   3.987   4.197  1.2609 -3.0194  1.7050
 7175TIP3   OH242939   5.951   4.782   3.234 -0.2464  0.6536  0.3795
 7175TIP3    H142940   5.921   4.696   3.262  0.3636  0.6266  0.9798
 7175TIP3    H242941   6.046   4.780   3.250 -0.1278  1.1868 -0.2569
 7176TIP3   OH242942   4.137   6.436  15.558  0.1779  1.4859 -0.0162
 7176TIP3    H142943   4.086   6.420  15.479 -0.6968  0.0305  0.8373
 7176TIP3    H242944   4.071   6.450  15.626  0.8498 -2.5325  1.5360
 7177TIP3   OH242945   3.822   5.282  14.912 -0.3785 -0.7483 -0.3482
 7177TIP3    H142946   3.801   5.317  14.826 -0.4039  0.3723  0.1093
 7177TIP3    H242947   3.792   5.349  14.973  1.4815 -0.6148  0.4417
 7178TIP3   OH242948   4.781   5.283  13.616 -0.5247  0.1385  0.3265
 7178TIP3    H142949   4.733   5.206  13.647 -1.4178  0.0231 -1.2750
 7178TIP3    H242950   4.805   5.261  13.526  0.0738  1.3407  0.1928
 7179TIP3   OH242951   6.022   3.609   3.423 -0.7180  0.0588  0.6206
 7179TIP3    H142952   5.972   3.557   3.361 -1.1227  1.2260 -0.0387
 7179TIP3    H242953   6.076   3.545   3.470  1.2214 -0.6318 -2.4147
 7180TIP3   OH242954   4.753   0.621   3.428 -0.3131 -0.0682  0.8095
 7180TIP3    H142955   4.671   0.571   3.418 -0.5952  0.3164  1.1822
 7180TIP3    H242956   4.748   0.688   3.360  0.3068 -0.8574 -0.0336
 7181TIP3   OH242957   0.890   6.656  16.841 -0.2315  0.1050  0.5081
 7181TIP3    H142958   0.860   6.592  16.906 -2.8404 -2.5321 -3.0966
 7181TIP3    H242959   0.982   6.634  16.827 -0.1430 -0.5073  1.9388
 7182TIP3   OH242960   6.190   3.912   2.299 -0.1674 -0.0706  0.4136
 7182TIP3    H142961   6.213   3.992   2.346 -0.5597 -1.1515  2.5216
 7182TIP3    H242962   6.214   3.841   2.359  1.5678 -1.6282 -2.0203
 7183TIP3   OH242963   0.841   1.566  15.241  0.1226 -0.2155  0.6610
 7183TIP3    H142964   0.752   1.550  15.272 -0.1061 -1.6482 -0.6973
 7183TIP3    H242965   0.830   1.608  15.156  0.7422 -0.6110  0.3803
 7184TIP3   OH242966   4.862   4.418  10.623 -0.7312  0.3352 -0.2465
 7184TIP3    H142967   4.892   4.454  10.539  0.5743  0.9490  0.4691
 7184TIP3    H242968   4.839   4.495  10.675 -1.1087 -0.0234  0.1129
 7185TIP3   OH242969   3.333   5.559   1.667  0.4343  0.1676  0.3605
 7185TIP3    H142970   3.332   5.614   1.745  2.1405 -0.0540  0.5531
 7185TIP3    H242971   3.349   5.470   1.700  2.5323  0.2634 -0.3262
 7186TIP3   OH242972   4.972   2.367   5.135  0.0217  0.0073 -0.0714
 7186TIP3    H142973   5.021   2.361   5.053 -1.3890  0.8009 -0.9950
 7186TIP3    H242974   4.905   2.299   5.128  0.2931 -0.3458  0.7089
 7187TIP3   OH242975   5.886   3.951  12.043 -0.2876  0.2924 -0.3096
 7187TIP3    H142976   5.909   4.042  12.026 -0.7246  0.4933  0.1828
 7187TIP3    H242977   5.971   3.907  12.054 -0.0624  0.5258 -1.1161
 7188TIP3   OH242978   2.911   6.511  14.934 -0.4433  0.0998 -0.3586
 7188TIP3    H142979   2.919   6.604  14.916  0.8570  0.8985  3.7723
 7188TIP3    H242980   3.001   6.477  14.924 -1.0237 -0.8965 -2.5068
 7189TIP3   OH242981   3.144   6.125  13.715 -0.0037 -0.5043 -0.4196
 7189TIP3    H142982   3.067   6.069  13.718  0.9223 -1.7660  0.1704
 7189TIP3    H242983   3.182   6.117  13.803  0.7454  0.1772 -0.6783
 7190TIP3   OH242984   0.815   3.528   2.187  0.0326 -1.1734 -0.0731
 7190TIP3    H142985   0.746   3.540   2.122  1.7305  0.6964 -1.6034
 7190TIP3    H242986   0.827   3.433   2.192 -1.9774 -1.4757 -0.4387
 7191TIP3   OH242987   3.187   1.841  16.422  0.5848  0.4291  0.1983
 7191TIP3    H142988   3.178   1.772  16.356 -1.0902  1.4781 -0.7158
 7191TIP3    H242989   3.252   1.901  16.387  2.0673 -0.6725  1.0104
 7192TIP3   OH242990   0.918   0.441   0.392 -0.1627  0.1658 -0.0307
 7192TIP3    H142991   0.868   0.480   0.464 -0.6030 -0.7649  0.1749
 7192TIP3    H242992   0.995   0.497   0.384 -1.4542  1.9354 -0.6658
 7193TIP3   OH242993   5.217   6.760   5.420  0.0887 -0.7336 -0.6352
 7193TIP3    H142994   5.293   6.767   5.363  1.2860 -0.7632  0.9380
 7193TIP3    H242995   5.205   6.848   5.454  0.5813 -1.1410  0.5984
 7194TIP3   OH242996   6.425   0.910   2.457 -0.5743  0.1991 -0.1589
 7194TIP3    H142997   6.450   0.977   2.521  1.7294 -3.5524  3.1373
 7194TIP3    H242998   6.330   0.902   2.466 -0.5361  1.1441  1.4002
 7195TIP3   OH242999   5.732   4.462   1.538 -0.1125 -0.2413 -0.1840
 7195TIP3    H143000   5.818   4.503   1.551 -0.1167  0.0414 -1.0545
 7195TIP3    H243001   5.675   4.534   1.512 -0.4092 -0.5888 -0.4961
 7196TIP3   OH243002   5.263   0.951   3.109  0.2219 -0.0732  0.1319
 7196TIP3    H143003   5.268   1.022   3.173  0.0741  0.7872 -0.7927
 7196TIP3    H243004   5.286   0.873   3.158  1.9246  0.8273  0.8296
 7197TIP3   OH243005   4.841   4.620   5.631 -0.4269 -0.2791  0.6201
 7197TIP3    H143006   4.925   4.630   5.586 -0.7206  1.1458  0.3499
 7197TIP3    H243007   4.862   4.635   5.723 -0.2889 -0.4283  0.6128
 7198TIP3   OH243008   6.772   2.848   3.555  0.4401  0.4083  0.3208
 7198TIP3    H143009   6.791   2.776   3.615 -1.8517 -0.3155  0.2355
 7198TIP3    H243010   6.803   2.926   3.601  1.4353 -0.4502  1.1416
 7199TIP3   OH243011   0.205   2.189   0.040  0.5904 -0.4327  0.3402
 7199TIP3    H143012   0.224   2.101   0.007  0.7007 -0.4543  0.4610
 7199TIP3    H243013   0.122   2.212  -0.000 -0.8024 -1.6807  2.4529
 7200TIP3   OH243014   4.647   1.447  13.651  0.0422  0.1177  0.1759
 7200TIP3    H143015   4.612   1.470  13.565  0.7700 -1.8258 -0.6747
 7200TIP3    H243016   4.741   1.439  13.637  0.1193 -0.5899  1.0393
 7201TIP3   OH243017   0.024   2.574   0.505 -0.2400  0.2010  0.3084
 7201TIP3    H143018   0.096   2.544   0.562  0.5924  1.2511 -0.1784
 7201TIP3    H243019  -0.019   2.493   0.477 -0.0751 -0.3750  1.6695
 7202TIP3   OH243020   6.324   1.965   1.748  0.6771 -0.2581 -0.2166
 7202TIP3    H143021   6.237   1.926   1.743  0.9153 -0.7805 -0.3937
 7202TIP3    H243022   6.357   1.961   1.659 -0.2649  2.6801 -0.7404
 7203TIP3   OH243023   5.306   1.847  16.042  0.7258 -0.9867 -0.0968
 7203TIP3    H143024   5.363   1.886  16.109  1.1429 -0.7843 -0.5686
 7203TIP3    H243025   5.266   1.772  16.086  0.1420 -0.2139  0.7204
 7204TIP3   OH243026   3.192   0.676   0.194  0.1713  0.2324 -0.0093
 7204TIP3    H143027   3.229   0.739   0.133 -0.9836  0.3547 -0.6048
 7204TIP3    H243028   3.097   0.690   0.188 -0.1378 -2.0609 -0.6800
 7205TIP3   OH243029   6.553   2.783   0.924 -0.3361 -0.5931  0.4045
 7205TIP3    H143030   6.647   2.782   0.908 -0.0416 -0.4456  2.0724
 7205TIP3    H243031   6.540   2.855   0.985 -1.8443  0.9145 -1.6206
 7206TIP3   OH243032   2.247   2.326  11.141 -0.1876  0.1184  0.4013
 7206TIP3    H143033   2.242   2.357  11.231  0.9367 -0.0265  0.5150
 7206TIP3    H243034   2.210   2.238  11.143 -1.1320  0.5175  0.5244
 7207TIP3   OH243035   6.459   3.376  11.989  0.5069 -0.0143 -0.9743
 7207TIP3    H143036   6.508   3.302  12.023  0.8769  0.1566 -1.1278
 7207TIP3    H243037   6.527   3.435  11.954  0.2256  0.4387 -0.7585
 7208TIP3   OH243038   0.586   6.132  14.043 -0.5175 -0.3324  0.0630
 7208TIP3    H143039   0.615   6.058  13.989 -0.1086  0.0956 -0.3055
 7208TIP3    H243040   0.580   6.096  14.131 -2.2798 -1.3238 -0.4365
 7209TIP3   OH243041   0.266   1.012   5.318 -0.0189 -0.2609 -0.3477
 7209TIP3    H143042   0.194   1.031   5.379  0.6463 -0.9898  0.6689
 7209TIP3    H243043   0.303   0.929   5.349  3.1903  1.5726  0.9624
 7210TIP3   OH243044   5.198   4.997   0.567 -0.7982 -0.0507  0.5067
 7210TIP3    H143045   5.128   4.995   0.632 -2.4832 -0.8892 -1.2858
 7210TIP3    H243046   5.205   4.907   0.536  0.8169  0.0970  0.3810
 7211TIP3   OH243047   3.246   1.832  12.643 -0.5044 -0.1281 -0.4414
 7211TIP3    H143048   3.168   1.778  12.657 -1.9842  0.9615 -3.9837
 7211TIP3    H243049   3.318   1.769  12.641 -1.4322 -1.3127  1.2947
 7212TIP3   OH243050   1.019   4.410  15.744  0.4948 -0.4039 -0.4777
 7212TIP3    H143051   1.001   4.501  15.766  1.2778  0.1202 -1.9134
 7212TIP3    H243052   0.983   4.398  15.656 -1.9842 -2.2532  0.7480
 7213TIP3   OH243053   2.262   2.816   2.338 -0.2839  0.0973  0.0471
 7213TIP3    H143054   2.302   2.871   2.405  0.2618  0.1243 -0.3028
 7213TIP3    H243055   2.227   2.878   2.274 -0.3834  0.0571  0.0617
 7214TIP3   OH243056   3.477   3.101   3.305  0.1127 -0.2238  0.6230
 7214TIP3    H143057   3.452   3.086   3.396 -0.6226 -1.0544  0.2984
 7214TIP3    H243058   3.415   3.048   3.255  0.8870 -0.2368 -0.3262
 7215TIP3   OH243059   5.982   1.456  16.739  0.2418 -0.8714 -0.5497
 7215TIP3    H143060   5.971   1.538  16.786  0.2552 -1.2462  0.1088
 7215TIP3    H243061   5.929   1.393  16.787  0.7367 -1.3960 -0.6796
 7216TIP3   OH243062   6.629   3.342  11.100  0.1743  0.3397 -0.1090
 7216TIP3    H143063   6.605   3.250  11.104  0.6728  0.1413 -1.2441
 7216TIP3    H243064   6.568   3.380  11.038 -0.5117  0.9407  0.9279
 7217TIP3   OH243065   1.400   3.550   0.443 -0.0276 -0.4795 -0.0249
 7217TIP3    H143066   1.396   3.615   0.514 -1.9140 -0.9854  0.3730
 7217TIP3    H243067   1.482   3.568   0.398  1.2797 -0.2379  2.3852
 7218TIP3   OH243068   1.426   2.603   3.634 -0.4576 -0.6950 -0.2383
 7218TIP3    H143069   1.395   2.513   3.625 -2.4053 -0.1944  1.1668
 7218TIP3    H243070   1.347   2.657   3.631  0.7954  1.1468 -2.7406
 7219TIP3   OH243071   1.624   0.052  11.974 -0.1452  0.5168  0.0079
 7219TIP3    H143072   1.715   0.067  12.002  0.5141 -0.3302 -1.6267
 7219TIP3    H243073   1.623  -0.039  11.943 -1.2943  0.8445 -0.9557
 7220TIP3   OH243074   0.997   2.946   5.110 -0.1457  0.0845 -0.0023
 7220TIP3    H143075   1.076   2.997   5.130  1.0644 -1.5962 -0.4244
 7220TIP3    H243076   0.956   2.931   5.195 -0.1599  1.1853  0.1972
 7221TIP3   OH243077   4.687   2.653   3.710 -0.2417 -0.4794 -0.6529
 7221TIP3    H143078   4.715   2.564   3.691  1.5427 -0.3951  1.4150
 7221TIP3    H243079   4.767   2.705   3.707 -0.9238  0.6682  0.3319
 7222TIP3   OH243080   3.446   5.809   1.514  0.4574  0.1804  0.1996
 7222TIP3    H143081   3.527   5.840   1.555  0.7950 -0.8556  0.3335
 7222TIP3    H243082   3.381   5.814   1.584  1.4606 -3.4497  1.5357
 7223TIP3   OH243083   1.935   6.419  15.065  0.8768  0.1376  0.0393
 7223TIP3    H143084   1.995   6.412  14.991 -0.2298  0.9555 -0.9426
 7223TIP3    H243085   1.946   6.336  15.112 -0.7502 -1.8207 -2.8465
 7224TIP3   OH243086   6.072   2.777   1.665 -0.5487  0.1586  0.1258
 7224TIP3    H143087   6.014   2.706   1.694  0.6346 -1.0431 -0.4074
 7224TIP3    H243088   6.160   2.741   1.676  0.0036  0.4997 -2.8416
 7225TIP3   OH243089   5.896   2.366  16.659 -0.3698  0.0589  0.0741
 7225TIP3    H143090   5.917   2.431  16.592  1.2259  0.7336  1.1747
 7225TIP3    H243091   5.890   2.417  16.740 -0.3452 -1.0015  0.7457
 7226TIP3   OH243092   4.825   4.229   2.014  0.3520 -0.0377  0.4185
 7226TIP3    H143093   4.892   4.289   1.979  0.7846  0.2530  1.7349
 7226TIP3    H243094   4.845   4.223   2.107 -0.4898 -1.2197  0.5251
 7227TIP3   OH243095   5.767   0.853  13.496 -0.1564  0.0245 -0.3468
 7227TIP3    H143096   5.840   0.846  13.558  0.0350  0.4955 -0.5097
 7227TIP3    H243097   5.717   0.772  13.508  0.6494 -0.5113 -0.5569
 7228TIP3   OH243098   5.902   2.569   1.670  0.2151  0.0836  0.9557
 7228TIP3    H143099   5.887   2.485   1.715 -0.3459 -1.9800 -2.8826
 7228TIP3    H243100   5.828   2.577   1.610  1.5409  2.1798 -0.4440
 7229TIP3   OH243101   0.418   1.293  15.712  0.2098 -0.0074  0.2172
 7229TIP3    H143102   0.485   1.286  15.780  0.2687  0.2601  0.1849
 7229TIP3    H243103   0.466   1.284  15.630  0.0616 -0.9316  0.2242
 7230TIP3   OH243104   1.800   6.775  16.477 -0.2567  0.4161  0.0651
 7230TIP3    H143105   1.728   6.721  16.445  1.7764 -1.6732 -1.2147
 7230TIP3    H243106   1.831   6.823  16.400 -0.2123  1.2173  0.5757
 7231TIP3   OH243107   3.261   5.241  15.631 -0.4998 -0.0023 -0.5866
 7231TIP3    H143108   3.356   5.230  15.630 -0.5654 -0.6133  0.0001
 7231TIP3    H243109   3.226   5.152  15.622 -1.0175  0.1336  0.0294
 7232TIP3   OH243110   2.375   0.534   3.073 -0.5029 -0.0652 -0.4783
 7232TIP3    H143111   2.332   0.468   3.018  0.1657 -0.0739 -0.9940
 7232TIP3    H243112   2.370   0.614   3.022 -1.7487  0.4160  0.3552
 7233TIP3   OH243113   5.234   2.968   2.626 -0.5692  0.2564 -0.6118
 7233TIP3    H143114   5.140   2.955   2.637 -0.7225 -0.0224 -2.1995
 7233TIP3    H243115   5.242   3.053   2.584 -0.0875  0.3705 -0.2942
 7234TIP3   OH243116   2.766   1.801  15.320 -0.3841 -0.3521 -0.3947
 7234TIP3    H143117   2.818   1.756  15.386  0.5697  2.2824  0.7267
 7234TIP3    H243118   2.719   1.731  15.274 -0.0250 -2.3416  2.1565
 7235TIP3   OH243119   3.314   5.537   3.353 -0.2385  0.3107  0.2448
 7235TIP3    H143120   3.347   5.580   3.274 -1.2505 -0.2136 -0.4671
 7235TIP3    H243121   3.336   5.598   3.424  0.8093  0.7136 -0.4068
 7236TIP3   OH243122   1.567   5.004   5.442  1.1088 -0.0149  0.3531
 7236TIP3    H143123   1.498   5.050   5.395 -0.5307 -1.0061  1.7289
 7236TIP3    H243124   1.521   4.934   5.490  3.1883 -1.3693  0.4357
 7237TIP3   OH243125   1.943   1.186   3.839  0.0114 -0.2861 -0.2260
 7237TIP3    H143126   1.864   1.190   3.784  1.2120 -0.3878 -1.9942
 7237TIP3    H243127   2.014   1.214   3.781  1.1093  1.1016  1.7188
 7238TIP3   OH243128   2.289   1.207  10.674  0.5136 -0.3228 -0.4087
 7238TIP3    H143129   2.194   1.207  10.687  0.7381 -0.7719  1.3568
 7238TIP3    H243130   2.301   1.172  10.586 -1.0236  1.0907 -1.2302
 7239TIP3   OH243131   5.366   2.117   0.232 -0.1423  0.3894 -0.3096
 7239TIP3    H143132   5.279   2.083   0.253 -0.4367  1.6491  0.5621
 7239TIP3    H243133   5.349   2.199   0.186  0.5898  2.1584  2.5065
 7240TIP3   OH243134   3.786   3.692  14.777 -0.1029  0.4427  0.1731
 7240TIP3    H143135   3.693   3.696  14.798 -0.4993 -0.7502 -1.2157
 7240TIP3    H243136   3.831   3.696  14.861 -1.4447  0.2241  0.9066
 7241TIP3   OH243137   1.841   4.247   3.638 -0.3370  0.1331  0.6153
 7241TIP3    H143138   1.868   4.338   3.628 -4.6177  1.4495  0.0227
 7241TIP3    H243139   1.856   4.208   3.551 -0.5783  0.8772  0.2375
 7242TIP3   OH243140   0.427   1.479  11.590 -0.0605 -0.1520 -0.0269
 7242TIP3    H143141   0.454   1.552  11.533 -0.9070 -0.7755 -1.2626
 7242TIP3    H243142   0.410   1.520  11.675  0.2895  0.9549 -0.4761
 7243TIP3   OH243143   2.816   2.998  13.338  0.3712  0.5232  0.1918
 7243TIP3    H143144   2.797   3.003  13.245 -0.7530 -0.3492  0.3612
 7243TIP3    H243145   2.911   2.987  13.343  0.5078  1.1834 -0.8119
 7244TIP3   OH243146   3.194   6.448   5.721  0.8340 -0.2584  0.3746
 7244TIP3    H143147   3.110   6.405   5.708  0.5941  0.3073  0.0300
 7244TIP3    H243148   3.189   6.487   5.808  0.2927  0.7680 -0.1077
 7245TIP3   OH243149   3.654   3.215  13.612  0.0998 -0.0451 -0.1113
 7245TIP3    H143150   3.622   3.146  13.554 -0.7472  0.7836 -0.6484
 7245TIP3    H243151   3.576   3.246  13.657  0.7815 -0.8197  1.6468
 7246TIP3   OH243152   4.750   2.535   1.015 -0.1739 -0.2649 -0.0268
 7246TIP3    H143153   4.767   2.511   1.106 -1.2958 -0.0737  0.2390
 7246TIP3    H243154   4.685   2.606   1.020 -1.8208 -1.6482 -1.0043
 7247TIP3   OH243155   1.811   3.737  13.746  0.4757 -0.0536 -0.3927
 7247TIP3    H143156   1.845   3.649  13.760  0.3416  0.2215  1.9132
 7247TIP3    H243157   1.888   3.791  13.726  0.7695 -0.3489 -0.0478
 7248TIP3   OH243158   3.707   0.675  17.100 -0.0784  0.0353 -0.4775
 7248TIP3    H143159   3.789   0.722  17.118 -0.1465  0.5033 -1.3637
 7248TIP3    H243160   3.728   0.583  17.115  0.0274  0.3506  1.3838
 7249TIP3   OH243161   3.539   5.883  12.451 -0.1114 -0.7916  0.3450
 7249TIP3    H143162   3.466   5.910  12.507 -0.6306 -0.6606 -0.3811
 7249TIP3    H243163   3.497   5.846  12.373  0.5940 -0.6000 -0.1322
 7250TIP3   OH243164   1.022   0.124  13.592  0.2877 -0.4211  0.2647
 7250TIP3    H143165   1.065   0.190  13.647 -1.1511 -0.6622  1.7324
 7250TIP3    H243166   0.958   0.173  13.542 -0.1298 -0.5638  0.6578
 7251TIP3   OH243167   2.485   4.014  16.063 -0.0095 -0.1521 -0.3727
 7251TIP3    H143168   2.558   4.050  16.113  0.1024 -3.5443  2.0926
 7251TIP3    H243169   2.526   3.954  16.001 -0.5434 -0.3850 -0.5012
 7252TIP3   OH243170   1.406   5.203  15.551  0.0080  0.9501  0.2898
 7252TIP3    H143171   1.431   5.113  15.531 -0.0001  1.1663 -0.7535
 7252TIP3    H243172   1.489   5.249  15.563  0.0006  0.6979  1.3231
 7253TIP3   OH243173   3.518   5.550   0.442 -0.4320 -0.4948  0.0439
 7253TIP3    H143174   3.535   5.516   0.354 -2.1547  0.5163 -0.7188
 7253TIP3    H243175   3.463   5.483   0.483  0.7025 -1.1502  0.4836
 7254TIP3   OH243176   0.966   0.198   6.089 -0.3418  0.3557  0.4437
 7254TIP3    H143177   0.969   0.260   6.163  0.3489 -1.0179  1.5903
 7254TIP3    H243178   0.982   0.113   6.129  1.6090 -0.2479 -1.5152
 7255TIP3   OH243179   2.523   0.274   0.238  0.2276 -0.0998  0.1783
 7255TIP3    H143180   2.500   0.217   0.165  0.3695  0.3410 -0.2081
 7255TIP3    H243181   2.619   0.271   0.240  0.2489  0.4359 -0.0858
 7256TIP3   OH243182   6.260   2.319  14.409  0.0888 -0.0230 -0.6303
 7256TIP3    H143183   6.230   2.269  14.333  1.1172 -2.0986  0.2721
 7256TIP3    H243184   6.219   2.275  14.484  0.6567  0.7729  0.1613
 7257TIP3   OH243185   0.404   6.327   3.770  0.4211 -0.7544  0.4417
 7257TIP3    H143186   0.366   6.414   3.781  2.1058 -0.1955  2.0758
 7257TIP3    H243187   0.427   6.323   3.677  1.8502  1.1933  0.6817
 7258TIP3   OH243188   4.170   6.267   0.109  0.4184 -0.1779 -0.3350
 7258TIP3    H143189   4.168   6.188   0.054  0.1469 -1.1128  0.9752
 7258TIP3    H243190   4.209   6.237   0.192  0.9202  1.2242 -0.0493
 7259TIP3   OH243191   0.179   2.043   3.507 -0.1631 -0.4760  0.1414
 7259TIP3    H143192   0.215   2.008   3.426 -1.6956 -3.8605  0.8623
 7259TIP3    H243193   0.135   2.124   3.481  1.2329 -0.3855 -2.0068
 7260TIP3   OH243194   4.690   3.471  15.933 -0.4623  0.1835  0.2984
 7260TIP3    H143195   4.727   3.385  15.951 -0.9402  0.0149  0.4879
 7260TIP3    H243196   4.651   3.463  15.846  0.5323  0.5601 -0.1938
 7261TIP3   OH243197   5.592   1.652  15.194 -0.6358 -0.5371 -0.5574
 7261TIP3    H143198   5.589   1.653  15.098 -0.0969 -1.8363 -0.5970
 7261TIP3    H243199   5.684   1.636  15.215 -0.1027  3.1261  0.2392
 7262TIP3   OH243200   0.348   0.271   0.398 -0.0646 -0.0693  0.3693
 7262TIP3    H143201   0.328   0.193   0.347 -0.9909  0.3214  0.1241
 7262TIP3    H243202   0.443   0.283   0.389  0.1439 -1.3641  0.7074
 7263TIP3   OH243203   3.942   0.250   4.131 -0.4036  0.7441 -0.5526
 7263TIP3    H143204   3.943   0.277   4.039  0.6531  1.4015 -0.3576
 7263TIP3    H243205   3.962   0.329   4.180 -1.3616  0.4813  0.2778
 7264TIP3   OH243206   5.655   3.726  16.593 -0.5996  0.0447  0.0930
 7264TIP3    H143207   5.685   3.816  16.607  1.8857 -0.4623 -1.6615
 7264TIP3    H243208   5.708   3.674  16.653 -0.6740 -0.4592 -0.2789
 7265TIP3   OH243209   0.154   1.964   3.214 -0.2321 -0.2737  0.2556
 7265TIP3    H143210   0.163   1.882   3.262  0.7879 -0.0292  0.4917
 7265TIP3    H243211   0.118   1.938   3.129 -0.3306 -0.9129  0.4922
 7266TIP3   OH243212   6.573   0.337  16.472  0.1828 -0.3639  0.4117
 7266TIP3    H143213   6.621   0.257  16.452 -1.1716 -0.9512 -0.6082
 7266TIP3    H243214   6.512   0.348  16.399  2.1206  3.0480 -0.8084
 7267TIP3   OH243215   3.529   1.315  11.537  0.1564 -0.7057  0.3383
 7267TIP3    H143216   3.530   1.388  11.476  1.0051  0.0776  1.2763
 7267TIP3    H243217   3.448   1.325  11.586 -0.0723 -0.8011 -0.0212
 7268TIP3   OH243218   1.115   3.122   2.559 -0.0251 -0.3434 -0.0932
 7268TIP3    H143219   1.121   3.213   2.586 -1.3844 -0.4166  0.5211
 7268TIP3    H243220   1.043   3.121   2.495 -0.0725 -0.9873 -0.0370
 7269TIP3   OH243221   5.515   3.159   6.386  0.8238 -0.2996  0.2877
 7269TIP3    H143222   5.530   3.253   6.380  0.0388 -0.0499  1.9847
 7269TIP3    H243223   5.542   3.125   6.301 -3.2737  2.0829 -2.1160
 7270TIP3   OH243224   1.277   4.569   2.833  0.1563  0.1316  0.5224
 7270TIP3    H143225   1.220   4.561   2.909  0.5471 -1.4257  0.6562
 7270TIP3    H243226   1.258   4.492   2.779  0.0872  1.0669 -0.8281
 7271TIP3   OH243227   4.725   4.439  14.851  0.1083  0.3453 -0.2401
 7271TIP3    H143228   4.630   4.449  14.850 -0.1603 -1.8065  0.6400
 7271TIP3    H243229   4.756   4.498  14.783 -1.8460  1.1862 -0.4470
 7272TIP3   OH243230   2.293   1.053   5.685  0.0035 -0.4028  0.0391
 7272TIP3    H143231   2.299   1.147   5.700 -1.0480 -0.3307  0.0601
 7272TIP3    H243232   2.311   1.042   5.592  0.5040 -0.2245  0.1131
 7273TIP3   OH243233   3.109   0.873   6.480  0.1597  0.2123  0.2043
 7273TIP3    H143234   3.065   0.803   6.431 -0.9203  0.5866  0.6337
 7273TIP3    H243235   3.181   0.828   6.525 -3.0825 -1.4927  3.9540
 7274TIP3   OH243236   3.203   0.044   0.202  0.2105  0.4892  0.5734
 7274TIP3    H143237   3.219  -0.024   0.268  1.3486  0.9017  0.7201
 7274TIP3    H243238   3.158   0.114   0.250 -0.2219  0.1926  0.6025
 7275TIP3   OH243239   2.736   4.005   3.608 -0.7716 -0.2109  0.2106
 7275TIP3    H143240   2.821   3.980   3.571 -0.6605  0.9856 -0.3833
 7275TIP3    H243241   2.742   3.982   3.700  0.6746  1.0174  0.4419
 7276TIP3   OH243242   0.191   5.805   3.259 -0.6081  0.2885 -0.2424
 7276TIP3    H143243   0.184   5.758   3.342  0.6755 -0.4930 -0.5590
 7276TIP3    H243244   0.177   5.896   3.282  2.8752  0.4908  1.3860
 7277TIP3   OH243245   5.363   5.850  13.467  0.1243  0.4274  0.1628
 7277TIP3    H143246   5.457   5.842  13.451  0.1255 -0.6982  0.6746
 7277TIP3    H243247   5.355   5.851  13.563 -0.3261  1.2485  0.1178
 7278TIP3   OH243248   5.697   3.235   2.758  0.0069 -0.0523 -0.1823
 7278TIP3    H143249   5.723   3.324   2.783 -0.6101  0.4302 -1.2243
 7278TIP3    H243250   5.661   3.198   2.839  0.0059  0.7504  0.1965
 7279TIP3   OH243251   1.771   0.554  14.928 -0.3146 -0.0101 -0.1664
 7279TIP3    H143252   1.772   0.646  14.903 -0.6139  0.3333  1.0287
 7279TIP3    H243253   1.859   0.522  14.907 -0.0402  0.6880 -0.0986
 7280TIP3   OH243254   3.637   2.113   4.960  0.2749  0.1025 -0.6417
 7280TIP3    H143255   3.663   2.024   4.982  1.5733  0.7197  0.3984
 7280TIP3    H243256   3.638   2.160   5.044 -2.2492  0.6605 -0.8743
 7281TIP3   OH243257   2.203   5.033  16.116  0.8279  0.0701  0.1660
 7281TIP3    H143258   2.285   5.081  16.100  0.6835  1.1065  2.4810
 7281TIP3    H243259   2.135   5.099  16.112  0.2666 -0.5071  0.0849
 7282TIP3   OH243260   1.688   2.327   5.425 -0.3993  0.3245  0.2007
 7282TIP3    H143261   1.678   2.363   5.337 -2.4055 -0.9236 -0.1020
 7282TIP3    H243262   1.598   2.310   5.455  0.2722  0.2749  2.3006
 7283TIP3   OH243263   6.340   3.361   0.638 -0.3593 -0.3924 -0.3397
 7283TIP3    H143264   6.390   3.295   0.687  0.2877 -1.1297 -1.9497
 7283TIP3    H243265   6.367   3.445   0.675  1.7925 -0.8034 -0.9192
 7284TIP3   OH243266   4.379   4.677  14.131 -0.2144 -0.0656  0.1625
 7284TIP3    H143267   4.470   4.670  14.104 -0.2666 -1.0972  0.2200
 7284TIP3    H243268   4.330   4.690  14.050 -0.0920 -0.2894  0.0527
 7285TIP3   OH243269   6.586   6.021   0.075 -0.4553  0.3522  0.0766
 7285TIP3    H143270   6.609   5.963   0.003 -1.2521  2.0843 -1.6193
 7285TIP3    H243271   6.521   6.081   0.038 -1.5661  0.7018  2.4970
 7286TIP3   OH243272   2.006   3.401  10.987 -0.1118  0.0240 -0.3050
 7286TIP3    H143273   1.980   3.460  11.057 -1.9283  0.5124 -1.3657
 7286TIP3    H243274   1.980   3.314  11.017  1.3120 -0.0868  0.6560
 7287TIP3   OH243275   0.670   0.725  14.713 -0.5475 -1.1551 -0.1819
 7287TIP3    H143276   0.721   0.744  14.634 -1.1150 -2.2101 -0.8081
 7287TIP3    H243277   0.606   0.660  14.685 -1.5408 -0.6350  0.8643
 7288TIP3   OH243278   1.278   3.051  10.887 -0.2740  0.3782 -0.0258
 7288TIP3    H143279   1.186   3.040  10.910 -0.3288 -0.9701 -0.8117
 7288TIP3    H243280   1.277   3.105  10.809 -0.3168  1.4955  0.7400
 7289TIP3   OH243281   5.954   4.438  16.069 -0.2820 -0.6183 -0.2282
 7289TIP3    H143282   6.007   4.465  15.994 -1.4303  0.5653 -0.6401
 7289TIP3    H243283   5.872   4.487  16.059  0.3693  1.2444  2.9867
 7290TIP3   OH243284   2.120   2.023   6.295 -0.2871  0.1043  0.2337
 7290TIP3    H143285   2.172   1.960   6.243 -1.1359 -0.2297 -0.2184
 7290TIP3    H243286   2.184   2.087   6.325  0.7500 -1.4402  1.4087
 7291TIP3   OH243287   3.901   1.985   2.984 -0.3276  0.0544 -0.9021
 7291TIP3    H143288   3.870   1.984   3.075  0.5611 -0.4633 -0.6019
 7291TIP3    H243289   3.825   2.015   2.934 -1.0024 -0.2079 -0.0554
 7292TIP3   OH243290   1.474   4.731   3.133  0.4432 -0.0140 -0.3118
 7292TIP3    H143291   1.405   4.765   3.076  0.6193  1.2857  0.2408
 7292TIP3    H243292   1.555   4.752   3.087  0.5225 -0.4606 -0.3792
 7293TIP3   OH243293   2.601   4.484  14.353  0.1802 -0.4611  0.3729
 7293TIP3    H143294   2.522   4.537  14.338 -0.2852 -1.2188  0.1067
 7293TIP3    H243295   2.674   4.542  14.331 -0.3240  0.0793  0.1140
 7294TIP3   OH243296   3.552   0.503  14.404  0.2069  0.0175  0.2138
 7294TIP3    H143297   3.602   0.421  14.403 -1.5273 -1.1089  1.4971
 7294TIP3    H243298   3.510   0.506  14.318  0.5892 -0.2541  0.0170
 7295TIP3   OH243299   4.335   1.953  11.114  0.1504  0.0202  0.1878
 7295TIP3    H143300   4.250   1.995  11.124  0.4232  0.6472 -0.0983
 7295TIP3    H243301   4.376   1.998  11.040  1.4442  0.9456  1.4334
 7296TIP3   OH243302   5.471   0.294   5.147  0.4073 -0.9815  0.2674
 7296TIP3    H143303   5.409   0.299   5.074  0.6006 -0.3037  0.1422
 7296TIP3    H243304   5.549   0.340   5.116  0.9882 -1.8547  0.4156
 7297TIP3   OH243305   6.704   3.685  13.362 -0.3544 -0.3169  0.6221
 7297TIP3    H143306   6.763   3.756  13.388 -1.6983  0.3391  1.9913
 7297TIP3    H243307   6.754   3.605  13.376  0.6272  0.2938  0.6164
 7298TIP3   OH243308   0.844   5.146   3.336  0.9821  0.8177 -0.3653
 7298TIP3    H143309   0.801   5.151   3.251  1.0898  2.9989 -0.3224
 7298TIP3    H243310   0.817   5.227   3.381 -1.0350 -1.3849  2.6044
 7299TIP3   OH243311   1.780   0.976   0.893 -0.3674  0.4026  0.6430
 7299TIP3    H143312   1.718   0.942   0.828  0.1147  0.2322  0.2686
 7299TIP3    H243313   1.805   0.899   0.945 -1.1194  0.6240  1.3436
 7300TIP3   OH243314   1.279   5.154   3.708  0.0886 -0.8171 -0.0366
 7300TIP3    H143315   1.358   5.162   3.654 -0.9362 -1.8947 -1.7697
 7300TIP3    H243316   1.210   5.193   3.655 -0.8607 -1.4601  0.7024
 7301TIP3   OH243317   1.943   2.875  14.512  0.5704 -0.2876 -0.3477
 7301TIP3    H143318   2.035   2.875  14.483  0.0018 -0.8277 -2.2198
 7301TIP3    H243319   1.905   2.951  14.468 -0.4133 -1.3771 -1.4318
 7302TIP3   OH243320   2.461   0.938   5.122  0.5314  0.1285 -0.3363
 7302TIP3    H143321   2.456   0.864   5.182 -1.1114  0.3008 -0.2310
 7302TIP3    H243322   2.539   0.986   5.149 -0.2810  0.3071  1.7905
 7303TIP3   OH243323   0.392   1.079  12.877 -0.2400 -0.1680 -0.1392
 7303TIP3    H143324   0.385   1.156  12.934  0.6447 -0.6636  0.6576
 7303TIP3    H243325   0.313   1.082  12.823 -1.3228  0.0655  1.4175
 7304TIP3   OH243326   2.689   0.148   4.287 -0.3252  0.1677  0.1064
 7304TIP3    H143327   2.607   0.197   4.278  0.4614  1.5334  0.4126
 7304TIP3    H243328   2.739   0.195   4.353  0.5699 -0.8781  0.1933
 7305TIP3   OH243329   5.473   0.584  11.730  0.4979 -0.1579 -0.4024
 7305TIP3    H143330   5.568   0.594  11.731  0.4100  0.6993 -0.5540
 7305TIP3    H243331   5.439   0.673  11.727 -0.2871 -0.4925 -2.1436
 7306TIP3   OH243332   0.923   0.790  13.999 -0.1902 -0.5213 -0.0808
 7306TIP3    H143333   0.951   0.866  14.051 -0.1197 -1.2529  0.9802
 7306TIP3    H243334   0.999   0.732  14.000 -1.0401 -1.6399  1.1140
 7307TIP3   OH243335   2.326   1.777  16.694  0.0643  0.5367  0.4880
 7307TIP3    H143336   2.344   1.862  16.654  1.3004  0.1456  0.2034
 7307TIP3    H243337   2.407   1.726  16.681 -0.8746 -0.8980  0.0947
 7308TIP3   OH243338   0.659   5.117   0.698 -0.4886 -0.3000 -0.3335
 7308TIP3    H143339   0.662   5.062   0.776 -0.5161  0.5500  0.2783
 7308TIP3    H243340   0.617   5.062   0.631 -0.2931 -1.0961  0.1904
 7309TIP3   OH243341   3.650   0.832  11.682 -0.3714 -0.2613  0.2104
 7309TIP3    H143342   3.708   0.889  11.632 -0.0655 -1.3053 -0.6524
 7309TIP3    H243343   3.708   0.786  11.743 -0.7330  0.9519  1.4914
 7310TIP3   OH243344   3.528   4.907   1.811 -0.4032  0.1845  0.5315
 7310TIP3    H143345   3.470   4.901   1.887 -0.6189  1.7828  0.5123
 7310TIP3    H243346   3.470   4.904   1.735 -0.2819 -0.3219  0.4585
 7311TIP3   OH243347   4.408   2.062  16.030 -0.0694  0.2225  0.2366
 7311TIP3    H143348   4.404   2.141  15.976 -1.7175 -0.5377 -0.8206
 7311TIP3    H243349   4.319   2.051  16.063  0.4479 -0.4954  1.4161
 7312TIP3   OH243350   1.685   1.738  15.302 -0.0644  0.0982  0.0731
 7312TIP3    H143351   1.657   1.753  15.392  1.4753 -0.4494  0.6612
 7312TIP3    H243352   1.657   1.817  15.255 -0.1747  0.7361  1.1839
 7313TIP3   OH243353   4.230   1.955   1.669 -0.5338  0.0182  0.5244
 7313TIP3    H143354   4.307   1.963   1.725 -1.0684 -0.7026  1.3781
 7313TIP3    H243355   4.240   2.025   1.604  0.6679  0.1340  0.8236
 7314TIP3   OH243356   4.904   1.861   5.588  0.2764 -0.0067 -0.3079
 7314TIP3    H143357   4.837   1.816   5.536  1.1349  0.1831 -1.6049
 7314TIP3    H243358   4.855   1.923   5.642 -0.6251 -0.0517 -1.0638
 7315TIP3   OH243359   0.852   0.112  15.307  0.0640  0.0201 -0.2610
 7315TIP3    H143360   0.793   0.182  15.279  0.2551  1.0268  1.7596
 7315TIP3    H243361   0.939   0.140  15.279  0.2745  1.0946  1.3586
 7316TIP3   OH243362   5.859   4.879  13.645  0.4961  0.4777 -0.0820
 7316TIP3    H143363   5.789   4.837  13.694  0.1636  1.3436  0.1949
 7316TIP3    H243364   5.892   4.947  13.703  3.6217 -1.8507  1.0213
 7317TIP3   OH243365   1.380   2.064   4.211 -0.1494  0.3673 -0.4052
 7317TIP3    H143366   1.334   2.147   4.217 -2.3339 -0.8417  0.2168
 7317TIP3    H243367   1.345   2.023   4.132  0.8504 -0.0079 -0.6594
 7318TIP3   OH243368   3.435   1.506   5.102  0.0058  0.2172  0.5355
 7318TIP3    H143369   3.417   1.414   5.119  1.4009 -0.0603  0.5504
 7318TIP3    H243370   3.377   1.529   5.029 -1.4044 -0.2635  1.4737
 7319TIP3   OH243371   2.932   2.062  15.557  0.3673 -0.1344 -0.1870
 7319TIP3    H143372   2.965   1.977  15.586  2.3851  1.0209  1.0072
 7319TIP3    H243373   2.961   2.069  15.466  1.4216 -0.1490  0.1344
 7320TIP3   OH243374   1.591   4.331   3.715  0.0900  0.0466  0.7165
 7320TIP3    H143375   1.663   4.292   3.666  0.9856  0.4158  1.7334
 7320TIP3    H243376   1.626   4.345   3.803 -1.6707 -1.0805  1.6276
 7321TIP3   OH243377   5.272   0.164  12.221 -0.1785 -0.3856 -0.0610
 7321TIP3    H143378   5.336   0.201  12.282 -0.0309 -1.3958  0.3970
 7321TIP3    H243379   5.216   0.109  12.275  0.0386 -1.4069 -0.8511
 7322TIP3   OH243380   2.224   4.470   3.280 -0.0608  0.1688  0.5439
 7322TIP3    H143381   2.267   4.495   3.362 -2.0778 -0.0178  1.6721
 7322TIP3    H243382   2.249   4.539   3.218  1.6791  0.1769  1.2197
 7323TIP3   OH243383   5.133   3.216   2.301  0.2917 -0.9468  0.1725
 7323TIP3    H143384   5.088   3.172   2.229  0.0418 -3.1888  1.6576
 7323TIP3    H243385   5.213   3.251   2.262 -0.2565 -1.3724 -1.3728
 7324TIP3   OH243386   3.228   0.052   2.612 -0.3524 -0.0987 -0.2122
 7324TIP3    H143387   3.230   0.092   2.525  1.0356 -0.5402 -0.3966
 7324TIP3    H243388   3.206   0.124   2.671 -0.4080  0.3943 -0.8282
 7325TIP3   OH243389   4.358   6.535  11.662 -0.2121 -0.3600  0.0474
 7325TIP3    H143390   4.397   6.575  11.583 -0.7180  1.2307  0.5785
 7325TIP3    H243391   4.350   6.608  11.724 -0.6906 -1.4118  1.2395
 7326TIP3   OH243392   0.218   0.739   0.689 -0.2506  0.4523  0.1971
 7326TIP3    H143393   0.126   0.757   0.707 -0.6054 -0.0658 -0.9639
 7326TIP3    H243394   0.232   0.774   0.601 -0.3953 -2.8191 -1.2253
 7327TIP3   OH243395   6.326   0.802  10.766 -0.0634 -0.6675 -0.2155
 7327TIP3    H143396   6.301   0.858  10.693  0.4465 -1.1586 -0.7765
 7327TIP3    H243397   6.416   0.774  10.745  0.7815  0.6908  1.5298
 7328TIP3   OH243398   4.861   3.141  16.448  0.1585  0.3004  0.4957
 7328TIP3    H143399   4.911   3.097  16.516  2.1684 -1.8405 -2.2429
 7328TIP3    H243400   4.927   3.171  16.385 -1.6750  1.5760 -0.8641
 7329TIP3   OH243401   6.396   2.328   3.086 -0.3557 -0.0994 -0.0574
 7329TIP3    H143402   6.361   2.415   3.070 -1.9490 -0.4736  1.2435
 7329TIP3    H243403   6.322   2.269   3.070  0.7819 -1.2584 -1.2555
 7330TIP3   OH243404   3.851   2.790   1.084  0.2961 -0.1702  0.2255
 7330TIP3    H143405   3.854   2.731   1.160 -0.2650 -0.1777  0.2419
 7330TIP3    H243406   3.942   2.797   1.056  0.2384 -1.9538 -0.4667
 7331TIP3   OH243407   3.046   0.154  12.516 -0.6170  0.1062 -0.3668
 7331TIP3    H143408   3.006   0.111  12.591 -0.2757  1.1049  0.3918
 7331TIP3    H243409   3.086   0.082  12.466 -0.8235 -0.5569  0.4082
 7332TIP3   OH243410   0.399   0.689  16.616 -0.0956  0.4718  0.2354
 7332TIP3    H143411   0.347   0.612  16.591  0.4556  0.1550  0.0519
 7332TIP3    H243412   0.476   0.685  16.560  0.5877  0.4056  1.1693
 7333TIP3   OH243413   5.817   3.948   3.366  0.3324 -0.1365 -0.2175
 7333TIP3    H143414   5.846   4.019   3.308 -0.6704  0.5039  0.0362
 7333TIP3    H243415   5.735   3.981   3.403  0.4290 -0.9881  0.7515
 7334TIP3   OH243416   3.563   2.297  17.013 -0.0035  0.4510  0.3439
 7334TIP3    H143417   3.586   2.384  16.980  0.7214  0.8037  1.7340
 7334TIP3    H243418   3.647   2.258  17.038 -0.4622 -0.0455  1.1422
 7335TIP3   OH243419   0.824   3.205   0.154 -0.3739 -0.3090 -0.3096
 7335TIP3    H143420   0.868   3.191   0.070 -0.6724 -0.5312 -0.4302
 7335TIP3    H243421   0.784   3.120   0.174 -2.2526  0.3639 -1.0798
 7336TIP3   OH243422   5.517   4.372   3.586  0.4874 -0.4571  0.0227
 7336TIP3    H143423   5.554   4.301   3.533 -1.2105 -2.4495  1.4229
 7336TIP3    H243424   5.465   4.424   3.525  1.4775 -0.6033 -0.9554
 7337TIP3   OH243425   1.514   1.356  10.801  0.1599 -0.5999  0.3993
 7337TIP3    H143426   1.460   1.321  10.872 -0.2693 -0.5937  0.0788
 7337TIP3    H243427   1.561   1.429  10.841 -0.7355 -0.0439  0.4623
 7338TIP3   OH243428   3.773   0.298   0.499  0.7726 -0.2901  0.5695
 7338TIP3    H143429   3.774   0.391   0.519  2.0991 -0.0695 -0.4742
 7338TIP3    H243430   3.819   0.257   0.572  0.8196 -0.0503  0.6752
 7339TIP3   OH243431   1.120   1.092  12.407 -0.0916  0.5244  0.0616
 7339TIP3    H143432   1.130   1.025  12.340  0.2558  0.3926  0.2429
 7339TIP3    H243433   1.028   1.086  12.434  0.2907 -0.8852  1.1118
 7340TIP3   OH243434   4.178   0.527   0.649 -0.0070 -0.3834  0.3338
 7340TIP3    H143435   4.200   0.539   0.741  0.5629 -2.1880  0.4595
 7340TIP3    H243436   4.106   0.588   0.632  1.0637  1.2024  1.5102
 7341TIP3   OH243437   1.745   4.129   5.098 -0.0647  0.1814 -0.0327
 7341TIP3    H143438   1.726   4.051   5.046  1.0429  0.5156 -0.9637
 7341TIP3    H243439   1.724   4.202   5.039 -0.5583  0.5861  0.6366
 7342TIP3   OH243440   1.857   1.318  15.517 -0.1121  0.2189  0.5204
 7342TIP3    H143441   1.845   1.241  15.573  0.2263  0.4405  0.9016
 7342TIP3    H243442   1.770   1.358  15.512 -0.9544 -1.8438 -2.1351
 7343TIP3   OH243443   2.098   5.092   1.606 -0.4734  0.1529  0.7489
 7343TIP3    H143444   2.145   5.062   1.529  0.0440 -0.1127  1.1688
 7343TIP3    H243445   2.014   5.123   1.572  0.1832  1.0608 -0.0555
 7344TIP3   OH243446   1.860   0.808   5.387 -0.5545 -0.1293  0.0129
 7344TIP3    H143447   1.890   0.893   5.417 -2.6627  1.2096 -1.5469
 7344TIP3    H243448   1.889   0.802   5.296  0.0414 -1.3105  0.2655
 7345TIP3   OH243449   4.777   4.138  14.501 -0.1312 -0.2262 -0.7040
 7345TIP3    H143450   4.788   4.043  14.496  0.4115 -0.1656 -0.7798
 7345TIP3    H243451   4.755   4.155  14.592  2.3670 -0.1984 -0.0475
 7346TIP3   OH243452   6.341   3.769   3.544 -0.0077  0.0152  0.0648
 7346TIP3    H143453   6.432   3.788   3.522  0.0969  1.0583  1.3689
 7346TIP3    H243454   6.292   3.789   3.465  0.3272  3.8994  0.7353
 7347TIP3   OH243455   4.633   2.254  16.023 -0.3986  0.6030 -0.1192
 7347TIP3    H143456   4.668   2.260  16.112 -0.5956 -0.5283  0.0376
 7347TIP3    H243457   4.579   2.175  16.023  1.6084 -0.8413 -1.9180
 7348TIP3   OH243458   5.305   0.800  11.774 -0.5814 -0.5959 -0.2709
 7348TIP3    H143459   5.254   0.750  11.838 -1.4407 -1.1444 -1.3767
 7348TIP3    H243460   5.240   0.840  11.717  0.1627  0.4652 -0.3860
 7349TIP3   OH243461   0.172   0.207   0.614 -0.9046 -0.4812 -0.5602
 7349TIP3    H143462   0.160   0.300   0.635 -1.3041 -0.3902 -1.2016
 7349TIP3    H243463   0.245   0.205   0.553 -0.6356 -0.6261 -0.2341
 7350TIP3   OH243464   4.711   1.075  17.126  0.8737  0.0983 -0.1661
 7350TIP3    H143465   4.795   1.037  17.100  0.6771 -0.1193 -0.4971
 7350TIP3    H243466   4.682   1.021  17.199  0.5075 -0.5147 -0.7548
 7351TIP3   OH243467   3.531   5.849  14.687  0.4552  0.2452 -0.4199
 7351TIP3    H143468   3.533   5.754  14.702 -1.2151  0.3616  0.7559
 7351TIP3    H243469   3.476   5.859  14.609  1.6334  0.1878 -1.2717
 7352TIP3   OH243470   0.849   1.291   4.063 -0.2677 -0.2828 -0.7441
 7352TIP3    H143471   0.887   1.291   4.150 -0.7404 -1.5926 -0.5167
 7352TIP3    H243472   0.864   1.379   4.029 -1.7434  0.8319  1.3832
 7353TIP3   OH243473   3.760   6.685  11.128  0.0498 -0.3234  0.1194
 7353TIP3    H143474   3.686   6.662  11.071 -0.5480  2.2023 -0.2068
 7353TIP3    H243475   3.817   6.609  11.125 -0.8413 -0.9544 -2.4464
 7354TIP3   OH243476   0.282   5.773   4.853  0.5684 -0.4960 -0.5395
 7354TIP3    H143477   0.338   5.848   4.832 -0.2226  0.5596  1.0188
 7354TIP3    H243478   0.342   5.698   4.854  1.5396  0.2627 -1.1351
 7355TIP3   OH243479   1.305   5.576   3.800  0.2281 -0.3183  0.2028
 7355TIP3    H143480   1.256   5.527   3.734  1.3870  0.4213 -1.2527
 7355TIP3    H243481   1.253   5.654   3.816 -0.8268 -1.2227  1.3454
 7356TIP3   OH243482   4.651   2.568  13.110 -0.1685  0.2739 -0.2790
 7356TIP3    H143483   4.740   2.563  13.145 -0.4092  1.9545  0.6056
 7356TIP3    H243484   4.661   2.614  13.026 -0.1536  0.1173 -0.3627
 7357TIP3   OH243485   5.728   5.566   6.500 -0.1911 -0.0210  0.3177
 7357TIP3    H143486   5.780   5.644   6.519 -0.1343 -0.7438  3.3828
 7357TIP3    H243487   5.647   5.578   6.551 -0.8732 -1.2330 -0.4501
 7358TIP3   OH243488   1.433   6.262   1.274  0.7086  0.5119  0.4850
 7358TIP3    H143489   1.375   6.239   1.201  0.7596 -0.6491  0.8052
 7358TIP3    H243490   1.508   6.204   1.263  0.2859 -0.3285  2.0181
 7359TIP3   OH243491   5.124   1.939  12.861 -0.3545  0.4036 -0.3556
 7359TIP3    H143492   5.170   1.997  12.921 -0.9514  0.4144  0.0888
 7359TIP3    H243493   5.032   1.949  12.883 -0.3407 -2.2695  1.1690
 7360TIP3   OH243494   5.062   3.503  13.320  0.1351 -0.1061  0.0130
 7360TIP3    H143495   4.980   3.530  13.278  1.4418 -0.5328 -2.9253
 7360TIP3    H243496   5.088   3.424  13.272  2.7752  0.5907  0.2569
 7361TIP3   OH243497   6.548   4.356   1.971 -0.1184  0.1854 -0.2090
 7361TIP3    H143498   6.627   4.405   1.949  0.2292  0.2077  1.0473
 7361TIP3    H243499   6.558   4.272   1.925  0.8210  0.0284  0.2757
 7362TIP3   OH243500   0.880   5.052   2.612  0.4332  0.0333 -0.2928
 7362TIP3    H143501   0.839   5.030   2.695 -2.3808 -2.3055 -2.2260
 7362TIP3    H243502   0.953   4.991   2.604  2.0203  1.6216  1.3217
 7363TIP3   OH243503   4.186   6.046  13.651  0.2374  0.2948 -0.0350
 7363TIP3    H143504   4.252   5.979  13.671  1.4154  1.6059  0.5284
 7363TIP3    H243505   4.231   6.129  13.664 -0.5737  1.2374 -2.7998
 7364TIP3   OH243506   5.502   5.297  12.859 -0.4822  1.1615  0.6296
 7364TIP3    H143507   5.491   5.203  12.869 -1.2548  1.1531 -0.2613
 7364TIP3    H243508   5.570   5.307  12.792  0.3848  1.2357  1.5152
 7365TIP3   OH243509   2.311   0.114   4.957  0.0800 -0.6796  0.3133
 7365TIP3    H143510   2.224   0.120   4.916  0.3820 -1.7209 -0.5028
 7365TIP3    H243511   2.330   0.020   4.958  0.7290 -0.5412  1.4996
 7366TIP3   OH243512   1.399   5.421  14.741 -0.0232  0.6231  0.3870
 7366TIP3    H143513   1.361   5.413  14.828  1.1175 -2.3439  0.6758
 7366TIP3    H243514   1.492   5.439  14.757 -0.0814  1.5291 -0.2476
 7367TIP3   OH243515   5.522   1.529  11.147 -0.4054  0.0872  0.0360
 7367TIP3    H143516   5.458   1.495  11.209 -2.1853  0.0846 -1.7296
 7367TIP3    H243517   5.566   1.451  11.113 -0.2719  0.0057  0.3890
 7368TIP3   OH243518   4.664   2.775  12.622 -0.4859  0.1001 -0.2804
 7368TIP3    H143519   4.691   2.706  12.561 -0.4523  0.9094 -1.1838
 7368TIP3    H243520   4.571   2.789  12.601 -0.7471 -0.3450  0.5635
 7369TIP3   OH243521   3.976   2.129  11.942  0.2691 -0.0014  0.7796
 7369TIP3    H143522   3.914   2.187  11.987 -0.0625  0.2492 -0.0033
 7369TIP3    H243523   3.921   2.058  11.909  0.3273  0.4854 -0.3643
 7370TIP3   OH243524   5.788   2.936   3.655  0.0622 -0.6420  0.4440
 7370TIP3    H143525   5.713   2.984   3.689 -0.3902 -1.2479  0.3059
 7370TIP3    H243526   5.834   2.905   3.734 -0.0856 -0.6665  0.5199
 7371TIP3   OH243527   0.889   1.891  11.908  0.7579 -0.5432 -0.0071
 7371TIP3    H143528   0.838   1.818  11.943  1.1232 -1.4855 -1.4193
 7371TIP3    H243529   0.979   1.873  11.937  0.9449 -0.9618 -0.8444
 7372TIP3   OH243530   6.142   0.332  11.417 -0.1090  0.0799  0.0168
 7372TIP3    H143531   6.048   0.342  11.401 -0.1931  0.6486  0.8574
 7372TIP3    H243532   6.183   0.361  11.335 -0.6209  0.7779  0.0069
 7373TIP3   OH243533   5.296   0.350  13.280 -0.3341 -0.0750 -0.2441
 7373TIP3    H143534   5.340   0.293  13.344 -0.0003 -1.3495 -1.5818
 7373TIP3    H243535   5.211   0.369  13.320  0.6687  0.8734  1.5200
 7374TIP3   OH243536   5.482   4.955  14.209  0.4124  0.3091  0.1249
 7374TIP3    H143537   5.400   4.938  14.163 -0.1587  0.1016  1.2062
 7374TIP3    H243538   5.548   4.954  14.140 -0.3506 -0.6065 -0.6197
 7375TIP3   OH243539   6.115   4.393   3.170  0.2174 -0.0921  0.1234
 7375TIP3    H143540   6.127   4.343   3.089  0.7829 -2.1178  1.4278
 7375TIP3    H243541   6.141   4.333   3.240  1.9348  2.3958  1.7036
 7376TIP3   OH243542   0.612   2.916   4.913  0.1413 -0.8203  1.1299
 7376TIP3    H143543   0.701   2.947   4.929 -0.5439  2.1277 -0.4439
 7376TIP3    H243544   0.571   2.914   4.999  1.0266  0.1137  1.5817
 7377TIP3   OH243545   1.443   2.335  13.294 -0.0968 -0.2090 -0.7040
 7377TIP3    H143546   1.391   2.266  13.334 -1.2266  0.0568 -1.6662
 7377TIP3    H243547   1.386   2.371  13.225  0.9192  0.8736 -1.0019
 7378TIP3   OH243548   2.968   4.045  10.896  0.3310 -0.2504 -0.0146
 7378TIP3    H143549   3.059   4.025  10.916  0.3211  1.3297  1.7353
 7378TIP3    H243550   2.970   4.131  10.856 -0.3294 -0.5382 -0.6782
 7379TIP3   OH243551   3.347   2.869  10.298  0.6318  0.1020  0.0773
 7379TIP3    H143552   3.325   2.957  10.328 -1.5396 -0.2536 -0.3890
 7379TIP3    H243553   3.342   2.815  10.377  0.3253  0.1125  0.0657
 7380TIP3   OH243554   1.065   1.097   3.951  0.3111 -0.2326  0.3175
 7380TIP3    H143555   0.986   1.056   3.917  0.5040  0.0923 -0.5485
 7380TIP3    H243556   1.035   1.181   3.986  0.2423 -0.1913  0.1614
 7381TIP3   OH243557   1.860   5.901  16.484 -0.1386 -0.0630  0.0777
 7381TIP3    H143558   1.932   5.854  16.442  1.2087  1.3482  0.7915
 7381TIP3    H243559   1.810   5.939  16.411 -0.8816 -2.0292 -0.4789
 7382TIP3   OH243560   6.519   5.244  11.193  0.1513  0.1526  0.2530
 7382TIP3    H143561   6.595   5.186  11.199  2.7591  3.4561  0.6957
 7382TIP3    H243562   6.499   5.246  11.099 -0.5321 -2.0927  0.3224
 7383TIP3   OH243563   5.296   6.747   6.506 -0.1983 -0.2762  0.3550
 7383TIP3    H143564   5.301   6.828   6.556 -1.9366  1.1818 -1.7048
 7383TIP3    H243565   5.216   6.705   6.537  0.4301 -0.9581  1.0587
 7384TIP3   OH243566   5.736   0.385   0.190  0.7065  0.2590  0.2281
 7384TIP3    H143567   5.729   0.290   0.183  0.3879  0.2920  0.0765
 7384TIP3    H243568   5.765   0.414   0.104 -1.2108  0.4790 -0.3817
 7385TIP3   OH243569   2.099   4.401  13.782 -0.2213  0.2800  0.2570
 7385TIP3    H143570   2.128   4.480  13.738 -0.5966  0.3927  0.2040
 7385TIP3    H243571   2.172   4.340  13.774 -1.1383 -0.5169 -2.6055
 7386TIP3   OH243572   1.572   6.552  11.045 -0.3405 -0.3470  0.2286
 7386TIP3    H143573   1.568   6.544  11.140 -1.6445 -2.1672  0.0528
 7386TIP3    H243574   1.646   6.611  11.029  0.5162 -0.7947  2.3209
 7387TIP3   OH243575   3.321   4.133  11.938  0.2563  0.2557  0.3418
 7387TIP3    H143576   3.319   4.073  12.013  1.7321 -1.1032 -0.6928
 7387TIP3    H243577   3.377   4.090  11.874  0.6798  2.3641 -0.7479
 7388TIP3   OH243578   4.533   2.482   0.820 -0.1428  0.2861 -0.0399
 7388TIP3    H143579   4.476   2.546   0.863  0.6192  0.5876  0.5317
 7388TIP3    H243580   4.535   2.407   0.880  1.9901  1.2349  1.1236
 7389TIP3   OH243581   4.496   3.786  13.679 -0.3096  0.0960 -0.1132
 7389TIP3    H143582   4.542   3.816  13.757  0.3097  1.0191 -0.8199
 7389TIP3    H243583   4.490   3.864  13.623  1.0314 -1.0178 -1.8516
 7390TIP3   OH243584   5.229   4.327   6.758 -0.4161  0.1824 -0.3144
 7390TIP3    H143585   5.199   4.374   6.836 -0.4464 -2.2521  1.1830
 7390TIP3    H243586   5.157   4.268   6.736  0.9827 -1.6342 -0.0954
 7391TIP3   OH243587   0.834   1.721   4.213  0.2996 -0.7089  0.1942
 7391TIP3    H143588   0.878   1.771   4.144  0.8153 -1.1683  0.1850
 7391TIP3    H243589   0.847   1.629   4.187  1.5124 -0.9225  1.5104
 7392TIP3   OH243590   4.707   1.360   6.748 -0.5941 -0.0871 -0.1410
 7392TIP3    H143591   4.743   1.431   6.801 -1.2881  0.4841 -0.4387
 7392TIP3    H243592   4.627   1.395   6.711  0.7714  0.1206 -3.0090
 7393TIP3   OH243593   2.663   6.632  12.573  0.2384 -0.3265  0.1247
 7393TIP3    H143594   2.612   6.555  12.599 -1.8391  0.4562 -1.4834
 7393TIP3    H243595   2.604   6.682  12.517  2.1159  1.6424 -0.1633
 7394TIP3   OH243596   2.584   3.136  15.224  0.3003 -0.7805 -0.5597
 7394TIP3    H143597   2.641   3.212  15.231  1.5545 -1.5548 -2.1101
 7394TIP3    H243598   2.555   3.119  15.314  0.2135  1.3396 -0.1591
 7395TIP3   OH243599   1.233   0.402   0.364 -0.0527  0.5524  0.4405
 7395TIP3    H143600   1.209   0.439   0.279 -1.3733  0.9198  0.9609
 7395TIP3    H243601   1.189   0.317   0.366  0.2996  0.3737  0.5945
 7396TIP3   OH243602   2.903   4.285  11.861 -0.9344 -0.8202 -0.1234
 7396TIP3    H143603   2.889   4.315  11.771 -0.6307 -1.1528 -0.2853
 7396TIP3    H243604   2.823   4.237  11.883 -0.5658 -1.6745 -0.6093
 7397TIP3   OH243605   6.260   1.411   2.743 -0.2072 -0.7129 -0.1991
 7397TIP3    H143606   6.206   1.465   2.800  0.9491  0.5812 -0.2765
 7397TIP3    H243607   6.231   1.433   2.654 -0.5278 -1.0797 -0.1816
 7398TIP3   OH243608   6.330   1.304  11.274 -0.6332  0.0160  0.3003
 7398TIP3    H143609   6.293   1.346  11.197 -1.5543 -0.1982  0.6133
 7398TIP3    H243610   6.332   1.373  11.340  1.7950  0.6615 -0.4203
 7399TIP3   OH243611   3.533   0.522   3.646 -1.0327 -0.0955 -0.0037
 7399TIP3    H143612   3.503   0.463   3.577  1.7377 -0.5726 -0.8787
 7399TIP3    H243613   3.629   0.522   3.637 -0.8010  2.0188  2.0578
 7400TIP3   OH243614   5.264   6.373  14.151 -0.1345 -0.0085  0.2248
 7400TIP3    H143615   5.297   6.460  14.173  2.7366 -0.0655 -3.3593
 7400TIP3    H243616   5.340   6.316  14.159 -1.2106 -1.6024 -0.7038
 7401TIP3   OH243617   1.058   0.333  11.740  0.1526 -0.1699  0.2610
 7401TIP3    H143618   1.065   0.262  11.676  0.6166 -0.2133  0.3563
 7401TIP3    H243619   1.119   0.309  11.809 -0.0820  0.0584  0.5512
 7402TIP3   OH243620   1.472   4.547  10.892  0.0966  0.1045  0.2412
 7402TIP3    H143621   1.379   4.545  10.868  0.5918 -0.3319 -1.7055
 7402TIP3    H243622   1.517   4.513  10.816  1.9302  0.9667  0.9128
 7403TIP3   OH243623   1.335   2.847   4.987  0.4166 -0.9373  0.3089
 7403TIP3    H143624   1.320   2.922   5.045 -3.1226 -1.0763 -0.2823
 7403TIP3    H243625   1.426   2.856   4.959  0.6139  2.1171  1.6993
 7404TIP3   OH243626   0.357   6.351  12.861 -0.5902  0.5329 -0.1262
 7404TIP3    H143627   0.329   6.316  12.946  0.2491  2.0803  0.8011
 7404TIP3    H243628   0.276   6.368  12.814 -1.1876  2.6293  1.5883
 7405TIP3   OH243629   1.743   1.180  10.911 -0.2247  0.6111 -0.3144
 7405TIP3    H143630   1.722   1.237  10.837 -0.7711  0.2694 -0.4204
 7405TIP3    H243631   1.682   1.107  10.904  1.1141 -0.4903 -0.7431
 7406TIP3   OH243632   3.087   0.757   2.802  0.7488 -0.0324 -0.1881
 7406TIP3    H143633   3.137   0.819   2.855 -1.0678  0.9114  0.4710
 7406TIP3    H243634   3.047   0.699   2.867  1.4462 -1.1387 -0.7412
 7407TIP3   OH243635   1.785   2.023   2.223  0.2257 -0.4067 -0.1443
 7407TIP3    H143636   1.745   1.951   2.173  0.4111 -0.6528  0.0651
 7407TIP3    H243637   1.816   1.983   2.304 -1.1478  0.2195  0.7072
 7408TIP3   OH243638   1.603   5.904   5.139 -0.5634 -0.8557 -0.1305
 7408TIP3    H143639   1.607   5.810   5.156  1.2938 -1.5548 -4.0761
 7408TIP3    H243640   1.513   5.919   5.111 -0.7325 -1.5138  0.0425
 7409TIP3   OH243641   2.313   3.794  15.563  0.3044  0.4858 -0.0741
 7409TIP3    H143642   2.367   3.828  15.492  1.3725  0.4967  0.7268
 7409TIP3    H243643   2.224   3.819  15.540  0.9943  3.3661  0.2285
 7410TIP3   OH243644   4.123   1.148  12.907 -0.1248 -0.0406  0.3942
 7410TIP3    H143645   4.191   1.123  12.844  0.4768  1.0163  0.6180
 7410TIP3    H243646   4.137   1.241  12.921 -1.7416  0.2260  0.3003
 7411TIP3   OH243647   0.712   2.446  14.312  0.4610  1.0246 -0.5841
 7411TIP3    H143648   0.718   2.473  14.220 -0.7207 -1.7011 -1.4930
 7411TIP3    H243649   0.784   2.384  14.323 -0.0273  0.5749  0.0520
 7412TIP3   OH243650   3.092   0.396  13.489  0.4527 -0.4365 -0.5505
 7412TIP3    H143651   3.167   0.454  13.479 -0.4739  0.4871 -2.3506
 7412TIP3    H243652   3.065   0.406  13.580 -0.1395  2.5563 -1.0232
 7413TIP3   OH243653   4.916   3.727  14.774 -0.1302 -0.1906 -0.1459
 7413TIP3    H143654   4.909   3.788  14.701 -0.6822  1.7656  1.5170
 7413TIP3    H243655   5.000   3.748  14.815 -0.7114  0.0554  0.9400
 7414TIP3   OH243656   0.760   5.361   0.795  0.1103 -0.5264 -0.3793
 7414TIP3    H143657   0.850   5.365   0.761  0.0540 -0.9059 -0.5744
 7414TIP3    H243658   0.725   5.279   0.761  0.0115 -0.8495  0.4845
 7415TIP3   OH243659   0.730   1.669  11.997 -0.1505 -0.1119 -0.0124
 7415TIP3    H143660   0.660   1.622  11.951 -1.5685  0.9741  0.9981
 7415TIP3    H243661   0.724   1.639  12.088 -0.5671  1.4236  0.4772
 7416TIP3   OH243662   2.444   3.946  14.012  0.3370  0.3169  0.2051
 7416TIP3    H143663   2.411   3.872  14.062  2.0984  0.7330  2.0250
 7416TIP3    H243664   2.525   3.915  13.972 -0.3910  0.3922 -1.3981
 7417TIP3   OH243665   6.585   0.515   3.742 -0.0900 -0.6206  0.1901
 7417TIP3    H143666   6.574   0.420   3.745 -1.0466 -0.4811  1.2548
 7417TIP3    H243667   6.555   0.546   3.827  1.5728  0.5156  0.3884
 7418TIP3   OH243668   3.477   0.888  16.202 -0.6093  0.3785  0.3932
 7418TIP3    H143669   3.468   0.978  16.233  0.6639  1.0207 -1.0419
 7418TIP3    H243670   3.396   0.871  16.154  0.0305  1.4950 -1.1191
 7419TIP3   OH243671   1.231   2.569   5.643  0.1607 -0.4936 -0.2273
 7419TIP3    H143672   1.163   2.536   5.702  0.8578 -0.1234  0.7943
 7419TIP3    H243673   1.200   2.656   5.617 -0.5384 -0.9837 -1.0602
 7420TIP3   OH243674   4.677   1.341  14.544  0.1877 -0.7840 -0.4998
 7420TIP3    H143675   4.637   1.427  14.559  1.1279 -0.4423  0.0763
 7420TIP3    H243676   4.608   1.279  14.565  0.0327 -0.2053  0.7480
 7421TIP3   OH243677   6.203   2.375   0.075 -0.1720 -0.1560 -0.2040
 7421TIP3    H143678   6.245   2.317   0.139  0.2036  1.2866  0.8611
 7421TIP3    H243679   6.270   2.441   0.056 -0.8680  0.3570 -0.8697
 7422TIP3   OH243680   3.485   4.586  14.589  0.1089 -0.7698  0.0330
 7422TIP3    H143681   3.556   4.524  14.570 -0.2660 -0.9527 -0.7845
 7422TIP3    H243682   3.417   4.564  14.526 -0.0194  0.4886 -0.2682
 7423TIP3   OH243683   1.595   0.293   1.693  0.1310  0.0167  0.2298
 7423TIP3    H143684   1.614   0.270   1.784  0.4683 -1.6914 -0.2632
 7423TIP3    H243685   1.648   0.233   1.641 -1.2335 -0.0579 -1.1104
 7424TIP3   OH243686   3.410   4.512  11.610 -0.3006 -0.2149  0.1331
 7424TIP3    H143687   3.319   4.539  11.606 -0.2433  0.2530  1.6198
 7424TIP3    H243688   3.455   4.586  11.652  0.5355 -0.9859  0.6064
 7425TIP3   OH243689   3.881   3.339  13.720  0.5551 -0.0576 -0.3866
 7425TIP3    H143690   3.834   3.319  13.802  1.4255  0.1938  0.1787
 7425TIP3    H243691   3.825   3.303  13.651 -0.9811  1.1605  0.2086
 7426TIP3   OH243692   0.355   5.175   4.786 -1.0220  0.0523  0.6464
 7426TIP3    H143693   0.320   5.092   4.816  0.0994  0.1862  2.4062
 7426TIP3    H243694   0.413   5.204   4.857  2.6409 -0.1745 -2.1200
 7427TIP3   OH243695   2.205   5.086   5.122  0.1742 -0.1976 -0.2139
 7427TIP3    H143696   2.198   5.029   5.045  1.6211  1.0650 -1.3213
 7427TIP3    H243697   2.220   5.173   5.085  1.6131  0.3038  1.5281
 7428TIP3   OH243698   2.471   5.289  15.089  0.1217  0.4286 -0.2315
 7428TIP3    H143699   2.405   5.352  15.059  0.7597  0.2891 -1.9642
 7428TIP3    H243700   2.543   5.343  15.122 -0.2552  0.5862  0.3429
 7429TIP3   OH243701   1.737   5.825   2.883 -0.0197 -0.1834  0.4731
 7429TIP3    H143702   1.687   5.745   2.866  1.3781 -0.5664 -2.0352
 7429TIP3    H243703   1.717   5.846   2.974 -3.3495 -1.3101  0.0986
 7430TIP3   OH243704   0.967   2.552  14.070 -0.0292 -0.2092  0.2161
 7430TIP3    H143705   1.007   2.553  13.983 -0.8137 -0.9147 -0.1567
 7430TIP3    H243706   1.042   2.549  14.130  0.4926 -0.8269 -0.4577
 7431TIP3   OH243707   1.747   6.017   6.053 -0.0677  0.5101  0.6611
 7431TIP3    H143708   1.761   5.925   6.077  1.8269  0.1272 -1.6578
 7431TIP3    H243709   1.715   6.013   5.963  0.5979  2.1634  0.3357
 7432TIP3   OH243710   0.218   4.063   5.222  0.2577  0.0749  0.3401
 7432TIP3    H143711   0.178   4.029   5.302  0.6164  0.1387  0.5444
 7432TIP3    H243712   0.156   4.039   5.153 -0.0778  0.0626  0.6402
 7433TIP3   OH243713   6.419   3.115  13.548 -0.1333  0.1013  0.0069
 7433TIP3    H143714   6.406   3.054  13.621 -0.5320 -0.3382 -0.4232
 7433TIP3    H243715   6.422   3.059  13.470  0.3992  0.5595 -0.3046
 7434TIP3   OH243716   1.914   3.505  15.616  0.4189 -0.0278  0.2917
 7434TIP3    H143717   1.890   3.586  15.570 -0.3693 -1.1703 -1.3573
 7434TIP3    H243718   1.994   3.527  15.664  0.4252  1.6180 -0.4450
 7435TIP3   OH243719   6.515   1.673   1.264  0.0396 -0.5414 -0.4325
 7435TIP3    H143720   6.516   1.590   1.312  0.0003 -0.5043 -0.3675
 7435TIP3    H243721   6.424   1.700   1.264  0.1551 -0.1402  0.1684
 7436TIP3   OH243722   4.944   5.597   0.327 -0.0336  0.2357 -0.3923
 7436TIP3    H143723   4.976   5.522   0.277  2.1565  1.3055 -0.6434
 7436TIP3    H243724   4.951   5.671   0.267 -2.0246  0.7006 -0.0948
 7437TIP3   OH243725   4.838   1.305  13.110  0.4886 -0.2219  0.2016
 7437TIP3    H143726   4.929   1.317  13.081  0.2975  0.1792 -0.2394
 7437TIP3    H243727   4.841   1.324  13.204  0.8861 -0.3189  0.2099
 7438TIP3   OH243728   5.787   1.110   2.365 -0.0883 -0.2716  0.1402
 7438TIP3    H143729   5.863   1.168   2.357 -0.5764  0.3191 -0.2417
 7438TIP3    H243730   5.801   1.043   2.297 -0.7939  0.8464 -1.1352
 7439TIP3   OH243731   4.036   4.879   5.806  0.5428 -0.1590 -0.0334
 7439TIP3    H143732   3.986   4.862   5.726  0.5222  0.5411 -0.1724
 7439TIP3    H243733   3.971   4.884   5.875  0.5027 -0.1409 -0.0730
 7440TIP3   OH243734   3.232   6.620   0.740  0.1246 -0.3643  0.0965
 7440TIP3    H143735   3.288   6.542   0.732  0.8456  0.3284 -2.1916
 7440TIP3    H243736   3.209   6.642   0.649 -0.9701  1.4433  0.7859
 7441TIP3   OH243737   5.690   1.782   5.862 -0.6688 -0.0193  0.3716
 7441TIP3    H143738   5.695   1.845   5.934  4.2049  0.7628 -0.4812
 7441TIP3    H243739   5.731   1.703   5.898  0.1192 -0.2173 -0.9436
 7442TIP3   OH243740   5.465   5.582   4.732  0.3203  0.0697 -0.1017
 7442TIP3    H143741   5.374   5.560   4.713  0.5121 -1.2450  0.4336
 7442TIP3    H243742   5.460   5.641   4.807 -0.1080  0.1814 -0.2199
 7443TIP3   OH243743   3.019   6.541  11.374 -0.4590  0.3046 -0.1772
 7443TIP3    H143744   2.931   6.577  11.372  0.1657  1.8480 -0.4144
 7443TIP3    H243745   3.062   6.576  11.297  0.9776  1.1704  0.9833
 7444TIP3   OH243746   1.924   2.190   5.376  0.0527 -0.1190 -0.2844
 7444TIP3    H143747   1.862   2.233   5.435  1.2148  0.2181  0.6909
 7444TIP3    H243748   1.868   2.141   5.316 -1.1605 -0.2094  0.8829
 7445TIP3   OH243749   2.443   4.387   1.720  0.0787 -0.4452 -0.5682
 7445TIP3    H143750   2.535   4.399   1.745  0.0441 -1.5179  0.1223
 7445TIP3    H243751   2.429   4.449   1.649  1.2185  0.0469 -0.3735
 7446TIP3   OH243752   2.735   6.615  16.249 -0.2632  0.1019 -0.0578
 7446TIP3    H143753   2.788   6.614  16.169  0.1519 -0.3118  0.2144
 7446TIP3    H243754   2.790   6.660  16.313 -1.1503  1.6555 -0.3708
 7447TIP3   OH243755   3.542   4.896  17.090 -0.0452  0.2670 -0.9892
 7447TIP3    H143756   3.477   4.890  17.020 -0.0364  2.2386 -1.1820
 7447TIP3    H243757   3.626   4.887  17.045 -0.1116 -0.5833 -0.9540
 7448TIP3   OH243758   4.367   1.776   5.728 -0.3879 -0.0568  0.1463
 7448TIP3    H143759   4.412   1.697   5.756  0.1050  0.8168  1.9195
 7448TIP3    H243760   4.289   1.745   5.682  0.9306 -1.5635 -1.1297
 7449TIP3   OH243761   1.699   3.009  12.035 -0.4908  0.2838  0.0074
 7449TIP3    H143762   1.744   2.983  12.116 -2.3294  2.0667  1.6527
 7449TIP3    H243763   1.767   3.052  11.983  1.0631 -2.1530 -0.0765
 7450TIP3   OH243764   1.447   3.343   1.545  0.4181 -0.3759  0.5075
 7450TIP3    H143765   1.503   3.385   1.610  0.5088 -0.4690  0.4889
 7450TIP3    H243766   1.424   3.259   1.585 -1.7897  0.7167  1.6528
 7451TIP3   OH243767   6.539   2.663   2.285 -0.6602 -0.3449 -0.2971
 7451TIP3    H143768   6.453   2.624   2.302 -0.3504 -0.6501  0.5633
 7451TIP3    H243769   6.583   2.662   2.370 -1.0005  2.7379 -0.0052
 7452TIP3   OH243770   4.108   4.373   2.240  0.5815 -0.5450  0.4841
 7452TIP3    H143771   4.180   4.433   2.258  0.7758 -0.8490  0.7308
 7452TIP3    H243772   4.052   4.420   2.178  0.7701 -0.1419  0.6190
 7453TIP3   OH243773   2.591   1.017   4.875 -0.0604  0.1751 -0.1231
 7453TIP3    H143774   2.515   1.015   4.933 -0.0293 -0.8994 -0.1075
 7453TIP3    H243775   2.557   1.051   4.793  0.2293  3.2445  0.9772
 7454TIP3   OH243776   1.874   6.718  15.253 -0.0101  0.3391 -0.3649
 7454TIP3    H143777   1.799   6.714  15.194  0.0496 -0.1953 -0.4100
 7454TIP3    H243778   1.943   6.760  15.203  0.8389 -2.3664 -1.5639
 7455TIP3   OH243779   5.708   2.961   2.144 -1.0123 -1.1274 -0.0798
 7455TIP3    H143780   5.651   2.993   2.073 -0.1223  0.9722  0.1353
 7455TIP3    H243781   5.724   3.037   2.198  0.2756 -2.2062  1.0812
 7456TIP3   OH243782   0.389   0.213  12.050 -0.2019  0.0684  0.2556
 7456TIP3    H143783   0.325   0.215  11.978  1.5571  1.8465 -1.3210
 7456TIP3    H243784   0.436   0.131  12.038  0.5977  0.7113 -1.1109
 7457TIP3   OH243785   6.100   0.382   1.435  0.5472  0.3408 -0.1771
 7457TIP3    H143786   6.153   0.402   1.512  0.5803 -0.5543  0.0412
 7457TIP3    H243787   6.110   0.458   1.378  0.9571  0.7722  0.4690
 7458TIP3   OH243788   5.030   2.058   2.840 -0.5276 -0.1094 -0.1511
 7458TIP3    H143789   4.951   2.020   2.878 -1.0423 -1.9896 -2.9428
 7458TIP3    H243790   5.005   2.148   2.817 -0.7060  0.4936  2.2697
 7459TIP3   OH243791   3.750   6.517   5.153  0.1901 -0.5968  0.2291
 7459TIP3    H143792   3.699   6.543   5.077  2.5190  0.3338 -1.0879
 7459TIP3    H243793   3.695   6.539   5.228 -0.8474  1.4578 -1.0881
 7460TIP3   OH243794   6.054   2.132   4.438 -0.0940  0.1528  0.2835
 7460TIP3    H143795   6.073   2.157   4.348  4.2028  0.9190  1.3257
 7460TIP3    H243796   6.053   2.214   4.487 -0.8431 -0.3873  1.2078
 7461TIP3   OH243797   5.812   6.042  12.724 -0.4212  0.2548  0.5725
 7461TIP3    H143798   5.859   5.994  12.793 -0.6555 -0.8731 -0.0513
 7461TIP3    H243799   5.864   6.027  12.645 -0.2726  1.3799  0.4430
 7462TIP3   OH243800   4.796   0.055  13.539  0.2511 -0.0752 -0.1339
 7462TIP3    H143801   4.846   0.047  13.620 -2.1211  0.9050  1.4793
 7462TIP3    H243802   4.804   0.147  13.515  0.2512 -0.1838 -0.5473
 7463TIP3   OH243803   1.077   5.448  12.921  0.9317 -0.5929 -0.2511
 7463TIP3    H143804   1.029   5.524  12.952  1.3212 -0.3312 -0.2865
 7463TIP3    H243805   1.142   5.431  12.989 -0.1471 -1.8306  0.4979
 7464TIP3   OH243806   2.778   0.756   3.956  0.3550 -1.2284 -0.1545
 7464TIP3    H143807   2.823   0.807   3.889 -1.4986  0.2477 -0.3464
 7464TIP3    H243808   2.835   0.682   3.973  3.4872  1.2498  0.5983
 7465TIP3   OH243809   5.592   5.413  15.757  0.1384  0.3370  0.4821
 7465TIP3    H143810   5.681   5.412  15.724  0.8296  2.1081  2.1765
 7465TIP3    H243811   5.553   5.493  15.720 -0.4701  0.0139  0.4141
 7466TIP3   OH243812   1.957   6.485   2.234  0.0903 -0.4547  0.0005
 7466TIP3    H143813   1.955   6.548   2.163  0.2569  0.1454  0.5208
 7466TIP3    H243814   1.869   6.489   2.272  0.8742  1.3774  1.6788
 7467TIP3   OH243815   4.186   4.239  11.749  0.0238 -0.1380  0.0073
 7467TIP3    H143816   4.274   4.277  11.748  0.6707 -1.6015  0.1225
 7467TIP3    H243817   4.172   4.207  11.660 -0.7280  0.8274 -0.2262
 7468TIP3   OH243818   6.361   5.169   0.973 -0.6398 -0.4803  0.4193
 7468TIP3    H143819   6.306   5.187   0.896 -0.9396  0.9688  0.9674
 7468TIP3    H243820   6.386   5.077   0.963 -0.2037 -0.1558 -1.7224
 7469TIP3   OH243821   2.418   2.946  16.511 -0.6100 -0.2374  0.4917
 7469TIP3    H143822   2.463   3.030  16.498 -0.3877 -0.3266  0.6810
 7469TIP3    H243823   2.380   2.926  16.426  0.7188 -0.7523 -0.0004
 7470TIP3   OH243824   1.331   6.377   2.112  0.6070  0.0620 -0.1117
 7470TIP3    H143825   1.248   6.352   2.153  0.2996  2.2507  0.6934
 7470TIP3    H243826   1.388   6.302   2.126 -1.5935 -2.0346 -1.8260
 7471TIP3   OH243827   0.611   5.966  13.726  0.3156 -0.0241 -0.5014
 7471TIP3    H143828   0.656   5.924  13.799  0.2271  1.2117  0.2662
 7471TIP3    H243829   0.554   5.898  13.691  2.3554 -1.4656 -1.1524
 7472TIP3   OH243830   6.066   1.403   5.780  0.3084 -0.0080 -0.6076
 7472TIP3    H143831   6.148   1.452   5.771  0.8089 -0.8620 -0.8158
 7472TIP3    H243832   6.029   1.402   5.691 -0.9402  2.0883 -0.1291
 7473TIP3   OH243833   4.908   6.319  15.030  0.6458  0.3810  0.2430
 7473TIP3    H143834   4.954   6.386  15.080  0.8797  0.7055 -0.3984
 7473TIP3    H243835   4.949   6.321  14.943 -0.3383  0.4326 -0.2260
 7474TIP3   OH243836   3.316   6.018  16.559 -0.0112  0.0202  0.1661
 7474TIP3    H143837   3.355   5.934  16.534  1.2204  0.8150 -0.5940
 7474TIP3    H243838   3.240   5.994  16.612  0.7925 -1.5709  0.6265
 7475TIP3   OH243839   1.598   2.868   3.996  0.1007  0.3648  0.4975
 7475TIP3    H143840   1.682   2.824   4.001  0.7248  1.7874  3.5547
 7475TIP3    H243841   1.573   2.861   3.904  2.7542 -1.5038 -0.1433
 7476TIP3   OH243842   4.700   1.141   0.218  0.1158 -0.0249 -0.5631
 7476TIP3    H143843   4.640   1.215   0.206  0.5208  0.1440 -1.5820
 7476TIP3    H243844   4.652   1.066   0.183  0.8552  0.2743 -2.2762
 7477TIP3   OH243845   1.300   3.142   3.883 -0.3218 -0.2843  0.4106
 7477TIP3    H143846   1.371   3.099   3.931  1.7327  0.9360 -1.4299
 7477TIP3    H243847   1.254   3.194   3.949  1.1215 -0.3171  1.4535
 7478TIP3   OH243848   6.183   1.459  16.568 -0.3891 -0.0767  0.1539
 7478TIP3    H143849   6.147   1.540  16.531 -0.8002 -0.0444  0.6226
 7478TIP3    H243850   6.136   1.448  16.650  0.2112 -0.3886  0.4543
 7479TIP3   OH243851   6.248   4.893  15.470 -0.2626  0.3779  0.5220
 7479TIP3    H143852   6.331   4.853  15.496  0.2419  1.2008  0.1883
 7479TIP3    H243853   6.189   4.819  15.459  0.3802 -0.2055  0.9215
 7480TIP3   OH243854   3.332   6.492  15.470 -0.5910  0.0438 -0.3181
 7480TIP3    H143855   3.349   6.414  15.522 -2.4612  1.6208  2.8249
 7480TIP3    H243856   3.404   6.551  15.489 -0.7102  0.2108 -0.3757
 7481TIP3   OH243857   5.428   3.979   1.172  0.4455 -0.1520 -0.0569
 7481TIP3    H143858   5.514   4.017   1.192 -0.1455  1.9344 -1.3125
 7481TIP3    H243859   5.421   3.984   1.076 -1.0969 -0.2576  0.0373
 7482TIP3   OH243860   2.225   1.837   5.364  0.5966 -0.0258 -0.2004
 7482TIP3    H143861   2.166   1.872   5.298 -0.0300  1.4711  1.1321
 7482TIP3    H243862   2.261   1.914   5.408  0.3166 -0.9896  1.8031
 7483TIP3   OH243863   2.746   4.701   3.954  0.7990 -0.5407 -0.2287
 7483TIP3    H143864   2.687   4.772   3.933  0.2392 -0.9615 -0.0852
 7483TIP3    H243865   2.820   4.744   3.997  0.8535  0.0424 -0.8952
 7484TIP3   OH243866   2.677   6.533   4.421  0.8144 -0.1941 -0.1834
 7484TIP3    H143867   2.767   6.506   4.405  0.5578  0.1228 -2.4135
 7484TIP3    H243868   2.662   6.605   4.360 -0.4350  0.8842  1.3437
 7485TIP3   OH243869   0.554   3.246  13.883 -0.3768  0.1026  1.0444
 7485TIP3    H143870   0.522   3.199  13.806 -0.4079  0.0480  1.0908
 7485TIP3    H243871   0.479   3.246  13.944 -0.8808  1.5069  0.4513
 7486TIP3   OH243872   6.376   1.559   1.854  0.2653  0.3388  0.0952
 7486TIP3    H143873   6.336   1.539   1.939 -0.6912 -0.9799 -0.6533
 7486TIP3    H243874   6.431   1.635   1.871 -1.1822  1.0890  1.5404
 7487TIP3   OH243875   3.626   0.025   2.258  0.0124  0.3493 -0.5085
 7487TIP3    H143876   3.626   0.110   2.214 -0.6264  0.1488 -0.9082
 7487TIP3    H243877   3.593  -0.037   2.192  0.4947 -0.2101 -0.2297
 7488TIP3   OH243878   0.669   5.799   0.772 -0.1729 -0.1011  0.1863
 7488TIP3    H143879   0.631   5.872   0.821 -0.4600 -0.3490  0.3367
 7488TIP3    H243880   0.614   5.791   0.694  0.7297  0.7724 -0.5580
 7489TIP3   OH243881   1.940   0.155  15.747 -0.7006  0.0575  0.6536
 7489TIP3    H143882   1.900   0.101  15.680  0.3725  1.5109 -1.2159
 7489TIP3    H243883   1.952   0.240  15.705  0.6475  0.7857  2.4520
 7490TIP3   OH243884   3.999   4.360   5.285  0.4630  0.2243  0.3724
 7490TIP3    H143885   4.004   4.454   5.269  1.1914  0.0093 -0.7313
 7490TIP3    H243886   4.087   4.327   5.263  0.5171 -0.5638  1.7416
 7491TIP3   OH243887   3.984   6.523  13.217  0.1192 -0.2161 -0.4191
 7491TIP3    H143888   3.940   6.539  13.133  0.2138 -1.1529 -0.6418
 7491TIP3    H243889   3.923   6.468  13.266  1.9206 -3.2296 -1.5062
 7492TIP3   OH243890   2.676   4.504   2.747 -0.0433  0.2897 -0.7595
 7492TIP3    H143891   2.746   4.560   2.782  0.1307 -1.0981  1.2093
 7492TIP3    H243892   2.601   4.522   2.804 -0.0916 -1.1817 -0.3485
 7493TIP3   OH243893   2.755   0.464  16.820 -0.5682  0.4111  0.6355
 7493TIP3    H143894   2.714   0.460  16.734  1.1835  0.3875 -0.2262
 7493TIP3    H243895   2.726   0.547  16.857 -1.2357  0.4818 -0.0297
 7494TIP3   OH243896   5.938   0.645  14.087  0.3865  0.3697 -0.2897
 7494TIP3    H143897   6.019   0.599  14.065 -0.5075  0.0335 -3.0738
 7494TIP3    H243898   5.883   0.578  14.128  0.6718  0.0256 -0.4663
 7495TIP3   OH243899   2.193   1.887   1.067 -0.6026 -0.3632 -0.9278
 7495TIP3    H143900   2.132   1.816   1.087  1.0267 -1.4147  0.5069
 7495TIP3    H243901   2.280   1.845   1.071  0.3991  1.7404  0.1248
 7496TIP3   OH243902   3.254   1.755  12.069 -0.2789  0.1623  0.8213
 7496TIP3    H143903   3.231   1.838  12.028 -1.2031 -0.5831 -0.1977
 7496TIP3    H243904   3.264   1.777  12.162 -1.9519  1.1561  0.7984
 7497TIP3   OH243905   1.369   4.310  12.929 -0.8174  0.3243  0.2139
 7497TIP3    H143906   1.366   4.221  12.891 -0.4361  0.0961  0.7154
 7497TIP3    H243907   1.324   4.301  13.013  1.2850  0.0601  1.3481
 7498TIP3   OH243908   0.162   1.162  11.461 -0.2222  0.3322 -0.3192
 7498TIP3    H143909   0.080   1.114  11.461  0.0232 -0.0971 -1.2146
 7498TIP3    H243910   0.156   1.220  11.537 -1.0969 -0.1199 -0.0404
 7499TIP3   OH243911   0.130   1.786   0.491 -0.5438 -0.6117 -0.1203
 7499TIP3    H143912   0.165   1.701   0.464 -1.0956 -0.8445 -0.1178
 7499TIP3    H243913   0.036   1.772   0.495 -0.5175 -0.4615  1.4606
 7500TIP3   OH243914   0.545   0.328   4.020 -0.3405  0.1732 -0.5979
 7500TIP3    H143915   0.611   0.285   3.965 -1.3954 -0.2809 -1.5268
 7500TIP3    H243916   0.469   0.336   3.963 -1.1469  0.5215  0.5312
 7501TIP3   OH243917   5.282   6.579  11.265 -1.0842  0.3837  0.2041
 7501TIP3    H143918   5.345   6.539  11.205 -0.5001  0.2133  0.9267
 7501TIP3    H243919   5.237   6.645  11.213 -1.1966 -0.3687 -0.6647
 7502TIP3   OH243920   6.563   1.602   2.235  0.2747  0.0178  0.1053
 7502TIP3    H143921   6.565   1.538   2.307 -0.3847  1.1321  1.1181
 7502TIP3    H243922   6.516   1.677   2.271  1.0420  1.0798 -1.0877
 7503TIP3   OH243923   4.919   4.504  12.593  0.1481  0.9066  0.0377
 7503TIP3    H143924   4.909   4.576  12.656  1.5412  1.7687 -0.6886
 7503TIP3    H243925   4.998   4.459  12.623 -1.0341 -0.6811  0.8158
 7504TIP3   OH243926   4.900   1.861   2.653  0.0572  0.1224 -0.1798
 7504TIP3    H143927   4.890   1.796   2.722 -1.4828 -0.1016 -0.5931
 7504TIP3    H243928   4.962   1.925   2.689 -1.8406  0.8167  2.0325
 7505TIP3   OH243929   2.258   5.118  15.267  0.4852 -0.3685 -0.2318
 7505TIP3    H143930   2.258   5.161  15.353  1.4571 -2.7260  1.0244
 7505TIP3    H243931   2.330   5.158  15.220  0.0495  0.8385  0.1076
 7506TIP3   OH243932   2.905   3.055   4.681  0.2101 -0.8439  0.4158
 7506TIP3    H143933   2.975   2.989   4.680  0.5343 -0.4959 -0.6330
 7506TIP3    H243934   2.825   3.003   4.673  0.4671 -1.1185 -0.4910
 7507TIP3   OH243935   4.463   4.147   0.576  0.0256  0.1615 -0.4046
 7507TIP3    H143936   4.420   4.181   0.654 -0.1793  2.0001 -1.3097
 7507TIP3    H243937   4.545   4.196   0.570 -0.0543  0.1787 -1.4541
 7508TIP3   OH243938   6.373   3.286   3.774 -0.0666  0.2929 -0.6073
 7508TIP3    H143939   6.443   3.301   3.711  0.8036  0.6213  0.4209
 7508TIP3    H243940   6.355   3.372   3.811 -0.9459  0.1920 -0.7804
 7509TIP3   OH243941   4.601   3.839  17.087 -0.3095 -0.2956  0.3784
 7509TIP3    H143942   4.602   3.916  17.144  1.3453  1.1423 -1.5156
 7509TIP3    H243943   4.690   3.834  17.052 -0.9443 -1.9062 -1.0429
 7510TIP3   OH243944   0.632   6.469   2.619  0.1916  0.5573  0.1194
 7510TIP3    H143945   0.725   6.480   2.601  0.2184  1.2888  0.7215
 7510TIP3    H243946   0.618   6.511   2.703 -0.2833 -1.3568  1.0258
 7511TIP3   OH243947   4.660   0.656   3.745 -0.3042  0.6243 -0.2373
 7511TIP3    H143948   4.566   0.653   3.730 -0.1355  1.0647 -1.4493
 7511TIP3    H243949   4.691   0.568   3.721 -0.3189  0.6921 -0.5105
 7512TIP3   OH243950   0.035   3.292   2.068 -0.1495 -0.2302 -0.1574
 7512TIP3    H143951   0.068   3.372   2.108  0.2802 -0.6912  0.4123
 7512TIP3    H243952  -0.027   3.323   2.001 -2.0830  0.5041  1.9337
 7513TIP3   OH243953   2.198   2.021   3.094  0.2861 -0.2553 -0.2596
 7513TIP3    H143954   2.200   1.957   3.165 -0.5061 -0.3968 -0.3666
 7513TIP3    H243955   2.262   2.087   3.120 -0.7452  0.2304  1.0957
 7514TIP3   OH243956   6.146   6.025  14.456  0.6249 -0.2568 -0.4820
 7514TIP3    H143957   6.067   6.071  14.487  0.7274 -0.7749  0.5878
 7514TIP3    H243958   6.191   5.999  14.537 -0.1403 -3.4551 -1.0300
 7515TIP3   OH243959   4.931   2.159   2.314  0.1905 -0.0507 -0.6815
 7515TIP3    H143960   5.004   2.108   2.349 -0.9267 -0.9092  0.4437
 7515TIP3    H243961   4.882   2.187   2.392 -1.6016 -0.8672 -1.4983
 7516TIP3   OH243962   4.077   3.292  16.320  0.0544  0.2690  0.3744
 7516TIP3    H143963   4.144   3.238  16.278  1.2251  2.0993 -0.1491
 7516TIP3    H243964   4.016   3.229  16.358  1.0535 -1.4204 -0.7673
 7517TIP3   OH243965   6.564   0.023  11.138 -0.0767  0.3997 -0.5545
 7517TIP3    H143966   6.489   0.023  11.198 -0.6347 -0.0311 -1.2457
 7517TIP3    H243967   6.609  -0.060  11.155 -1.1050 -0.4276 -1.7981
 7518TIP3   OH243968   6.065   5.276   4.203 -0.3079  0.0726  0.1965
 7518TIP3    H143969   6.015   5.328   4.267  1.2039  1.2869  0.4366
 7518TIP3    H243970   6.051   5.185   4.229 -1.5239  0.4512  0.8958
 7519TIP3   OH243971   4.416   5.915  13.722  0.3342  0.5499 -0.2084
 7519TIP3    H143972   4.480   5.986  13.718  0.1193  0.9153  2.0457
 7519TIP3    H243973   4.467   5.835  13.709  1.0902  0.9106  0.5238
 7520TIP3   OH243974   0.882   4.157   2.068 -0.0879  0.1111 -0.4180
 7520TIP3    H143975   0.848   4.227   2.122 -0.6334 -0.1367 -0.4409
 7520TIP3    H243976   0.854   4.178   1.979  2.7481  1.7420 -0.9866
 7521TIP3   OH243977   1.882   3.762   3.508 -0.4254 -0.0190  0.4579
 7521TIP3    H143978   1.893   3.709   3.429  0.0268 -0.3307  0.7242
 7521TIP3    H243979   1.911   3.849   3.483  1.1484 -0.4587  0.6914
 7522TIP3   OH243980   3.404   2.115  14.343  0.6465 -0.1980 -0.4134
 7522TIP3    H143981   3.387   2.023  14.364 -1.2204 -0.4663 -2.8984
 7522TIP3    H243982   3.329   2.163  14.378  1.4737  0.3583  0.6205
 7523TIP3   OH243983   2.066   6.238   2.274  0.8632 -0.2450  0.5030
 7523TIP3    H143984   2.151   6.260   2.235 -0.0464 -0.3515 -1.6256
 7523TIP3    H243985   2.012   6.316   2.260  0.0132 -0.8994  0.0315
 7524TIP3   OH243986   2.066   4.694   2.066 -0.5463 -0.2594 -0.0670
 7524TIP3    H143987   2.050   4.724   2.155 -1.3673 -0.1085 -0.2655
 7524TIP3    H243988   1.981   4.700   2.022 -0.6651 -2.4599 -0.2235
 7525TIP3   OH243989   2.741   2.857   4.952  0.5226 -0.1509  0.0850
 7525TIP3    H143990   2.816   2.887   5.003  0.8930 -0.9586  0.0218
 7525TIP3    H243991   2.666   2.902   4.991  0.8225 -0.6455  1.2617
 7526TIP3   OH243992   0.221   5.484  16.923 -0.3503  0.3172  0.0435
 7526TIP3    H143993   0.143   5.526  16.886 -0.5879 -0.8067 -0.7605
 7526TIP3    H243994   0.191   5.397  16.950  1.1467 -1.0264 -2.4516
 7527TIP3   OH243995   0.227   5.001   4.461  0.2286 -0.2168 -0.3869
 7527TIP3    H143996   0.286   4.934   4.497 -0.7235 -0.3044  1.0316
 7527TIP3    H243997   0.197   4.963   4.378  1.7930 -0.3704 -0.9060
 7528TIP3   OH243998   5.605   1.472   0.545  0.3140 -0.0972  0.0074
 7528TIP3    H143999   5.591   1.556   0.589 -0.6750  0.2665 -0.9741
 7528TIP3    H244000   5.623   1.410   0.616  1.0022  0.9237  0.7437
 7529TIP3   OH244001   0.844   1.062  14.751 -0.8094  0.1941 -0.4092
 7529TIP3    H144002   0.890   1.145  14.764 -1.4097  0.7965 -1.9951
 7529TIP3    H244003   0.870   1.008  14.826  0.1385  1.5583  0.2676
 7530TIP3   OH244004   2.135   3.312   4.234  0.0057  0.4372 -0.2618
 7530TIP3    H144005   2.047   3.292   4.202  0.5304 -1.8242 -0.3830
 7530TIP3    H244006   2.124   3.325   4.329 -0.6312  1.2393 -0.4491
 7531TIP3   OH244007   1.377   2.245  11.585  0.0802  0.3080 -0.0054
 7531TIP3    H144008   1.461   2.277  11.555  0.8029 -0.3503  1.2457
 7531TIP3    H244009   1.325   2.233  11.506  1.6292 -0.5974 -0.8990
 7532TIP3   OH244010   3.411   0.767   3.522 -0.0710  0.1901 -0.3774
 7532TIP3    H144011   3.476   0.697   3.527 -1.7141 -1.3803 -0.4623
 7532TIP3    H244012   3.430   0.811   3.439  1.0601 -0.0741 -0.2626
 7533TIP3   OH244013   5.102   0.636  14.067  0.1212  0.5151 -0.2373
 7533TIP3    H144014   5.031   0.629  14.131  0.8924 -1.6664  0.4119
 7533TIP3    H244015   5.065   0.599  13.986  0.3215 -0.0538 -0.0676
 7534TIP3   OH244016   5.152   3.636   2.015  0.3699  0.2722 -0.0868
 7534TIP3    H144017   5.134   3.577   2.089 -1.3229  0.9983  0.1057
 7534TIP3    H244018   5.066   3.653   1.977  0.9322  1.9907 -0.6220
 7535TIP3   OH244019   0.035   3.592  15.423 -0.0006 -0.4611  0.4410
 7535TIP3    H144020   0.068   3.582  15.512  1.0642  0.3992  0.1398
 7535TIP3    H244021  -0.012   3.510  15.406 -0.2028 -0.6326  1.7838
 7536TIP3   OH244022   5.636   3.129  14.589  0.1251 -0.2834  0.1459
 7536TIP3    H144023   5.649   3.162  14.678  1.7691 -0.1917 -0.1131
 7536TIP3    H244024   5.712   3.073  14.573 -0.7883 -1.2938 -0.7574
 7537TIP3   OH244025   3.308   4.130  13.410  0.1599  0.0001 -0.3210
 7537TIP3    H144026   3.263   4.205  13.450  0.8134 -0.1332  0.6892
 7537TIP3    H244027   3.325   4.071  13.483  1.0485 -0.4216 -0.8615
 7538TIP3   OH244028   0.948   1.107   3.221  0.3607 -0.4143  0.2560
 7538TIP3    H144029   0.949   1.201   3.206 -4.2725 -0.3684 -0.4253
 7538TIP3    H244030   1.024   1.074   3.173  1.1176  2.7802 -0.8396
 7539TIP3   OH244031   6.611   1.859  11.014 -0.4974 -0.1636  0.2042
 7539TIP3    H144032   6.658   1.940  11.036 -0.6976 -0.2455  0.9686
 7539TIP3    H244033   6.600   1.862  10.919  0.3212  0.2561  0.1207
 7540TIP3   OH244034   0.909   5.582  13.919  0.2296 -0.1615 -0.2926
 7540TIP3    H144035   0.929   5.562  14.010 -1.1480  0.2627  0.1127
 7540TIP3    H244036   0.860   5.506  13.888 -1.8720  0.9536  0.1972
 7541TIP3   OH244037   5.133   6.496  17.198 -0.1945  0.0945 -0.4091
 7541TIP3    H144038   5.197   6.426  17.186 -0.4233 -0.0701 -0.6396
 7541TIP3    H244039   5.107   6.489  17.290 -2.0152 -1.6419 -1.0267
 7542TIP3   OH244040   2.804   3.867  12.976 -0.6125  0.1046  0.2986
 7542TIP3    H144041   2.837   3.822  12.898 -1.0909  0.6347 -0.2153
 7542TIP3    H244042   2.709   3.855  12.972 -0.8759  2.2474 -0.5460
 7543TIP3   OH244043   1.939   5.728   2.754 -0.4073 -0.0297  0.0747
 7543TIP3    H144044   1.889   5.794   2.802 -1.9415 -0.5688 -0.7392
 7543TIP3    H244045   1.875   5.689   2.694  0.2326 -2.9300  1.2144
 7544TIP3   OH244046   6.201   5.570  15.722  0.0832  0.3983 -0.1812
 7544TIP3    H144047   6.262   5.498  15.737  0.3629  0.7790  0.5624
 7544TIP3    H244048   6.153   5.577  15.805 -2.6808 -1.4919 -1.5361
 7545TIP3   OH244049   4.250   2.490  16.107 -0.1661 -0.2711 -0.8055
 7545TIP3    H144050   4.265   2.397  16.123 -0.9328 -0.2221  0.2662
 7545TIP3    H244051   4.206   2.493  16.023  0.9619 -0.7811 -1.4281
 7546TIP3   OH244052   4.605   0.837  12.452 -0.6137  0.2396 -0.1726
 7546TIP3    H144053   4.650   0.890  12.517 -0.5494  0.3928 -0.3428
 7546TIP3    H244054   4.657   0.846  12.372  1.0578 -2.3934  0.5465
 7547TIP3   OH244055   0.907   6.458  15.824 -0.4356  0.0569  0.0026
 7547TIP3    H144056   0.899   6.421  15.736  2.0460  0.7954 -0.5950
 7547TIP3    H244057   0.853   6.537  15.821 -1.0015 -0.3452 -0.6111
 7548TIP3   OH244058   1.169   1.000  17.217  0.4026  0.0519 -0.1693
 7548TIP3    H144059   1.097   0.956  17.263  0.1443  1.9822  1.3591
 7548TIP3    H244060   1.177   1.085  17.261  1.9369  0.8913 -1.9958
 7549TIP3   OH244061   4.449   2.305   4.431  0.5606 -0.2290  0.5449
 7549TIP3    H144062   4.523   2.287   4.374  1.3765  1.1529  1.1482
 7549TIP3    H244063   4.385   2.236   4.411  0.9062  0.1378 -1.8777
 7550TIP3   OH244064   2.626   2.410   2.333  0.4834 -0.2605  0.7862
 7550TIP3    H144065   2.686   2.422   2.259  1.1174  2.3542  1.6441
 7550TIP3    H244066   2.551   2.364   2.297  1.5011 -0.4798 -1.1065
 7551TIP3   OH244067   4.651   1.401  11.827 -0.1534 -0.0516 -0.3836
 7551TIP3    H144068   4.739   1.372  11.802 -0.2311 -2.4198  1.8908
 7551TIP3    H244069   4.665   1.470  11.891  0.0233  1.1788 -1.7244
 7552TIP3   OH244070   3.375   5.680   2.407  0.1619  0.5432 -0.1049
 7552TIP3    H144071   3.295   5.627   2.414  0.5891 -0.0856  0.0551
 7552TIP3    H244072   3.373   5.714   2.317 -1.3434  2.2435  0.5292
 7553TIP3   OH244073   0.969   4.879   2.258  0.7652 -0.0791 -0.1475
 7553TIP3    H144074   0.913   4.815   2.301  2.5940  0.0315  2.5259
 7553TIP3    H244075   0.920   4.961   2.262  0.9176 -0.0709  1.7920
 7554TIP3   OH244076   4.447   3.262  12.935 -0.0845 -0.6943 -0.3320
 7554TIP3    H144077   4.461   3.326  13.005  0.2747 -0.1186 -0.9247
 7554TIP3    H244078   4.519   3.200  12.944 -1.4594 -2.0971  1.4091
 7555TIP3   OH244079   6.632   2.791   6.622  0.2765  0.6682 -0.2922
 7555TIP3    H144080   6.557   2.810   6.565 -1.9094 -0.9848  1.9591
 7555TIP3    H244081   6.687   2.733   6.569 -1.0682  0.1985 -1.2326
 7556TIP3   OH244082   3.555   5.592   4.190  0.1129 -0.0070 -0.3255
 7556TIP3    H144083   3.500   5.587   4.112  0.9395  0.0481 -0.9155
 7556TIP3    H244084   3.644   5.592   4.156  0.4635  0.5303  0.5969
 7557TIP3   OH244085   1.468   6.599  14.553  0.3112  0.3087  0.4638
 7557TIP3    H144086   1.541   6.542  14.579 -0.4308 -1.0477 -0.3857
 7557TIP3    H244087   1.391   6.559  14.594 -0.5745 -0.6939 -2.1069
 7558TIP3   OH244088   5.683   2.546  16.386 -0.0820 -0.3517 -0.1084
 7558TIP3    H144089   5.664   2.452  16.389 -0.3984 -0.2623  0.9145
 7558TIP3    H244090   5.607   2.584  16.343  1.0121 -0.7962 -2.4997
 7559TIP3   OH244091   5.697   2.245  12.841  0.4186  0.0864 -0.5205
 7559TIP3    H144092   5.678   2.244  12.935 -3.8797  2.4734 -1.2578
 7559TIP3    H244093   5.636   2.181  12.804  0.8139  0.4900 -1.8860
 7560TIP3   OH244094   4.859   1.641   5.296 -0.6126 -0.2769 -0.8296
 7560TIP3    H144095   4.789   1.704   5.279 -0.4405 -0.4506 -2.2635
 7560TIP3    H244096   4.856   1.581   5.221 -0.0341 -1.2964 -0.0522
 7561TIP3   OH244097   0.607   0.638  13.488 -0.6008  0.2937  0.1107
 7561TIP3    H144098   0.552   0.701  13.443 -1.0146 -0.6898 -0.7833
 7561TIP3    H244099   0.589   0.652  13.581 -0.9265  1.2634 -0.1014
 7562TIP3   OH244100   3.660   2.035   1.455  0.1969 -0.1205  0.1165
 7562TIP3    H144101   3.710   2.099   1.405 -0.1628 -1.1088 -1.5411
 7562TIP3    H244102   3.609   1.988   1.390 -4.2724  2.0038  1.9047
 7563TIP3   OH244103   3.566   4.368   1.227  0.0819 -0.0525 -0.0580
 7563TIP3    H144104   3.608   4.286   1.255  0.4542  0.4709  0.9294
 7563TIP3    H244105   3.635   4.433   1.231 -0.5209  0.5675  0.3923
 7564TIP3   OH244106   4.133   0.268  13.882  0.2957  0.0918  0.3958
 7564TIP3    H144107   4.225   0.291  13.870  0.0476  0.0847 -1.7758
 7564TIP3    H244108   4.085   0.335  13.833 -0.8062 -0.4514  0.7093
 7565TIP3   OH244109   6.236   0.036  11.497  0.3929 -0.2898 -0.1264
 7565TIP3    H144110   6.204  -0.047  11.464 -1.5864  0.8044 -1.0711
 7565TIP3    H244111   6.177   0.102  11.459  2.7238  1.6690 -0.4977
 7566TIP3   OH244112   2.198   0.445  13.862 -0.5173  0.1467 -0.1733
 7566TIP3    H144113   2.237   0.474  13.945 -0.4471 -1.9014  0.5400
 7566TIP3    H244114   2.273   0.430  13.805 -0.2861 -2.5174  0.7747
 7567TIP3   OH244115   1.431   0.277   3.060  0.2873  0.2259 -0.3112
 7567TIP3    H144116   1.355   0.332   3.039  0.7861  1.2977  0.5984
 7567TIP3    H244117   1.403   0.223   3.134  0.1858  0.1291 -0.4216
 7568TIP3   OH244118   1.962   5.992   1.546 -0.3435  0.4098  0.0833
 7568TIP3    H144119   2.010   6.066   1.507 -2.1280  0.9548 -1.1590
 7568TIP3    H244120   1.915   5.953   1.472 -2.9352  0.7808  1.4601
 7569TIP3   OH244121   5.921   3.848  12.497  0.3078 -0.4069 -0.7054
 7569TIP3    H144122   6.005   3.804  12.488  0.8590  0.4687 -0.0565
 7569TIP3    H244123   5.934   3.908  12.571 -0.2145  1.2719 -1.9447
 7570TIP3   OH244124   4.039   1.378   1.618 -0.1959 -0.4011 -0.1789
 7570TIP3    H144125   4.040   1.306   1.680  0.2418  0.0712  0.3740
 7570TIP3    H244126   4.115   1.432   1.642 -2.1141  1.7811  1.2601
 7571TIP3   OH244127   2.207   1.050  14.008  0.3342 -0.0830 -0.1242
 7571TIP3    H144128   2.182   1.115  14.074  2.1500 -0.1769  0.6783
 7571TIP3    H244129   2.168   1.082  13.927 -3.8308 -1.0804  1.3281
 7572TIP3   OH244130   2.431   1.464  12.509 -0.1542 -0.3070  0.0910
 7572TIP3    H144131   2.516   1.498  12.537  0.5876 -1.0237 -1.2834
 7572TIP3    H244132   2.450   1.380  12.469 -1.6729 -1.0844  0.9339
 7573TIP3   OH244133   0.829   1.402  11.055  0.1599  0.3657 -0.8441
 7573TIP3    H144134   0.805   1.452  10.977  1.4103  0.5612 -1.1158
 7573TIP3    H244135   0.872   1.324  11.022 -1.1230 -0.5417 -0.3958
 7574TIP3   OH244136   2.099   2.783  15.558 -0.0396 -0.3904 -0.0152
 7574TIP3    H144137   2.178   2.826  15.524 -1.5467  1.5251 -1.2233
 7574TIP3    H244138   2.060   2.847  15.617 -0.4813 -1.4789  0.8827
 7575TIP3   OH244139   2.310   1.865   4.912  0.6096  0.0434 -0.1405
 7575TIP3    H144140   2.356   1.945   4.939  0.4002  0.4842 -1.0448
 7575TIP3    H244141   2.379   1.801   4.897  0.8527  0.3765 -0.4446
 7576TIP3   OH244142   6.726   5.763   5.631 -0.0484  0.1936  0.3229
 7576TIP3    H144143   6.724   5.784   5.724  0.0186 -0.8688  0.5703
 7576TIP3    H244144   6.820   5.762   5.609 -0.1198  2.6731 -0.2918
 7577TIP3   OH244145   2.828   6.207   3.882  0.0390  0.0543  0.4762
 7577TIP3    H144146   2.848   6.291   3.924  0.5466 -0.0292  0.4000
 7577TIP3    H244147   2.896   6.196   3.816 -1.8106  1.0509 -1.6328
 7578TIP3   OH244148   6.012   0.112   5.564 -0.1930  0.1640 -0.0938
 7578TIP3    H144149   6.087   0.055   5.584 -0.4188 -0.0909  0.0230
 7578TIP3    H244150   6.011   0.176   5.635  0.0480  0.3019 -0.2144
 7579TIP3   OH244151   4.892   1.365  12.161 -0.0387 -0.6759  0.3476
 7579TIP3    H144152   4.961   1.304  12.185 -1.3621 -2.2284  0.3399
 7579TIP3    H244153   4.811   1.313  12.169 -1.1914  1.1068  0.4127
 7580TIP3   OH244154   3.824   1.193  14.316 -0.4778 -0.3231  0.4066
 7580TIP3    H144155   3.871   1.250  14.255 -1.2547 -0.6863 -0.5400
 7580TIP3    H244156   3.878   1.193  14.395 -0.2333  1.3545  0.2587
 7581TIP3   OH244157   2.669   4.334   0.299  0.3506 -0.1942  0.3080
 7581TIP3    H144158   2.608   4.348   0.226 -2.5582  1.5004  2.8971
 7581TIP3    H244159   2.731   4.407   0.293  0.4168 -0.3277 -0.7183
 7582TIP3   OH244160   5.235   4.768  11.191  0.3486 -0.0144  0.1713
 7582TIP3    H144161   5.183   4.809  11.260 -0.2634  0.0316 -0.3226
 7582TIP3    H244162   5.243   4.835  11.123  1.8975  0.3296  0.6710
 7583TIP3   OH244163   2.882   4.320  15.094  0.5475 -0.3016  0.2193
 7583TIP3    H144164   2.837   4.303  15.011  0.7879 -0.6103  0.1473
 7583TIP3    H244165   2.835   4.394  15.133  0.2770 -0.3179 -0.0741
 7584TIP3   OH244166   3.191   3.405   3.363  0.0871 -0.5550  0.4624
 7584TIP3    H144167   3.182   3.319   3.320 -0.9431 -0.9515  1.4437
 7584TIP3    H244168   3.113   3.413   3.417  0.4046  0.8174  0.7390
 7585TIP3   OH244169   6.249   5.790  17.232 -0.0183  0.6081 -0.3544
 7585TIP3    H144170   6.187   5.782  17.304 -1.1285  0.6146 -1.3064
 7585TIP3    H244171   6.210   5.854  17.173  0.0776 -0.6061 -1.7798
 7586TIP3   OH244172   1.588   5.252   4.824 -0.1026 -0.2484  0.8457
 7586TIP3    H144173   1.655   5.321   4.828 -1.4753  1.0750  1.8827
 7586TIP3    H244174   1.533   5.277   4.750 -0.5149 -0.2916  1.1315
 7587TIP3   OH244175   6.643   1.969  13.881  0.1197 -0.4481 -0.0184
 7587TIP3    H144176   6.649   1.950  13.975  0.2228 -1.8393 -0.2973
 7587TIP3    H244177   6.642   2.065  13.876 -0.4399 -0.3606  1.4336
 7588TIP3   OH244178   0.364   0.788   1.676 -0.0111  0.1484 -1.0196
 7588TIP3    H144179   0.419   0.755   1.746 -0.7046 -1.8478 -1.3732
 7588TIP3    H244180   0.283   0.815   1.720  0.9336  2.3603 -0.6006
 7589TIP3   OH244181   4.722   4.619   6.061  0.5318 -0.4862 -0.0127
 7589TIP3    H144182   4.773   4.699   6.069 -3.1902  2.0176 -0.1396
 7589TIP3    H244183   4.688   4.602   6.149 -0.7026 -0.5101 -0.4817
 7590TIP3   OH244184   5.737   4.473  15.036 -0.2479 -0.0464 -0.0241
 7590TIP3    H144185   5.790   4.394  15.024  1.1569  0.8836 -0.0173
 7590TIP3    H244186   5.789   4.543  14.997 -2.0968  0.6667 -1.2738
 7591TIP3   OH244187   2.087   3.330   4.538  0.0244  0.3951  0.3385
 7591TIP3    H144188   2.140   3.401   4.574 -0.2301  1.7969 -1.9500
 7591TIP3    H244189   2.013   3.322   4.598  0.6721  1.2569  1.2560
 7592TIP3   OH244190   1.363   6.521  16.616 -0.4693  0.7272 -0.4066
 7592TIP3    H144191   1.291   6.503  16.555 -1.4555 -0.9896  1.2013
 7592TIP3    H244192   1.371   6.440  16.667  1.6680  1.4198  0.3896
 7593TIP3   OH244193   3.750   2.915  16.673  0.2975 -0.6827 -0.1790
 7593TIP3    H144194   3.811   2.841  16.675  0.3270 -0.6854 -0.9987
 7593TIP3    H244195   3.806   2.990  16.652  0.2229 -0.4744  0.3701
 7594TIP3   OH244196   3.157   3.594   5.173 -0.1005  0.0276  0.3118
 7594TIP3    H144197   3.145   3.687   5.193 -0.7877  0.0560 -0.2042
 7594TIP3    H244198   3.247   3.574   5.202 -0.0784  0.7597  0.7485
 7595TIP3   OH244199   3.516   2.782   1.094 -0.3149  0.0133 -0.3488
 7595TIP3    H144200   3.582   2.803   1.027 -0.0698  0.3436 -0.0058
 7595TIP3    H244201   3.486   2.867   1.125 -0.0463 -0.1396  0.3400
 7596TIP3   OH244202   5.241   4.540   2.675 -0.2344 -0.4052 -0.2542
 7596TIP3    H144203   5.329   4.572   2.694 -0.0171 -0.3687 -1.3005
 7596TIP3    H244204   5.242   4.448   2.702  0.2726 -0.5341 -0.6966
 7597TIP3   OH244205   3.941   6.291   5.828 -0.4115  0.3125  0.3123
 7597TIP3    H144206   4.026   6.335   5.825 -0.6881  0.7594 -1.6627
 7597TIP3    H244207   3.885   6.350   5.879 -0.4110  1.6147 -1.1591
 7598TIP3   OH244208   3.731   5.888   1.569 -0.1512  0.8186  0.1050
 7598TIP3    H144209   3.742   5.793   1.578 -1.4185  0.5769 -0.6902
 7598TIP3    H244210   3.759   5.924   1.653 -0.8404 -0.3687  0.8518
 7599TIP3   OH244211   4.475   1.189  17.093  0.1282  0.0630  0.3197
 7599TIP3    H144212   4.553   1.134  17.106 -0.4708 -0.8517  0.1217
 7599TIP3    H244213   4.472   1.204  16.999  0.2961  0.4383  0.3755
 7600TIP3   OH244214   2.865   5.618   6.125  0.3925  0.2347  0.0702
 7600TIP3    H144215   2.939   5.559   6.141 -0.6959 -1.5329 -1.1626
 7600TIP3    H244216   2.788   5.562   6.132 -0.7413  1.7590 -0.0417
 7601TIP3   OH244217   2.708   3.533  13.869 -0.2667  0.1483 -0.4184
 7601TIP3    H144218   2.754   3.501  13.947 -0.3537  2.6075  0.6863
 7601TIP3    H244219   2.648   3.462  13.846 -1.7205  0.1684  2.9943
 7602TIP3   OH244220   0.041   0.303  13.398 -0.2867  0.5028  0.1058
 7602TIP3    H144221   0.051   0.358  13.320 -0.7249 -0.8778 -0.9453
 7602TIP3    H244222   0.058   0.362  13.472  1.0237  1.6136 -1.0617
 7603TIP3   OH244223   2.248   3.561   6.062 -0.0970 -0.3336 -0.0031
 7603TIP3    H144224   2.315   3.493   6.059 -0.1298 -0.3831  0.3945
 7603TIP3    H244225   2.193   3.544   5.986  0.7761  0.1534 -0.7547
 7604TIP3   OH244226   2.160   1.387   0.951  0.1825  0.0681 -0.3554
 7604TIP3    H144227   2.126   1.309   0.907  0.8827 -0.2836 -0.2908
 7604TIP3    H244228   2.179   1.357   1.040 -2.6548  1.1474  0.6596
 7605TIP3   OH244229   5.543   1.620   3.485 -0.1948  0.0162 -0.4464
 7605TIP3    H144230   5.518   1.664   3.404  2.3480 -0.0104 -1.3028
 7605TIP3    H244231   5.632   1.650   3.502 -0.8998  0.4981  2.7113
 7606TIP3   OH244232   5.270   4.249  17.135  0.1382  0.1376 -0.3331
 7606TIP3    H144233   5.319   4.280  17.212  0.1728  1.3406 -0.8302
 7606TIP3    H244234   5.186   4.294  17.141 -0.9320 -1.8828  0.4866
 7607TIP3   OH244235   2.552   1.056  12.005  0.1198 -0.3595 -0.2630
 7607TIP3    H144236   2.510   1.114  12.068  0.3432 -0.8332  0.3292
 7607TIP3    H244237   2.495   1.057  11.929  0.0813  0.5775 -0.2277
 7608TIP3   OH244238   5.699   1.225  13.768 -0.2780  0.2848 -0.3131
 7608TIP3    H144239   5.787   1.205  13.798 -0.0396 -1.3739 -2.0629
 7608TIP3    H244240   5.711   1.287  13.697 -0.5624  0.5806 -0.1044
 7609TIP3   OH244241   1.179   1.336  16.338 -0.5739 -0.4440 -0.0793
 7609TIP3    H144242   1.086   1.333  16.318 -0.6661  1.2849  0.0476
 7609TIP3    H244243   1.205   1.426  16.319  1.0703 -0.9071 -0.1120
 7610TIP3   OH244244   2.399   5.130   0.244  0.1984 -0.0616 -0.7016
 7610TIP3    H144245   2.409   5.039   0.272  0.5685  0.3993  0.7076
 7610TIP3    H244246   2.375   5.177   0.324  0.7659  1.2038 -1.2682
 7611TIP3   OH244247   5.974   1.062  11.453  0.4412  0.0478  0.6591
 7611TIP3    H144248   6.061   1.098  11.471  0.2914  0.7450 -0.0075
 7611TIP3    H244249   5.921   1.137  11.425  0.9777 -1.0639 -3.8526
 7612TIP3   OH244250   0.701   0.176   0.830  0.3535 -0.6834 -0.2233
 7612TIP3    H144251   0.717   0.121   0.753 -0.6573 -0.0608 -0.8943
 7612TIP3    H244252   0.611   0.207   0.819  0.8208  0.9049  0.2654
 7613TIP3   OH244253   2.784   4.593   5.178  0.0777 -0.4937 -0.3263
 7613TIP3    H144254   2.876   4.613   5.160  0.1341  0.0910  0.5645
 7613TIP3    H244255   2.771   4.622   5.268 -1.4654  1.0633 -1.0380
 7614TIP3   OH244256   0.883   0.425   2.431  0.8299  0.2632 -0.2323
 7614TIP3    H144257   0.858   0.500   2.377 -0.6190  0.0004  0.0590
 7614TIP3    H244258   0.909   0.358   2.367 -1.5077 -0.2723 -0.6683
 7615TIP3   OH244259   3.400   2.721   3.338 -0.0750 -0.3373 -0.1208
 7615TIP3    H144260   3.475   2.662   3.350 -0.5426 -0.9195 -0.0069
 7615TIP3    H244261   3.408   2.784   3.410  0.5242 -0.1643 -0.3414
 7616TIP3   OH244262   5.408   3.435  13.089  0.4885 -0.2429  0.5716
 7616TIP3    H144263   5.402   3.462  12.997 -0.1805 -0.4937  0.5334
 7616TIP3    H244264   5.365   3.505  13.138  0.5298 -0.2767  0.6548
 7617TIP3   OH244265   0.330   2.558   1.091 -0.5394  0.0529 -0.2876
 7617TIP3    H144266   0.360   2.646   1.114  0.7714 -0.0399 -1.5312
 7617TIP3    H244267   0.382   2.535   1.014 -3.7779 -0.1733 -2.4922
 7618TIP3   OH244268   3.222   6.135  11.328 -0.3033  0.1097  0.5291
 7618TIP3    H144269   3.275   6.074  11.277 -3.3113 -1.8342 -0.4383
 7618TIP3    H244270   3.189   6.198  11.263 -3.0914 -1.6097  0.1772
 7619TIP3   OH244271   1.376   1.053   5.510 -0.1050  0.6798  0.5850
 7619TIP3    H144272   1.303   0.993   5.522  0.4360  0.0931  0.9797
 7619TIP3    H244273   1.454   1.000   5.529  0.5709  0.6870 -2.0668
 7620TIP3   OH244274   0.481   2.376  14.408 -0.5018  0.0473 -0.1932
 7620TIP3    H144275   0.536   2.322  14.465 -1.7345  0.8276  1.8024
 7620TIP3    H244276   0.540   2.445  14.378  0.4869 -1.0808 -0.8994
 7621TIP3   OH244277   1.924   1.268   1.841 -0.3552 -0.0115  0.0081
 7621TIP3    H144278   2.018   1.278   1.860 -0.0385 -1.1130 -0.9617
 7621TIP3    H244279   1.885   1.247   1.926  0.5458 -1.3767  0.0942
 7622TIP3   OH244280   6.428   2.110   4.271  0.6408  0.7912  0.5394
 7622TIP3    H144281   6.440   2.179   4.206  1.3505  0.1652 -0.0116
 7622TIP3    H244282   6.500   2.049   4.254  0.3891  0.2389  1.4246
 7623TIP3   OH244283   6.184   4.357  16.925 -0.5026  0.2272 -0.3423
 7623TIP3    H144284   6.251   4.358  16.857  1.0662  0.1695  1.1659
 7623TIP3    H244285   6.102   4.365  16.877  0.5469  0.0229 -2.2501
 7624TIP3   OH244286   4.428   3.867  15.953 -0.4077  0.3075 -0.2832
 7624TIP3    H144287   4.512   3.826  15.932 -0.9498 -2.6467  2.9167
 7624TIP3    H244288   4.451   3.955  15.984  1.5156 -0.4582  0.5502
 7625TIP3   OH244289   4.749   1.820  10.874  0.5526  0.7608 -0.3430
 7625TIP3    H144290   4.729   1.913  10.864  2.2039  0.9094 -2.6500
 7625TIP3    H244291   4.699   1.777  10.804  0.4810  0.0102  0.1644
 7626TIP3   OH244292   2.783   6.610  15.983  0.4016 -0.5414 -0.5727
 7626TIP3    H144293   2.859   6.595  15.926 -0.1356 -0.9261 -1.1997
 7626TIP3    H244294   2.739   6.525  15.987  1.4462 -1.0079  1.9350
 7627TIP3   OH244295   0.763   3.588   0.508 -0.2721 -0.4218  0.6435
 7627TIP3    H144296   0.801   3.606   0.593  0.3160 -2.0441  0.7487
 7627TIP3    H244297   0.710   3.509   0.522  1.3765 -1.8416 -0.9027
 7628TIP3   OH244298   2.670   1.581   3.017 -0.1889  0.0744  0.0090
 7628TIP3    H144299   2.736   1.643   2.986 -0.5406  0.9588  0.9987
 7628TIP3    H244300   2.598   1.636   3.049 -1.0436 -0.8657 -0.2489
 7629TIP3   OH244301   2.611   5.847  13.364 -0.0929 -0.0708  0.5780
 7629TIP3    H144302   2.593   5.784  13.294 -0.5714  2.5887 -1.7821
 7629TIP3    H244303   2.707   5.848  13.372  0.0190  0.3472 -0.7711
 7630TIP3   OH244304   5.274   0.992  12.854 -0.2799 -0.0759 -0.0335
 7630TIP3    H144305   5.265   1.084  12.828 -1.9416 -0.8177 -2.1728
 7630TIP3    H244306   5.197   0.975  12.909  1.0695  0.3342  2.0373
 7631TIP3   OH244307   6.361   0.953   5.593 -0.1188  0.3014  0.8166
 7631TIP3    H144308   6.444   0.926   5.633  1.0341 -0.0235 -1.6900
 7631TIP3    H244309   6.385   1.024   5.533 -1.6347  0.1369 -0.0137
 7632TIP3   OH244310   5.992   5.578   3.216  0.1507  0.0512 -0.4382
 7632TIP3    H144311   6.055   5.550   3.149  0.4259 -0.4911  0.0453
 7632TIP3    H244312   6.034   5.556   3.299 -0.8501 -0.6798 -0.1216
 7633TIP3   OH244313   3.988   3.418  12.794  0.3692  0.1634  0.4721
 7633TIP3    H144314   3.965   3.347  12.735  0.5954  0.3450  0.1668
 7633TIP3    H244315   3.919   3.483  12.780  0.6013  0.3443  0.1755
 7634TIP3   OH244316   4.916   3.370  13.661  0.3268 -0.0921 -0.0118
 7634TIP3    H144317   4.975   3.418  13.602  1.0254 -0.1088  0.6713
 7634TIP3    H244318   4.969   3.299  13.695 -0.2109 -0.3413  0.3060
 7635TIP3   OH244319   4.641   4.021   4.314 -0.2945 -0.1426 -0.1343
 7635TIP3    H144320   4.623   4.018   4.220  4.6253  0.0067 -1.2125
 7635TIP3    H244321   4.635   3.930   4.342  0.4073 -0.4965 -1.0955
 7636TIP3   OH244322   4.680   3.868  13.016 -0.3606 -0.5260  0.2432
 7636TIP3    H144323   4.600   3.912  12.986 -0.6926 -1.2015  0.1177
 7636TIP3    H244324   4.730   3.852  12.937  0.3469  0.7453  0.4140
 7637TIP3   OH244325   5.263   4.978   4.657  0.0457 -0.2462  0.5642
 7637TIP3    H144326   5.218   5.048   4.704  2.2975  1.6918 -0.0932
 7637TIP3    H244327   5.346   4.968   4.703  1.4360  0.2902 -1.7802
 7638TIP3   OH244328   5.153   1.027  13.124 -0.2189  0.1056  0.7491
 7638TIP3    H144329   5.220   1.048  13.189  0.2955 -0.9516  0.5590
 7638TIP3    H244330   5.131   1.112  13.084 -0.4966  0.7604  2.2517
 7639TIP3   OH244331   2.226   2.705  12.565  0.2403  0.1362  0.2454
 7639TIP3    H144332   2.260   2.742  12.484  0.3136  1.3437  0.8277
 7639TIP3    H244333   2.304   2.677  12.613  0.3476  1.5500  0.9209
 7640TIP3   OH244334   6.135   2.185  13.705  0.3071 -0.6362  0.1573
 7640TIP3    H144335   6.059   2.229  13.668 -0.1256 -0.3312  1.3816
 7640TIP3    H244336   6.182   2.151  13.629  0.3151  1.3883 -0.7797
 7641TIP3   OH244337   6.061   0.162   3.701  0.0241  0.0232  0.3618
 7641TIP3    H144338   6.131   0.119   3.652  0.2153  0.2710  0.4161
 7641TIP3    H244339   6.014   0.090   3.743 -1.8735 -0.4469 -2.4346
 7642TIP3   OH244340   5.390   6.194   4.332 -0.2156  0.0047 -0.0652
 7642TIP3    H144341   5.355   6.110   4.302 -0.9096 -0.4143  1.8075
 7642TIP3    H244342   5.484   6.179   4.341  0.0568  0.2598 -2.3586
 7643TIP3   OH244343   2.650   2.109  15.925 -0.0524 -0.1881 -0.5618
 7643TIP3    H144344   2.558   2.119  15.947  0.6380  1.2038  1.8657
 7643TIP3    H244345   2.694   2.093  16.008  2.0315  0.2630 -1.5256
 7644TIP3   OH244346   0.428   4.246  13.932 -0.3209  0.2664 -0.2552
 7644TIP3    H144347   0.505   4.219  13.883 -0.9778  0.6205 -1.5020
 7644TIP3    H244348   0.389   4.164  13.964 -1.5071 -0.2126 -2.8020
 7645TIP3   OH244349   2.213   0.112  12.630 -0.0163 -0.3977 -0.4644
 7645TIP3    H144350   2.243   0.203  12.624 -0.6231 -0.0677  1.2064
 7645TIP3    H244351   2.283   0.061  12.589  1.6927  0.5621  1.1794
 7646TIP3   OH244352   2.900   5.132   1.980 -0.2478  0.7804  0.4410
 7646TIP3    H144353   2.850   5.193   1.925 -0.9003 -0.2647 -0.1353
 7646TIP3    H244354   2.964   5.094   1.920 -0.2025  0.4889  0.6783
 7647TIP3   OH244355   2.569   4.009   5.246 -0.1311 -0.3669 -0.4034
 7647TIP3    H144356   2.482   4.018   5.208 -0.4294  0.5927  0.4981
 7647TIP3    H244357   2.557   4.026   5.340  1.6286  3.4438 -0.7944
 7648TIP3   OH244358   3.252   3.791   2.263 -0.6291 -0.1673 -0.2295
 7648TIP3    H144359   3.205   3.714   2.231  0.6921 -0.7091 -0.8918
 7648TIP3    H244360   3.287   3.833   2.185  3.2515 -1.9068  0.4118
 7649TIP3   OH244361   4.157   5.734   2.578 -0.0315  0.0805  0.4901
 7649TIP3    H144362   4.098   5.692   2.515  0.4818 -0.8924  0.6485
 7649TIP3    H244363   4.205   5.798   2.527 -0.0133 -0.3171  0.0053
 7650TIP3   OH244364   2.012   6.765   4.028  0.0376 -0.3194  0.3140
 7650TIP3    H144365   2.024   6.842   3.972 -1.1924  0.1189  0.6620
 7650TIP3    H244366   2.058   6.695   3.980  0.3742  0.4062 -0.4541
 7651TIP3   OH244367   3.824   4.303  16.578  0.4686 -0.2171 -0.6348
 7651TIP3    H144368   3.773   4.226  16.554 -0.5711  0.4720 -0.6589
 7651TIP3    H244369   3.900   4.268  16.624  1.8610 -1.4970 -3.7222
 7652TIP3   OH244370   5.213   4.734  15.298  0.2105  0.4593  0.6439
 7652TIP3    H144371   5.199   4.685  15.217 -0.0625 -2.0018  2.1552
 7652TIP3    H244372   5.258   4.814  15.270  2.3177 -1.4666 -1.6389
 7653TIP3   OH244373   6.289   5.172  14.410 -0.1731 -0.1668 -0.1114
 7653TIP3    H144374   6.346   5.096  14.419 -1.9714 -1.4360  0.7747
 7653TIP3    H244375   6.301   5.221  14.491 -1.2853 -1.1035  0.6283
 7654TIP3   OH244376   2.455   3.357  16.677 -0.4148 -0.4271 -0.3215
 7654TIP3    H144377   2.411   3.442  16.678 -0.3954 -0.4178  0.7884
 7654TIP3    H244378   2.542   3.375  16.713 -0.7453 -1.0868  0.8244
 7655TIP3   OH244379   5.124   3.889  16.448 -0.3664  0.2765 -0.2336
 7655TIP3    H144380   5.037   3.852  16.434 -1.5169  1.1901  3.9287
 7655TIP3    H244381   5.130   3.902  16.543  3.5453  2.0966 -0.6296
 7656TIP3   OH244382   3.753   2.024   5.568 -0.8218  0.3801  0.3571
 7656TIP3    H144383   3.729   1.968   5.642  0.5897 -0.7924 -0.0444
 7656TIP3    H244384   3.681   2.086   5.561 -0.6385  0.9735  3.1408
 7657TIP3   OH244385   4.592   1.995  14.179 -0.2565 -0.3622  0.0479
 7657TIP3    H144386   4.632   1.970  14.262 -0.8445 -1.1786  0.0943
 7657TIP3    H244387   4.539   2.071  14.200 -0.2529 -0.4511  0.3830
 7658TIP3   OH244388   6.023   5.305  13.766  0.5729  0.4635  0.9339
 7658TIP3    H144389   6.057   5.321  13.678 -0.7462 -0.5677  0.2324
 7658TIP3    H244390   6.098   5.324  13.824  1.0640  2.4290 -0.2930
 7659TIP3   OH244391   6.364   2.139   0.969  0.6006 -0.0099  0.0000
 7659TIP3    H144392   6.366   2.118   1.062 -0.4114 -1.0522 -0.2091
 7659TIP3    H244393   6.368   2.054   0.924  1.1486  0.4820 -0.9172
 7660TIP3   OH244394   0.821   3.364   5.621  0.0146 -0.6081  0.1534
 7660TIP3    H144395   0.769   3.387   5.697  0.3873  0.7427  0.0117
 7660TIP3    H244396   0.866   3.283   5.646 -1.1621 -1.0963  0.7251
 7661TIP3   OH244397   6.575   6.240  13.442  0.0630  0.1630 -0.1330
 7661TIP3    H144398   6.556   6.327  13.476  1.8953  0.5946 -0.1602
 7661TIP3    H244399   6.639   6.203  13.503  0.0477 -0.7713 -0.6619
 7662TIP3   OH244400   5.026   6.668  13.344 -0.0291 -0.0748  0.2584
 7662TIP3    H144401   4.935   6.692  13.327 -0.5524 -1.9103  0.3275
 7662TIP3    H244402   5.064   6.745  13.385 -1.9328  0.2189  1.5387
 7663TIP3   OH244403   4.502   0.049   5.066  0.1681  0.2232  0.0043
 7663TIP3    H144404   4.592   0.031   5.094  0.3370  0.6555 -0.2579
 7663TIP3    H244405   4.448  -0.009   5.120  0.5422  0.5453  0.7356
 7664TIP3   OH244406   5.086   0.147  14.974  0.1797  0.4392 -0.0775
 7664TIP3    H144407   5.104   0.187  14.889 -1.0096  0.7136 -0.2016
 7664TIP3    H244408   5.014   0.198  15.010 -1.4303 -1.6268 -0.2702
 7665TIP3   OH244409   1.653   3.425  16.255  0.0352  0.0138 -0.4429
 7665TIP3    H144410   1.614   3.412  16.342 -1.0120  3.1712 -0.3589
 7665TIP3    H244411   1.581   3.414  16.194  0.5359 -1.0807 -0.8511
 7666TIP3   OH244412   5.237   2.496   0.622 -0.1971  0.2683 -0.0842
 7666TIP3    H144413   5.297   2.537   0.684 -0.8270 -0.1959  0.8454
 7666TIP3    H244414   5.267   2.526   0.536  2.4466 -1.3116  0.2287
 7667TIP3   OH244415   2.947   4.278  16.711  0.6899 -0.3133  0.0828
 7667TIP3    H144416   2.925   4.360  16.667  0.7489 -0.3783 -0.0685
 7667TIP3    H244417   2.926   4.210  16.646 -2.2096 -0.6100  1.2470
 7668TIP3   OH244418   2.705   5.895   3.093  0.2031  0.3320 -0.3075
 7668TIP3    H144419   2.747   5.859   3.171  0.6887 -0.8852 -1.1134
 7668TIP3    H244420   2.774   5.898   3.027 -0.6580 -0.5556 -1.2882
 7669TIP3   OH244421   2.790   4.918   2.182  0.4935  0.1827  0.4099
 7669TIP3    H144422   2.820   4.992   2.130  2.2462 -1.0948 -0.4703
 7669TIP3    H244423   2.799   4.946   2.273  0.3492  1.3308  0.0702
 7670TIP3   OH244424   6.300   1.837   3.450  0.1657 -0.3295 -0.0755
 7670TIP3    H144425   6.281   1.922   3.411 -1.8194 -0.7406 -0.0538
 7670TIP3    H244426   6.369   1.801   3.395  2.9653  2.3908  1.4970
 7671TIP3   OH244427   1.538   4.989   1.570  0.2003 -0.0655  0.4221
 7671TIP3    H144428   1.483   4.963   1.496  0.0278 -2.5853  1.3649
 7671TIP3    H244429   1.495   4.950   1.646  1.6167  0.5524  1.5608
 7672TIP3   OH244430   1.021   4.679  11.806 -0.1014  0.0528  0.5097
 7672TIP3    H144431   1.014   4.653  11.714  0.2379 -1.3959  0.8749
 7672TIP3    H244432   0.949   4.633  11.849  0.0618  0.3120  1.0568
 7673TIP3   OH244433   0.824   4.267  16.233 -0.6414  0.0145 -0.0114
 7673TIP3    H144434   0.895   4.332  16.231 -1.5454  1.0060 -0.6668
 7673TIP3    H244435   0.827   4.225  16.147 -0.1743 -0.7049  0.3509
 7674TIP3   OH244436   4.308   0.125  14.802 -0.4291  0.0202  0.5917
 7674TIP3    H144437   4.340   0.146  14.890 -1.7187  2.5189  0.5177
 7674TIP3    H244438   4.213   0.116  14.813 -0.5722  0.1623 -0.5147
 7675TIP3   OH244439   1.874   6.454   3.731 -0.7450  0.4312  0.1149
 7675TIP3    H144440   1.968   6.465   3.719 -0.8068  1.5660  0.5599
 7675TIP3    H244441   1.845   6.405   3.654  0.6792 -2.6219  1.4104
 7676TIP3   OH244442   3.724   2.113   1.709 -0.2051  0.2415 -0.0460
 7676TIP3    H144443   3.724   2.091   1.616 -0.0648  0.6577 -0.1440
 7676TIP3    H244444   3.782   2.048   1.749 -0.2215  0.0979 -0.2568
 7677TIP3   OH244445   0.295   1.651  13.286 -0.3433 -0.4893  0.5506
 7677TIP3    H144446   0.244   1.700  13.221 -0.5508 -3.3099 -1.4842
 7677TIP3    H244447   0.255   1.674  13.369 -1.9103  1.0130 -0.5729
 7678TIP3   OH244448   2.701   5.016  14.829  0.4642 -0.3481  0.2254
 7678TIP3    H144449   2.660   4.934  14.803  1.5272 -0.5819 -0.7531
 7678TIP3    H244450   2.794   5.004  14.810  0.9404  0.3282  1.9934
 7679TIP3   OH244451   2.304   4.999  14.317 -0.3601 -0.2174  0.1912
 7679TIP3    H144452   2.355   5.042  14.387  0.7629 -0.7427 -0.2839
 7679TIP3    H244453   2.213   5.017  14.339 -0.0250 -0.6442  1.9638
 7680TIP3   OH244454   0.763   0.426  12.587 -0.2143 -0.2867  0.8666
 7680TIP3    H144455   0.839   0.398  12.637 -0.5595 -0.4396  1.3016
 7680TIP3    H244456   0.693   0.367  12.613  0.2410 -2.0298 -1.6926
 7681TIP3   OH244457   5.081   5.048   1.220  0.2688  0.1550  0.1110
 7681TIP3    H144458   5.146   4.982   1.197 -2.1147 -1.3841 -2.4433
 7681TIP3    H244459   5.021   5.003   1.279 -1.1777  0.0694 -1.3792
 7682TIP3   OH244460   2.825   1.944   5.928 -0.5640  0.2546 -0.4192
 7682TIP3    H144461   2.797   1.852   5.926 -0.5144  0.2259  0.2472
 7682TIP3    H244462   2.895   1.947   5.993 -0.6737  0.7965 -0.3236
 7683TIP3   OH244463   5.247   0.648   1.613 -0.1939 -0.1211  0.1671
 7683TIP3    H144464   5.309   0.707   1.570 -1.0111  0.5187 -0.1590
 7683TIP3    H244465   5.270   0.654   1.706  0.6024 -0.3388 -0.0094
 7684TIP3   OH244466   5.931   2.409   1.390  0.3823 -0.0326 -0.1041
 7684TIP3    H144467   5.855   2.393   1.446 -0.2580 -0.5055 -1.0951
 7684TIP3    H244468   5.922   2.345   1.319  1.2870  0.4322 -0.6383
 7685TIP3   OH244469   2.303   1.225  13.581  0.2621  0.1941  0.3456
 7685TIP3    H144470   2.312   1.134  13.551 -1.7264  0.1194 -0.0741
 7685TIP3    H244471   2.253   1.268  13.512  0.3033  1.3729  1.0394
 7686TIP3   OH244472   0.859   5.968   1.054 -0.3217 -0.7420 -0.4169
 7686TIP3    H144473   0.865   5.944   1.146 -0.7706  0.0010 -0.1888
 7686TIP3    H244474   0.904   6.052   1.048 -1.5851 -0.0612 -0.5894
 7687TIP3   OH244475   2.187   0.783   6.027  0.6358  0.6588  0.4822
 7687TIP3    H144476   2.280   0.786   6.048  1.3566 -0.4736 -2.3105
 7687TIP3    H244477   2.144   0.817   6.105  3.3575  0.8629  1.9675
 7688TIP3   OH244478   6.186   2.326   5.453  0.0646  0.2890 -0.0248
 7688TIP3    H144479   6.244   2.275   5.509  0.2956  0.4892 -0.0771
 7688TIP3    H244480   6.209   2.417   5.472 -1.2922  0.4110  1.0704
 7689TIP3   OH244481   6.709   6.285  11.340  0.1007  0.3980 -0.3611
 7689TIP3    H144482   6.775   6.257  11.277 -0.6015  0.4788 -1.1392
 7689TIP3    H244483   6.657   6.206  11.359 -0.4751  0.6546 -0.8480
 7690TIP3   OH244484   4.658   1.665  14.383 -0.5274  0.1408  0.0176
 7690TIP3    H144485   4.676   1.608  14.309 -1.1344 -0.7722  0.5550
 7690TIP3    H244486   4.563   1.662  14.392 -0.4094 -0.3387  1.2644
 7691TIP3   OH244487   6.257   4.051  13.369 -0.3418  0.2533 -0.0127
 7691TIP3    H144488   6.345   4.028  13.397 -0.6745 -0.2094  0.6893
 7691TIP3    H244489   6.243   4.139  13.405 -0.0459  0.4619 -0.4088
 7692TIP3   OH244490   2.710   4.230  13.476  0.1817 -0.1690 -0.0177
 7692TIP3    H144491   2.696   4.317  13.440  0.6565 -0.1171 -0.0866
 7692TIP3    H244492   2.773   4.189  13.416 -0.8949 -0.9616 -0.6072
 7693TIP3   OH244493   3.009   0.598   3.270  0.0771 -0.0754  0.6516
 7693TIP3    H144494   3.067   0.646   3.329  0.8076 -1.9652  1.5264
 7693TIP3    H244495   2.921   0.612   3.306  0.1915  1.1774  0.4690
 7694TIP3   OH244496   4.749   6.604   0.597  0.5125 -0.6766 -0.3514
 7694TIP3    H144497   4.719   6.522   0.557  1.3294 -1.6993  1.0799
 7694TIP3    H244498   4.826   6.629   0.545  1.4159 -1.8609  0.3852
 7695TIP3   OH244499   2.175   0.711   4.599  0.8505  0.0992  0.2202
 7695TIP3    H144500   2.157   0.632   4.547 -0.1675  0.4954 -0.0528
 7695TIP3    H244501   2.094   0.726   4.647  0.5577  1.7543 -0.7592
 7696TIP3   OH244502   3.949   3.172  14.797 -0.1299 -0.0933  0.3493
 7696TIP3    H144503   3.949   3.139  14.708 -0.5828 -0.8897  0.6398
 7696TIP3    H244504   3.932   3.266  14.788 -1.6710 -0.4344 -0.3030
 7697TIP3   OH244505   0.959   2.046   4.350  0.0045 -0.2783  0.6522
 7697TIP3    H144506   0.942   2.128   4.305 -0.5745 -1.2515 -0.9531
 7697TIP3    H244507   1.037   2.063   4.404  0.6568  0.9383 -0.6564
 7698TIP3   OH244508   0.443   0.964  14.603 -0.3367  0.0872  0.2307
 7698TIP3    H144509   0.426   0.879  14.563  2.1686 -0.4305  0.1697
 7698TIP3    H244510   0.528   0.990  14.568 -0.4871  2.0129  1.2497
 7699TIP3   OH244511   2.963   2.585  12.906  0.5754  0.5386  0.1855
 7699TIP3    H144512   2.876   2.626  12.912  0.8318  0.9181  1.4189
 7699TIP3    H244513   2.965   2.548  12.818 -1.7238 -1.4720  0.9079
 7700TIP3   OH244514   5.133   5.594   5.179 -0.0351 -0.3841  0.6687
 7700TIP3    H144515   5.101   5.656   5.113  1.2085 -1.5029 -1.0559
 7700TIP3    H244516   5.227   5.611   5.185  0.1651 -1.4813  0.8320
 7701TIP3   OH244517   1.852   6.376   4.855  0.2916  0.2977  0.1441
 7701TIP3    H144518   1.924   6.439   4.868  0.9148 -0.0138 -1.6545
 7701TIP3    H244519   1.886   6.314   4.790 -1.5141  0.0063 -0.5517
 7702TIP3   OH244520   2.704   2.400   0.437 -0.4869 -0.1386  0.0925
 7702TIP3    H144521   2.779   2.341   0.453 -1.6262 -1.0845  2.0756
 7702TIP3    H244522   2.730   2.483   0.476 -0.0913 -0.1888 -0.0597
 7703TIP3   OH244523   4.876   0.047   1.730 -0.0756 -0.3675 -0.0905
 7703TIP3    H144524   4.808  -0.006   1.688  0.2583 -0.5198 -0.4346
 7703TIP3    H244525   4.887   0.122   1.671 -0.2475 -0.1249  0.1827
 7704TIP3   OH244526   4.970   2.494  16.640 -0.1581 -0.1458 -0.3133
 7704TIP3    H144527   5.008   2.535  16.718 -0.2937  0.4124 -0.5319
 7704TIP3    H244528   4.915   2.563  16.602  1.2934  0.1987 -1.8743
 7705TIP3   OH244529   4.238   4.626   1.033 -0.1448  0.5431 -0.3523
 7705TIP3    H144530   4.185   4.556   1.069  1.6060  0.3343  1.9289
 7705TIP3    H244531   4.218   4.703   1.087  1.4967  0.5742  0.2427
 7706TIP3   OH244532   6.291   2.812  15.281  0.1404 -0.3485 -0.1291
 7706TIP3    H144533   6.312   2.786  15.191  0.3538 -0.0548 -0.1657
 7706TIP3    H244534   6.347   2.888  15.298 -1.0473  0.5717 -0.3018
 7707TIP3   OH244535   0.950   0.116  14.318 -0.3861 -0.0104 -0.1511
 7707TIP3    H144536   0.954   0.119  14.223  0.0284 -0.9176 -0.1639
 7707TIP3    H244537   0.860   0.091  14.338 -1.1962  2.6201 -0.2380
 7708TIP3   OH244538   4.458   0.221   2.183 -0.5163  0.6768  0.5232
 7708TIP3    H144539   4.369   0.184   2.180 -0.4763  0.4642  1.6577
 7708TIP3    H244540   4.448   0.299   2.237  0.0160  0.5895  0.7422
 7709TIP3   OH244541   0.775   2.907  14.282 -0.6824  0.0236 -0.0300
 7709TIP3    H144542   0.708   2.839  14.273  0.5666 -1.1709 -0.4051
 7709TIP3    H244543   0.787   2.941  14.194 -0.4982 -0.0575 -0.0362
 7710TIP3   OH244544   1.034   2.084  12.655  0.1962  0.3631  0.2910
 7710TIP3    H144545   0.999   2.051  12.572  2.0948  0.4059 -0.5389
 7710TIP3    H244546   1.013   2.178  12.654 -0.7557  0.1623  0.3830
 7711TIP3   OH244547   1.466   5.430   0.826 -0.4387  0.1159 -0.0675
 7711TIP3    H144548   1.397   5.494   0.846  0.1509  1.4619 -2.1799
 7711TIP3    H244549   1.541   5.483   0.799  1.3301 -1.3601  1.8392
 7712TIP3   OH244550   4.938   4.726  11.495 -0.0558 -0.2130  0.2883
 7712TIP3    H144551   5.006   4.788  11.469 -1.1737  0.8162 -0.2685
 7712TIP3    H244552   4.869   4.738  11.429 -0.7549 -1.2490  0.8254
 7713TIP3   OH244553   4.498   5.991   1.060 -0.2787  0.2770 -0.3244
 7713TIP3    H144554   4.419   5.981   1.006 -0.5648  2.3374 -0.3304
 7713TIP3    H244555   4.570   5.972   1.000 -0.6899  0.3560 -0.8529
 7714TIP3   OH244556   6.533   3.405   4.228 -0.4452  0.2257  0.7626
 7714TIP3    H144557   6.590   3.482   4.238 -0.9019  0.7723 -0.7492
 7714TIP3    H244558   6.490   3.396   4.313 -0.1554  1.4540  1.0456
 7715TIP3   OH244559   2.110   4.826  12.577  0.1930 -0.2021 -0.0832
 7715TIP3    H144560   2.035   4.884  12.591  1.0109  0.5003  1.5816
 7715TIP3    H244561   2.098   4.756  12.641  1.2983  0.2779  0.6631
 7716TIP3   OH244562   1.779   2.303   0.452  0.4544  0.2611 -0.1701
 7716TIP3    H144563   1.749   2.381   0.405  0.0009 -0.0756 -0.4443
 7716TIP3    H244564   1.849   2.267   0.398  0.0386 -0.0389 -0.5027
 7717TIP3   OH244565   0.201   0.207  16.457  0.4098  0.2981  0.4383
 7717TIP3    H144566   0.228   0.158  16.380  1.1475 -0.8447  1.4081
 7717TIP3    H244567   0.119   0.165  16.484  0.0027  0.8770  0.1346
 7718TIP3   OH244568   2.970   3.891   6.033  0.2090 -0.1730  0.1717
 7718TIP3    H144569   2.882   3.875   5.999  0.1703  0.4916 -0.0433
 7718TIP3    H244570   3.010   3.804   6.039 -1.2503 -0.7205  2.4659
 7719TIP3   OH244571   2.511   4.045   5.535 -0.5248 -0.0407 -0.0730
 7719TIP3    H144572   2.449   3.975   5.514 -1.5159  0.6814  0.4309
 7719TIP3    H244573   2.456   4.119   5.560  0.5061  1.0299 -0.9203
 7720TIP3   OH244574   5.084   3.902  13.333  0.1758  0.5043  0.2325
 7720TIP3    H144575   5.098   3.843  13.407 -1.2515  0.3292  0.3663
 7720TIP3    H244576   5.144   3.975  13.349 -0.6891  0.8399  1.9522
 7721TIP3   OH244577   2.491   0.854   6.138  0.3415 -0.3857 -0.1493
 7721TIP3    H144578   2.530   0.766   6.134 -0.6794 -0.8066 -1.0712
 7721TIP3    H244579   2.545   0.907   6.080 -0.0387 -0.8199 -0.9215
 7722TIP3   OH244580   1.293   1.733   4.931 -0.3292 -0.2265  0.4881
 7722TIP3    H144581   1.295   1.828   4.942  2.1716 -0.2207  0.4294
 7722TIP3    H244582   1.317   1.699   5.017  1.4226 -0.6971 -0.1611
 7723TIP3   OH244583   2.905   0.122  17.130 -0.2286 -0.1453 -0.5798
 7723TIP3    H144584   2.870   0.174  17.058  0.7554  1.0547 -0.2220
 7723TIP3    H244585   2.995   0.103  17.104 -1.1474 -3.3805 -1.5997
 7724TIP3   OH244586   3.582   2.762  10.745 -0.8166  0.3050 -0.1304
 7724TIP3    H144587   3.593   2.830  10.678 -0.0533 -0.9379 -1.2816
 7724TIP3    H244588   3.620   2.800  10.824  0.6816  0.7569 -1.0527
 7725TIP3   OH244589   3.247   2.268   0.684 -0.0882  0.0640 -0.4670
 7725TIP3    H144590   3.342   2.254   0.692 -0.0637  0.0132 -0.8627
 7725TIP3    H244591   3.233   2.356   0.718  0.3570  0.8179 -2.2301
 7726TIP3   OH244592   6.654   4.461   1.027  0.1232 -0.2862  0.1894
 7726TIP3    H144593   6.596   4.522   0.982 -0.9513 -1.2222  0.3171
 7726TIP3    H244594   6.705   4.419   0.957  0.5573  0.4165  0.0714
 7727TIP3   OH244595   0.162   1.159   5.750 -0.4467  0.1411  0.1000
 7727TIP3    H144596   0.231   1.185   5.812 -0.6037  0.9054 -0.0478
 7727TIP3    H244597   0.181   1.067   5.732 -0.1368  0.0287  0.9428
 7728TIP3   OH244598   2.056   1.436   3.205  0.4582  0.2414 -0.0683
 7728TIP3    H144599   1.976   1.483   3.184  0.1689 -0.1537  0.1597
 7728TIP3    H244600   2.123   1.477   3.149  0.3800  1.4655  0.7146
 7729TIP3   OH244601   6.562   6.002   4.623  0.1352 -0.6291  0.7265
 7729TIP3    H144602   6.502   6.062   4.577 -0.7534 -2.7491 -0.9809
 7729TIP3    H244603   6.511   5.922   4.634  1.8202 -1.5955  1.5815
 7730TIP3   OH244604   3.262   2.285  11.702  0.1286  0.0159 -0.3559
 7730TIP3    H144605   3.207   2.328  11.767  1.6582 -0.1606  1.0885
 7730TIP3    H244606   3.291   2.356  11.644 -0.1892  0.3769 -0.0702
 7731TIP3   OH244607   1.661   6.665  16.140 -0.4281  0.5159  0.0052
 7731TIP3    H144608   1.607   6.680  16.217 -3.1020  2.7792 -2.2377
 7731TIP3    H244609   1.696   6.751  16.117  3.1485 -0.6761  0.6018
 7732TIP3   OH244610   0.949   3.357  16.773  0.1564  0.1151  0.1617
 7732TIP3    H144611   0.943   3.358  16.677  1.4730  0.9936  0.0720
 7732TIP3    H244612   0.910   3.440  16.800  0.7646  0.3620  0.3041
 7733TIP3   OH244613   2.940   0.973  13.132 -0.4679 -0.0019  0.0394
 7733TIP3    H144614   2.852   0.937  13.129 -0.3772 -0.3004  0.9404
 7733TIP3    H244615   2.991   0.917  13.073 -1.0894  0.7864 -1.2716
 7734TIP3   OH244616   3.391   5.496  12.452 -0.5204 -0.6582 -0.3195
 7734TIP3    H144617   3.364   5.407  12.430 -0.2112 -1.0510  0.8567
 7734TIP3    H244618   3.487   5.494  12.448 -0.5424  0.0036 -1.7044
 7735TIP3   OH244619   4.519   4.592  12.042 -0.0539 -0.5877  0.0626
 7735TIP3    H144620   4.513   4.499  12.020  0.7175 -0.7206  0.4010
 7735TIP3    H244621   4.612   4.613  12.029 -0.1180 -0.0109  0.5592
 7736TIP3   OH244622   6.178   3.819  13.266 -0.6674  0.0697  0.3093
 7736TIP3    H144623   6.083   3.830  13.259 -0.5616  1.0597  0.3301
 7736TIP3    H244624   6.207   3.894  13.318  0.3790  0.9591 -1.5047
 7737TIP3   OH244625   4.903   5.332   1.311  0.0097 -0.3394 -0.0241
 7737TIP3    H144626   4.989   5.289   1.312  0.6225  0.5554 -3.8663
 7737TIP3    H244627   4.917   5.415   1.356  1.9609  0.9752 -2.8669
 7738TIP3   OH244628   1.453   2.013   1.827  0.2613 -0.3462 -0.0524
 7738TIP3    H144629   1.448   2.063   1.746  0.2313 -0.7664 -0.3114
 7738TIP3    H244630   1.365   2.017   1.864  1.1002  2.8956  1.8131
 7739TIP3   OH244631   4.098   1.438   5.191 -0.2363 -0.2181 -0.3035
 7739TIP3    H144632   4.009   1.458   5.220  0.6905  1.0306  1.7725
 7739TIP3    H244633   4.127   1.518   5.147  0.7462  0.3351  1.2936
 7740TIP3   OH244634   2.066   2.526  13.112 -0.1294  0.1216 -0.2707
 7740TIP3    H144635   2.109   2.576  13.181  1.7248 -0.6162 -0.8608
 7740TIP3    H244636   2.025   2.592  13.056 -0.9168  0.7679  1.0540
 7741TIP3   OH244637   1.317   1.096   5.049  0.1811  0.3458  0.2372
 7741TIP3    H144638   1.287   1.175   5.094  0.8995  1.5350 -1.3463
 7741TIP3    H244639   1.303   1.026   5.113 -1.3454  1.5976  1.3266
 7742TIP3   OH244640   0.380   2.268  12.768 -0.1210  0.0642 -0.0638
 7742TIP3    H144641   0.351   2.232  12.683  0.6988 -0.6396 -0.0560
 7742TIP3    H244642   0.422   2.351  12.745  0.1245 -0.1366 -0.3548
 7743TIP3   OH244643   6.616   6.672  16.865 -0.0835 -0.7639 -0.0194
 7743TIP3    H144644   6.700   6.670  16.910  0.4239 -2.7315 -1.0274
 7743TIP3    H244645   6.579   6.585  16.879 -0.2878 -1.1453 -2.7125
 7744TIP3   OH244646   4.623   1.278   5.745 -0.6490  0.0358 -0.0120
 7744TIP3    H144647   4.708   1.266   5.703 -0.5149  0.3283  0.1737
 7744TIP3    H244648   4.637   1.250   5.836 -1.3795 -2.2617 -0.5551
 7745TIP3   OH244649   0.693   5.791   2.700 -0.4606 -0.3761 -0.5231
 7745TIP3    H144650   0.670   5.854   2.769  0.6945 -2.0787  1.4789
 7745TIP3    H244651   0.618   5.792   2.641 -2.6462 -0.6898  2.1001
 7746TIP3   OH244652   0.281   6.035  12.669 -0.3138 -0.1691  0.7655
 7746TIP3    H144653   0.221   5.991  12.729 -0.1132 -0.6626  0.6076
 7746TIP3    H244654   0.235   6.115  12.643  0.3058  0.8857  2.8631
 7747TIP3   OH244655   3.974   2.671  15.711  0.1182 -0.1116  0.1925
 7747TIP3    H144656   3.932   2.676  15.626 -0.4773 -0.1795  0.4860
 7747TIP3    H244657   3.914   2.620  15.766  0.6967 -0.4342  0.5336
 7748TIP3   OH244658   5.789   4.344  14.659  0.2055  0.4334 -0.0792
 7748TIP3    H144659   5.751   4.299  14.733 -0.8056  1.1676 -0.1401
 7748TIP3    H244660   5.714   4.373  14.606  0.8761  0.7031 -0.9115
 7749TIP3   OH244661   1.944   3.849  15.793 -0.1436 -0.0524  0.6747
 7749TIP3    H144662   1.979   3.859  15.704  1.4027  0.5502  1.3343
 7749TIP3    H244663   1.870   3.789  15.783  0.3968 -0.4800 -0.9283
 7750TIP3   OH244664   3.385   2.844  11.204  0.4414  0.9835  0.3251
 7750TIP3    H144665   3.396   2.939  11.203  2.5440  0.7713 -1.3335
 7750TIP3    H244666   3.363   2.821  11.114  1.3989 -0.2386  0.3867
 7751TIP3   OH244667   2.120   6.744  14.167 -0.3371 -0.5468 -0.1372
 7751TIP3    H144668   2.047   6.688  14.141  1.4760 -2.1563 -1.9782
 7751TIP3    H244669   2.181   6.685  14.213  0.7482  0.2957 -0.4618
 7752TIP3   OH244670   1.267   4.088   5.953  0.3417  0.5226 -0.4290
 7752TIP3    H144671   1.295   4.067   5.864 -2.4020 -1.3192 -0.9155
 7752TIP3    H244672   1.226   4.175   5.945 -0.8024 -0.0757 -1.1867
 7753TIP3   OH244673   3.428   6.606   6.726 -0.0101  0.5040 -0.1743
 7753TIP3    H144674   3.505   6.583   6.778 -0.9839 -0.9845  0.6517
 7753TIP3    H244675   3.358   6.616   6.789 -0.7491  0.7341 -1.0158
 7754TIP3   OH244676   0.548   0.978   4.682 -0.3674 -0.2280  0.1528
 7754TIP3    H144677   0.501   1.015   4.608 -0.7489 -0.6589  0.1792
 7754TIP3    H244678   0.591   0.900   4.647 -0.1206 -0.1414  0.2607
 7755TIP3   OH244679   1.908   3.347  13.675 -0.3702  0.6944 -0.2093
 7755TIP3    H144680   1.843   3.417  13.687 -0.2245  0.7246  0.3722
 7755TIP3    H244681   1.990   3.394  13.658 -0.1256  0.6669  0.9129
 7756TIP3   OH244682   5.156   0.435  11.307  0.5579 -0.0392 -0.0465
 7756TIP3    H144683   5.184   0.484  11.384 -1.7979 -2.2646  2.3557
 7756TIP3    H244684   5.061   0.449  11.303  0.1792 -2.4702 -0.6555
 7757TIP3   OH244685   0.965   2.253  14.279  0.2636  1.0473  0.2859
 7757TIP3    H144686   1.019   2.201  14.220  0.3443 -0.1991  1.4414
 7757TIP3    H244687   1.029   2.301  14.333  0.2045  0.5593  0.7879
 7758TIP3   OH244688   3.060   6.217  14.749  0.0668  0.3123  0.1394
 7758TIP3    H144689   3.143   6.217  14.702 -0.9851 -1.3815 -1.8017
 7758TIP3    H244690   3.068   6.145  14.812  1.4798  2.5884  2.6567
 7759TIP3   OH244691   5.959   5.017   2.417 -0.0275 -0.4539  0.0646
 7759TIP3    H144692   5.992   4.947   2.473 -1.6630 -0.3368  1.2110
 7759TIP3    H244693   5.980   4.989   2.328 -0.5395 -2.3222  0.5241
 7760TIP3   OH244694   5.045   4.915  15.459 -0.1215  0.1963 -0.3079
 7760TIP3    H144695   5.022   4.941  15.370 -0.0979 -0.2574 -0.4474
 7760TIP3    H244696   5.097   4.835  15.448 -0.0510  0.1825  0.1070
 7761TIP3   OH244697   4.934   2.881   2.595 -0.2760 -0.6013  0.0387
 7761TIP3    H144698   4.863   2.819   2.614 -0.9175 -0.4652 -1.7738
 7761TIP3    H244699   4.910   2.919   2.510  1.4808  0.1639 -0.1349
 7762TIP3   OH244700   1.555   1.597  11.391 -0.3228  0.0234 -0.1509
 7762TIP3    H144701   1.637   1.647  11.387  1.8362 -3.1283  2.3329
 7762TIP3    H244702   1.527   1.604  11.482 -1.1643 -1.3797 -0.2821
 7763TIP3   OH244703   4.127   3.688  15.534  0.5974 -0.5420  0.3255
 7763TIP3    H144704   4.214   3.691  15.573  0.4260 -0.5069  0.7033
 7763TIP3    H244705   4.094   3.777  15.542 -0.0072 -0.8510  1.3954
 7764TIP3   OH244706   6.723   3.631  16.711 -0.0664 -0.1604  0.0564
 7764TIP3    H144707   6.652   3.638  16.775  0.5085  0.7758  0.6107
 7764TIP3    H244708   6.690   3.679  16.634  0.6149  1.7672  0.9232
 7765TIP3   OH244709   1.425   5.294   5.045  0.0117  0.6812 -0.4067
 7765TIP3    H144710   1.497   5.260   4.991 -0.0113 -1.3056  0.7340
 7765TIP3    H244711   1.346   5.271   4.996 -0.0804 -2.4464  1.0935
 7766TIP3   OH244712   0.773   2.651  16.812 -0.1103 -0.1896 -0.5360
 7766TIP3    H144713   0.848   2.638  16.870 -0.0535  2.1424 -0.0178
 7766TIP3    H244714   0.701   2.676  16.871 -0.5889  0.2176 -1.2848
 7767TIP3   OH244715   0.041   5.507  13.827 -0.4148 -0.3506  0.0646
 7767TIP3    H144716   0.051   5.521  13.733  0.8545 -2.2649 -0.1016
 7767TIP3    H244717  -0.052   5.491  13.839 -0.5637 -0.2224 -0.8723
 7768TIP3   OH244718   3.217   2.741  13.339  0.2276  0.0937 -0.1437
 7768TIP3    H144719   3.219   2.656  13.383 -1.7859 -0.1578 -0.4794
 7768TIP3    H244720   3.181   2.723  13.252  2.3209  0.8965 -1.2035
 7769TIP3   OH244721   0.440   0.962  12.289  0.2910  0.0336  0.4287
 7769TIP3    H144722   0.480   0.879  12.315 -0.1472 -0.3702 -0.1493
 7769TIP3    H244723   0.499   1.029  12.322  1.6540 -0.5624 -0.7590
 7770TIP3   OH244724   5.854   1.459   0.434 -0.2338  0.5859  0.3948
 7770TIP3    H144725   5.898   1.453   0.519 -0.3924 -2.1218  0.3305
 7770TIP3    H244726   5.764   1.482   0.454  0.2199  2.0733  0.7956
 7771TIP3   OH244727   3.009   2.650  14.351 -0.3503  0.0508 -0.2647
 7771TIP3    H144728   3.001   2.587  14.279  0.0370  0.1574 -0.4054
 7771TIP3    H244729   2.922   2.653  14.391 -0.6118  0.1147 -0.8376
 7772TIP3   OH244730   1.705   3.647  14.080  0.0178 -0.3820  0.0538
 7772TIP3    H144731   1.705   3.559  14.042  1.0140  0.7733 -2.7770
 7772TIP3    H244732   1.617   3.681  14.063 -0.5249 -0.9890  1.5882
 7773TIP3   OH244733   5.709   3.670   0.591  0.4261 -0.2524 -0.2312
 7773TIP3    H144734   5.679   3.583   0.565  0.1849 -0.1399 -0.3293
 7773TIP3    H244735   5.637   3.706   0.644 -0.6625  0.9752 -2.4880
 7774TIP3   OH244736   1.321   0.328  14.811 -0.3784 -0.2011  0.9894
 7774TIP3    H144737   1.404   0.320  14.858  0.1180 -0.1133  0.1265
 7774TIP3    H244738   1.318   0.250  14.756 -1.7494 -1.1757  2.3994
 7775TIP3   OH244739   5.327   5.313   1.756  0.1804 -0.6979 -0.3820
 7775TIP3    H144740   5.257   5.328   1.693 -1.3770  0.2928  1.5572
 7775TIP3    H244741   5.366   5.399   1.770  0.0493 -0.7895  0.5550
 7776TIP3   OH244742   4.595   2.207  16.313 -0.0400  0.1559 -0.5803
 7776TIP3    H144743   4.582   2.112  16.314 -1.4167  0.3067 -1.8241
 7776TIP3    H244744   4.684   2.219  16.283  0.8313 -0.7769  1.4856
 7777TIP3   OH244745   3.266   4.051  10.653 -0.2294 -0.3474 -0.2011
 7777TIP3    H144746   3.278   3.974  10.598  0.2931  1.1259 -2.1985
 7777TIP3    H244747   3.355   4.085  10.666 -0.4608 -0.0666  0.6421
 7778TIP3   OH244748   5.125   1.528   0.105 -0.4918 -0.2383  0.4046
 7778TIP3    H144749   5.033   1.539   0.128 -0.2393 -0.2683  1.4712
 7778TIP3    H244750   5.173   1.575   0.174  0.2574  0.8151 -0.8032
 7779TIP3   OH244751   4.144   4.074   4.098 -0.1857 -0.0936  0.6829
 7779TIP3    H144752   4.114   4.113   4.181 -0.3271  0.8334  0.2035
 7779TIP3    H244753   4.190   4.146   4.054  1.4236 -1.0679  0.7292
 7780TIP3   OH244754   4.402   0.390   5.512  0.1246 -0.1793  0.6666
 7780TIP3    H144755   4.467   0.324   5.535  0.8951 -0.4259 -2.1062
 7780TIP3    H244756   4.452   0.463   5.477 -0.9278  0.7880  1.1255
 7781TIP3   OH244757   2.497   1.460  14.120 -0.1603 -0.7204  0.2457
 7781TIP3    H144758   2.573   1.474  14.063 -0.9403 -0.8584 -0.8558
 7781TIP3    H244759   2.504   1.529  14.186 -0.0229  0.3565 -0.8732
 7782TIP3   OH244760   0.118   2.222  14.212  0.5426 -0.1950  0.3769
 7782TIP3    H144761   0.150   2.311  14.201 -0.2327  0.0026 -0.2869
 7782TIP3    H244762   0.151   2.195  14.297  1.3172  0.4990  0.3029
 7783TIP3   OH244763   5.933   2.464   5.264  0.3427  0.1326  0.6696
 7783TIP3    H144764   5.889   2.507   5.191  2.9264  0.0209 -1.0410
 7783TIP3    H244765   5.902   2.374   5.262  2.2184 -0.5126 -1.9072
 7784TIP3   OH244766   0.371   1.839   2.095 -0.2072 -0.4240 -0.5846
 7784TIP3    H144767   0.283   1.839   2.131  0.4289  1.3455  1.0807
 7784TIP3    H244768   0.365   1.891   2.015 -0.9399 -1.5257 -1.2640
 7785TIP3   OH244769   3.721   5.440  13.746  0.9153 -0.0082  0.0060
 7785TIP3    H144770   3.739   5.373  13.681  2.0141  0.1149  0.1577
 7785TIP3    H244771   3.799   5.440  13.802 -0.0301 -0.1443  1.3456
 7786TIP3   OH244772   1.771   3.027  13.425  0.3957  0.4633 -0.1655
 7786TIP3    H144773   1.833   3.095  13.397  0.8343 -0.5505 -1.7256
 7786TIP3    H244774   1.821   2.946  13.424 -0.6591 -0.2015 -0.3276
 7787TIP3   OH244775   5.166   5.358  15.045  0.6111 -0.1378 -0.6867
 7787TIP3    H144776   5.075   5.387  15.046  0.6446  0.0545  2.3264
 7787TIP3    H244777   5.162   5.264  15.026 -0.1621  0.0018 -1.2036
 7788TIP3   OH244778   1.769   2.281   2.138  0.2299 -0.0447 -0.0140
 7788TIP3    H144779   1.778   2.187   2.153  0.6269  0.2309  1.5950
 7788TIP3    H244780   1.710   2.311   2.207  0.1945  0.9014 -0.4468
 7789TIP3   OH244781   6.280   1.813   1.282 -0.0185  0.4302  0.7147
 7789TIP3    H144782   6.281   1.907   1.260  0.7781  0.5981  1.4509
 7789TIP3    H244783   6.192   1.784   1.259 -0.9188  1.8122  2.3200
 7790TIP3   OH244784   1.528   4.679   5.020  0.0434 -0.1632  0.1122
 7790TIP3    H144785   1.539   4.762   4.972 -1.1674 -0.3098 -0.4452
 7790TIP3    H244786   1.605   4.627   4.996 -1.0961 -0.6660 -2.6036
 7791TIP3   OH244787   1.762   4.067  11.840 -0.3382  0.2774 -0.4908
 7791TIP3    H144788   1.841   4.021  11.868 -1.4545 -0.9608  0.6454
 7791TIP3    H244789   1.741   4.126  11.912  0.0016  1.2085 -1.1412
 7792TIP3   OH244790   0.720   6.398   1.128 -0.5079 -0.1522 -0.5667
 7792TIP3    H144791   0.625   6.413   1.126 -0.3998  0.7562  0.6234
 7792TIP3    H244792   0.758   6.475   1.086 -0.1713  0.8545  1.5269
 7793TIP3   OH244793   2.652   4.851   3.372  0.0286 -0.1652 -0.5465
 7793TIP3    H144794   2.613   4.935   3.350 -0.1166 -0.2555 -0.6380
 7793TIP3    H244795   2.593   4.786   3.333 -0.1835 -0.3266  0.0225
 7794TIP3   OH244796   5.444   5.212   3.451 -0.5044 -0.2505 -0.2696
 7794TIP3    H144797   5.375   5.147   3.465 -2.3772  1.5647 -0.8760
 7794TIP3    H244798   5.455   5.254   3.535  1.8499 -2.3644  0.5550
 7795TIP3   OH244799   0.572   2.975   0.240  0.2848 -0.4789  0.2268
 7795TIP3    H144800   0.509   2.924   0.291  0.1804 -1.0834 -0.5023
 7795TIP3    H244801   0.583   2.926   0.159  1.8872 -0.4871  0.4463
 7796TIP3   OH244802   1.300   3.613   5.614 -0.1393  0.3470  0.5221
 7796TIP3    H144803   1.392   3.619   5.587  0.0745 -0.9320  0.9341
 7796TIP3    H244804   1.282   3.519   5.616 -1.6043  0.6033 -0.0276
 7797TIP3   OH244805   0.298   3.452   4.985 -0.7046 -0.4306 -0.2845
 7797TIP3    H144806   0.205   3.474   4.998 -0.7545 -0.2247 -0.9474
 7797TIP3    H244807   0.310   3.371   5.033 -1.1021 -0.1805  0.2475
 7798TIP3   OH244808   4.212   2.820   1.730  0.3554 -0.6051  0.1969
 7798TIP3    H144809   4.176   2.906   1.752  0.0314 -1.1739  1.9610
 7798TIP3    H244810   4.142   2.776   1.683  0.4108 -0.0159 -0.4456
 7799TIP3   OH244811   6.059   3.643  16.672 -0.0724  0.3580 -0.0512
 7799TIP3    H144812   6.036   3.594  16.593  0.2367  1.0896 -0.5963
 7799TIP3    H244813   6.132   3.699  16.646 -0.7244  1.4664  0.4408
 7800TIP3   OH244814   3.741   3.620  11.111  0.2253  0.1307  0.1942
 7800TIP3    H144815   3.749   3.608  11.017  0.8171 -0.6360  0.3326
 7800TIP3    H244816   3.682   3.694  11.122 -1.9221 -1.4181 -0.7447
 7801TIP3   OH244817   2.347   3.157   1.883 -0.0969 -0.2423 -0.5061
 7801TIP3    H144818   2.376   3.247   1.897  0.2026 -0.2461 -1.0407
 7801TIP3    H244819   2.262   3.151   1.926 -1.4389  1.1021 -2.8333
 7802TIP3   OH244820   1.775   2.548  13.695 -0.8006  0.0507 -0.6152
 7802TIP3    H144821   1.703   2.487  13.710 -0.9498  0.6084  1.0768
 7802TIP3    H244822   1.761   2.582  13.607 -0.6530 -2.4230 -1.6229
 7803TIP3   OH244823   6.633   2.315  10.394  0.1010  0.5887  0.3377
 7803TIP3    H144824   6.572   2.382  10.424 -0.6640  0.5567 -1.1129
 7803TIP3    H244825   6.598   2.233  10.429 -0.0332  0.7207  0.5120
 7804TIP3   OH244826   1.071   4.977   5.243  0.4003  0.0174 -0.5836
 7804TIP3    H144827   0.990   4.929   5.261 -0.4464  1.2984 -0.9324
 7804TIP3    H244828   1.046   5.069   5.247  1.2775  0.3992 -3.2512
 7805TIP3   OH244829   5.715   2.778   0.158 -0.0208  0.6515 -0.0376
 7805TIP3    H144830   5.774   2.703   0.166 -2.1294 -0.9292  0.9422
 7805TIP3    H244831   5.691   2.779   0.065  1.0079  0.9140 -0.3126
 7806TIP3   OH244832   5.535   4.390   4.812  0.7348 -0.5790 -0.0701
 7806TIP3    H144833   5.454   4.354   4.849  0.1698  0.8319  0.0993
 7806TIP3    H244834   5.567   4.322   4.753  0.7355 -2.1756  1.7048
 7807TIP3   OH244835   2.398   1.516   0.896 -0.4674  0.0612  0.3765
 7807TIP3    H144836   2.363   1.598   0.861 -1.0522 -0.2196  0.3010
 7807TIP3    H244837   2.325   1.455   0.890  0.8238 -1.2951 -2.3463
 7808TIP3   OH244838   5.974   6.496  16.366  0.0072 -0.4464  0.3726
 7808TIP3    H144839   5.920   6.494  16.445  0.4814 -1.3741  0.6928
 7808TIP3    H244840   5.972   6.406  16.334  0.0261 -0.1254 -0.5296
 7809TIP3   OH244841   6.671   0.260  15.452  0.0901  0.6572 -0.8099
 7809TIP3    H144842   6.666   0.273  15.547 -0.8896 -1.1133 -0.5958
 7809TIP3    H244843   6.598   0.311  15.417 -0.5563  0.0163 -0.4373
 7810TIP3   OH244844   4.684   5.934   4.227  0.0876  0.3123  0.7357
 7810TIP3    H144845   4.726   5.998   4.169 -0.0528 -0.5539 -0.3526
 7810TIP3    H244846   4.618   5.892   4.171  0.6378 -1.2510  1.2394
 7811TIP3   OH244847   0.137   4.064   1.545 -0.0070 -0.4299 -0.1520
 7811TIP3    H144848   0.156   4.136   1.605  0.2248 -0.1943 -0.5079
 7811TIP3    H244849   0.079   4.102   1.479  0.0047 -0.6039 -0.2622
 7812TIP3   OH244850   2.101   1.806   0.111 -0.3949 -0.2261  0.1331
 7812TIP3    H144851   2.130   1.719   0.139  0.4499 -0.2948 -0.9005
 7812TIP3    H244852   2.174   1.864   0.133 -0.3504 -0.0306 -0.5038
 7813TIP3   OH244853   3.086   0.736  13.719 -0.8235  0.5371 -0.2237
 7813TIP3    H144854   3.030   0.792  13.665  0.1597  2.2910  0.5525
 7813TIP3    H244855   3.108   0.790  13.795  0.2123 -0.8751  0.4949
 7814TIP3   OH244856   3.225   6.267   5.438  0.6057 -0.0649  0.3166
 7814TIP3    H144857   3.156   6.319   5.397  1.0934 -1.1883 -2.0782
 7814TIP3    H244858   3.236   6.193   5.379  2.6987 -0.7657  1.5471
 7815TIP3   OH244859   3.271   6.503  11.192  0.1131  0.0026  0.0873
 7815TIP3    H144860   3.215   6.571  11.154  1.4309  0.3899 -1.2070
 7815TIP3    H244861   3.210   6.434  11.218 -0.9473  0.1979 -1.7641
 7816TIP3   OH244862   4.491   3.347   2.114  0.3015  0.3239  0.4040
 7816TIP3    H144863   4.540   3.287   2.057 -1.6592  0.2093 -1.2068
 7816TIP3    H244864   4.415   3.296   2.142  0.9824  0.5605  2.7469
 7817TIP3   OH244865   6.002   3.558   5.132 -0.1507  0.4142 -0.2913
 7817TIP3    H144866   5.910   3.586   5.131 -0.2707  0.0123 -1.8258
 7817TIP3    H244867   6.003   3.482   5.191 -1.2639 -1.0333 -2.0793
 7818TIP3   OH244868   3.034   0.881  14.714  0.0398  0.3150 -0.0924
 7818TIP3    H144869   2.946   0.844  14.727  1.2036 -2.8551 -0.8878
 7818TIP3    H244870   3.049   0.874  14.619  0.6972  1.9282 -0.1201
 7819TIP3   OH244871   1.163   5.686  16.417  0.2588 -0.0176  0.0302
 7819TIP3    H144872   1.070   5.708  16.419  0.1110 -0.6505  0.2618
 7819TIP3    H244873   1.165   5.593  16.393  0.8166 -0.0669  0.2594
 7820TIP3   OH244874   3.832   3.241   0.190 -0.1095  0.1438  0.1893
 7820TIP3    H144875   3.756   3.286   0.227  0.2984  0.1603  1.0085
 7820TIP3    H244876   3.871   3.306   0.131 -1.0799 -0.0792 -0.7015
 7821TIP3   OH244877   4.608   3.520  15.663 -0.2547  0.3563 -0.5676
 7821TIP3    H144878   4.523   3.561  15.651 -0.3889  0.5956  1.0469
 7821TIP3    H244879   4.620   3.466  15.585 -1.3207  1.2831 -1.3929
 7822TIP3   OH244880   5.026   2.545  12.852 -0.0656 -0.0539 -0.2320
 7822TIP3    H144881   5.000   2.453  12.839  1.3967 -0.8227  1.9292
 7822TIP3    H244882   5.024   2.583  12.765  0.9714 -2.6055 -1.4147
 7823TIP3   OH244883   6.015   4.330  13.791 -0.7641 -0.8992  0.5945
 7823TIP3    H144884   5.989   4.411  13.747 -1.9906 -2.1809 -1.1050
 7823TIP3    H244885   6.091   4.355  13.844 -1.4063  1.4604  0.4877
 7824TIP3   OH244886   2.761   0.094   1.277 -0.1414  0.4412 -0.3039
 7824TIP3    H144887   2.796   0.017   1.234  0.7584  0.0164  1.1391
 7824TIP3    H244888   2.698   0.130   1.215 -0.2551 -1.2025 -1.1668
 7825TIP3   OH244889   0.663   3.880  11.641 -0.5349  1.0951  0.4424
 7825TIP3    H144890   0.572   3.908  11.651 -0.7642  0.8139 -0.8260
 7825TIP3    H244891   0.697   3.933  11.569  0.7754  2.3027  1.9054
 7826TIP3   OH244892   2.634   4.093  13.204 -0.3012  0.1896  0.2779
 7826TIP3    H144893   2.694   4.118  13.274 -0.4720  0.7491  0.2338
 7826TIP3    H244894   2.676   4.126  13.124 -0.1723 -0.3254  0.1355
 7827TIP3   OH244895   0.072   1.114   0.667 -0.1753 -0.4737 -0.3067
 7827TIP3    H144896   0.094   1.166   0.744 -0.5622 -1.8082  0.7317
 7827TIP3    H244897   0.120   1.155   0.596 -1.8282  2.3474  0.1293
 7828TIP3   OH244898   1.549   2.075   4.768 -0.4615  0.0118  0.4271
 7828TIP3    H144899   1.524   2.134   4.697  1.7201 -0.9526 -1.2299
 7828TIP3    H244900   1.603   2.129   4.826 -0.4428  0.2513  0.1887
 7829TIP3   OH244901   0.763   6.546  12.889 -0.3676 -0.1032  0.1765
 7829TIP3    H144902   0.719   6.462  12.871 -0.4139  0.2752 -1.5645
 7829TIP3    H244903   0.835   6.522  12.948  0.8867 -1.7277 -1.9241
 7830TIP3   OH244904   6.460   5.938   4.102  0.0447 -0.0438  0.0070
 7830TIP3    H144905   6.519   5.893   4.162  0.2827 -1.3427 -1.1929
 7830TIP3    H244906   6.382   5.883   4.099 -0.0269  0.0931 -0.7655
 7831TIP3   OH244907   6.599   4.279   3.989  0.1173 -0.3222  0.0604
 7831TIP3    H144908   6.559   4.244   4.069  0.6396 -1.0396  0.0098
 7831TIP3    H244909   6.551   4.360   3.972  0.2920  0.0738  1.3613
 7832TIP3   OH244910   3.467   3.450  14.678 -0.0137  0.1046 -0.3876
 7832TIP3    H144911   3.530   3.379  14.692 -1.2169 -1.0865 -0.9562
 7832TIP3    H244912   3.418   3.424  14.600 -2.3786  0.1549  1.0454
 7833TIP3   OH244913   3.214   2.953   4.871 -0.5232  0.5816  0.7749
 7833TIP3    H144914   3.303   2.922   4.890  0.3396  2.7133  0.3399
 7833TIP3    H244915   3.198   2.928   4.780  0.5136  2.1449  0.1434
 7834TIP3   OH244916   1.113   6.479   2.437 -0.2520 -0.0264 -0.2850
 7834TIP3    H144917   1.159   6.470   2.520 -0.0963 -1.0208 -0.4760
 7834TIP3    H244918   1.117   6.392   2.397 -1.3053  0.1596 -0.8221
 7835TIP3   OH244919   5.666   0.378   2.487  0.1678 -0.1601  0.3265
 7835TIP3    H144920   5.624   0.452   2.444  0.6646 -0.2761 -0.3683
 7835TIP3    H244921   5.612   0.361   2.564  0.7936  1.7838  1.2399
 7836TIP3   OH244922   3.889   6.049   5.950  0.6489  0.3738  0.0200
 7836TIP3    H144923   3.881   6.128   5.897 -0.4774 -0.5580 -1.2193
 7836TIP3    H244924   3.981   6.047   5.976  1.4617  0.3470 -2.7245
 7837TIP3   OH244925   0.228   6.605  16.625  0.0552  0.1023  0.1144
 7837TIP3    H144926   0.233   6.531  16.565  0.5202  0.0599  0.2048
 7837TIP3    H244927   0.176   6.573  16.699  1.1118 -0.4534  0.6240
 7838TIP3   OH244928   3.946   2.625   5.572  0.0370 -0.0667  0.6756
 7838TIP3    H144929   3.884   2.661   5.508 -0.7616 -2.1479  0.2139
 7838TIP3    H244930   4.011   2.580   5.518 -0.4772 -1.5746  1.2760
 7839TIP3   OH244931   2.111   5.598   2.918  0.5967  0.2360  0.2866
 7839TIP3    H144932   2.063   5.515   2.914  2.5525 -0.8635 -1.1948
 7839TIP3    H244933   2.074   5.650   2.846 -0.1979  0.4548  0.8331
 7840TIP3   OH244934   6.776   5.244   3.467 -0.1740  0.1677 -0.1171
 7840TIP3    H144935   6.694   5.208   3.433 -0.8487  0.7663  0.8426
 7840TIP3    H244936   6.758   5.261   3.559  1.8461 -2.1251  0.7701
 7841TIP3   OH244937   2.106   6.537  14.373  0.2907 -0.1427 -0.2762
 7841TIP3    H144938   2.111   6.469  14.440 -0.2089  0.6783  0.6105
 7841TIP3    H244939   2.122   6.619  14.421 -1.8484  0.6219 -0.8241
 7842TIP3   OH244940   5.277   0.788  12.147 -0.0740  0.1980  0.0949
 7842TIP3    H144941   5.302   0.762  12.235 -1.5074 -3.3724 -0.4339
 7842TIP3    H244942   5.261   0.705  12.101 -3.5340  2.0079 -2.2693
 7843TIP3   OH244943   1.092   6.657  15.844 -0.4695  0.6775  0.4432
 7843TIP3    H144944   1.031   6.583  15.837 -0.4379  0.6927 -0.0323
 7843TIP3    H244945   1.070   6.698  15.927 -0.9695  0.5522  0.3774
 7844TIP3   OH244946   6.351   0.451  14.405  0.2540  0.7207 -0.3894
 7844TIP3    H144947   6.285   0.519  14.395 -0.8413 -0.3196 -0.4003
 7844TIP3    H244948   6.351   0.405  14.321 -1.4500 -1.4059  0.7062
 7845TIP3   OH244949   0.048   0.271  14.562 -0.3743  0.2126 -0.0057
 7845TIP3    H144950  -0.031   0.299  14.516  0.0769 -0.8513 -1.4590
 7845TIP3    H244951   0.120   0.302  14.506  0.2741  1.7779  1.6441
 7846TIP3   OH244952   4.130   2.212  14.275  0.2492 -0.1177 -0.1920
 7846TIP3    H144953   4.183   2.237  14.200 -1.3481  0.5875 -1.1076
 7846TIP3    H244954   4.177   2.247  14.351  1.7079 -0.5830 -0.8734
 7847TIP3   OH244955   2.963   0.995  14.436 -0.3866  0.0406  0.0736
 7847TIP3    H144956   3.048   1.023  14.401 -1.2929 -0.5772 -2.7436
 7847TIP3    H244957   2.931   0.931  14.372 -2.8122 -0.0291  1.3137
 7848TIP3   OH244958   4.757   1.645   4.407  0.1329 -0.2962  0.3727
 7848TIP3    H144959   4.765   1.592   4.327 -1.2611 -0.4299  0.3096
 7848TIP3    H244960   4.675   1.692   4.397 -0.3508 -0.7448  1.9782
 7849TIP3   OH244961   0.554   1.597  14.368  0.4752  0.5844  0.0349
 7849TIP3    H144962   0.477   1.574  14.420  0.5238 -0.0774 -0.1861
 7849TIP3    H244963   0.537   1.687  14.339 -0.8766 -0.0259 -1.1823
 7850TIP3   OH244964   2.308   4.157  16.452  0.0752 -0.0924 -0.1784
 7850TIP3    H144965   2.259   4.161  16.534  0.5254 -1.5432  0.1761
 7850TIP3    H244966   2.263   4.091  16.400  0.1523  0.3882 -0.8609
 7851TIP3   OH244967   4.179   4.798   6.196 -0.0111  0.2975  0.5128
 7851TIP3    H144968   4.114   4.853   6.240  0.0313 -0.4127  1.4625
 7851TIP3    H244969   4.193   4.725   6.256  1.5266  0.3528  0.2243
 7852TIP3   OH244970   1.301   3.455  14.439  0.1578 -0.1264  0.1399
 7852TIP3    H144971   1.373   3.512  14.468  0.2452 -0.3368  0.3371
 7852TIP3    H244972   1.253   3.435  14.519 -0.5129  0.5484 -0.0864
 7853TIP3   OH244973   4.027   0.607   2.092  0.1437  0.7909  0.0464
 7853TIP3    H144974   3.991   0.583   2.177  0.4581  0.9314  0.2198
 7853TIP3    H244975   4.032   0.524   2.044  1.8802  0.3829  0.8886
 7854TIP3   OH244976   3.898   5.770   3.968 -0.1049 -0.1570  0.6438
 7854TIP3    H144977   3.837   5.835   4.003 -0.3876 -0.0710  0.0026
 7854TIP3    H244978   3.842   5.699   3.936 -0.0038  0.8357 -1.8405
 7855TIP3   OH244979   1.800   2.660  16.161 -0.1756 -0.6990 -0.4445
 7855TIP3    H144980   1.869   2.719  16.129  0.8896 -1.0179  1.2160
 7855TIP3    H244981   1.729   2.719  16.187 -0.5911 -0.3729 -2.2406
 7856TIP3   OH244982   0.085   1.784   2.656 -0.5439 -0.4514  0.3158
 7856TIP3    H144983   0.009   1.804   2.711  0.4292 -0.6080  1.7296
 7856TIP3    H244984   0.069   1.695   2.625 -0.1945 -1.0870  1.8987
 7857TIP3   OH244985   3.867   0.531  15.204  0.5208  0.0407 -0.4777
 7857TIP3    H144986   3.891   0.502  15.292 -1.0936  1.7620  0.5739
 7857TIP3    H244987   3.871   0.626  15.209  2.7882  0.1313 -2.9930
 7858TIP3   OH244988   3.598   6.615   3.747  0.0241  0.5229 -0.0390
 7858TIP3    H144989   3.635   6.681   3.806  1.2142  0.7105 -0.9801
 7858TIP3    H244990   3.609   6.652   3.660 -0.0726 -0.5556 -0.5182
 7859TIP3   OH244991   0.956   6.056  13.812 -0.0977  0.1879 -0.7068
 7859TIP3    H144992   0.922   6.005  13.739  1.0344  2.1311 -2.6245
 7859TIP3    H244993   0.890   6.124  13.827  0.0498  0.2721 -0.4216
 7860TIP3   OH244994   4.394   1.849  13.899  0.3819 -0.0501 -0.3485
 7860TIP3    H144995   4.471   1.794  13.914  1.0322  0.7619 -0.6465
 7860TIP3    H244996   4.373   1.838  13.806 -1.1771 -1.9281  0.1974
 7861TIP3   OH244997   5.821   0.219  16.003 -0.3606  0.4069  0.2331
 7861TIP3    H144998   5.872   0.168  16.065 -0.9537 -0.9937 -0.4026
 7861TIP3    H244999   5.840   0.310  16.025  3.3106 -0.0430 -0.7115
 7862TIP3   OH245000   5.413   2.779  13.416  0.1042  0.3600  0.1715
 7862TIP3    H145001   5.492   2.734  13.386  0.6392  1.7945 -0.5845
 7862TIP3    H245002   5.367   2.713  13.468  1.0123 -0.9835 -0.6966
 7863TIP3   OH245003   6.755   6.247   1.842 -0.1518 -0.2778  0.7483
 7863TIP3    H145004   6.798   6.318   1.795  1.4166 -2.1994 -0.8079
 7863TIP3    H245005   6.777   6.262   1.934 -0.6065  1.7519  0.5348
 7864TIP3   OH245006   4.790   2.901  13.256 -0.2704 -0.8939 -0.0315
 7864TIP3    H145007   4.874   2.858  13.273 -0.7948 -1.0528  2.3336
 7864TIP3    H245008   4.792   2.920  13.162  2.6056 -0.4880  0.0382
 7865TIP3   OH245009   1.594   6.579  11.903  0.0364  0.4514  0.8347
 7865TIP3    H145010   1.556   6.529  11.976 -0.6810  0.4577  0.4648
 7865TIP3    H245011   1.660   6.521  11.866  0.2553  0.3642  1.3589
 7866TIP3   OH245012   1.769   6.652  14.549 -0.4307  0.1983  0.3962
 7866TIP3    H145013   1.835   6.679  14.484 -1.2401 -1.4357 -1.1487
 7866TIP3    H245014   1.769   6.557  14.544 -1.9442  0.1374  1.3769
 7867TIP3   OH245015   2.140   4.562  13.247  0.2934  0.1289 -0.7999
 7867TIP3    H145016   2.045   4.571  13.253  0.1214 -1.9203  0.0514
 7867TIP3    H245017   2.164   4.610  13.167 -1.2672  1.8305 -0.2725
 7868TIP3   OH245018   5.465   4.631  12.858 -0.0633  0.5616 -1.0560
 7868TIP3    H145019   5.552   4.643  12.897 -0.3099  0.9500 -0.6183
 7868TIP3    H245020   5.405   4.662  12.925 -0.5959 -0.7127 -0.9280
 7869TIP3   OH245021   3.896   2.276   4.808 -0.0724 -0.1787 -0.4247
 7869TIP3    H145022   3.818   2.233   4.772  0.4998 -1.1040 -0.5589
 7869TIP3    H245023   3.963   2.264   4.741  0.3183  0.2203 -0.1052
 7870TIP3   OH245024   6.590   4.882   2.277 -0.1631  0.3406  0.4094
 7870TIP3    H145025   6.663   4.894   2.215  0.6199  0.1305  1.2690
 7870TIP3    H245026   6.514   4.917   2.232  0.5245  0.7983 -0.4147
 7871TIP3   OH245027   2.477   4.794  15.567 -0.3023  0.0798  0.2973
 7871TIP3    H145028   2.525   4.876  15.562  1.4485 -0.8133  1.6952
 7871TIP3    H245029   2.543   4.727  15.548 -0.5198 -1.2959  4.1382
 7872TIP3   OH245030   1.080   2.282   0.218 -0.1270  0.1563  0.0971
 7872TIP3    H145031   1.158   2.266   0.165  0.7039  0.6351  1.1647
 7872TIP3    H245032   1.090   2.223   0.293 -1.0409 -0.1398 -0.0107
 7873TIP3   OH245033   1.358   3.692   1.532 -0.7442 -0.0037  0.2967
 7873TIP3    H145034   1.384   3.700   1.624  0.7431  1.1226 -0.2045
 7873TIP3    H245035   1.338   3.782   1.505 -0.5548 -0.2446 -0.6574
 7874TIP3   OH245036   0.454   6.356  17.136  0.1921 -0.0336  0.0039
 7874TIP3    H145037   0.396   6.424  17.171  0.9229 -0.1411  1.4320
 7874TIP3    H245038   0.508   6.330  17.210  1.4413 -0.5976 -1.0949
 7875TIP3   OH245039   0.589   2.826   3.284  0.2021  0.2364 -0.5241
 7875TIP3    H145040   0.620   2.812   3.374 -1.4242  0.8438  0.1545
 7875TIP3    H245041   0.547   2.743   3.260  0.0764  0.2873 -0.4825
 7876TIP3   OH245042   1.879   2.354   6.251 -0.4234  0.0116  0.1415
 7876TIP3    H145043   1.791   2.379   6.224 -0.6204 -0.8329 -0.0373
 7876TIP3    H245044   1.900   2.412   6.324 -1.0804  0.3064  0.0944
 7877TIP3   OH245045   5.329   0.462   5.318  0.0081 -0.0908  0.5557
 7877TIP3    H145046   5.330   0.547   5.273 -0.4216 -1.5574 -2.3273
 7877TIP3    H245047   5.380   0.404   5.262  0.6768 -1.6647  2.7220
 7878TIP3   OH245048   3.058   2.271  17.034  0.3608  0.2442 -0.2918
 7878TIP3    H145049   3.097   2.358  17.035  0.3948  0.2236  0.4569
 7878TIP3    H245050   3.130   2.211  17.055  0.1200  0.1308  0.2274
 7879TIP3   OH245051   6.266   3.866   3.059  0.0477  0.1585 -0.0373
 7879TIP3    H145052   6.231   3.781   3.085 -0.1298 -0.2236 -1.5126
 7879TIP3    H245053   6.247   3.923   3.134  2.3036 -1.6362  1.9671
 7880TIP3   OH245054   0.021   3.591   4.499  0.4040 -0.1377 -0.2309
 7880TIP3    H145055   0.011   3.606   4.405 -1.4246  0.4469  0.0293
 7880TIP3    H245056   0.082   3.658   4.527 -0.7698  1.1314 -0.6367
 7881TIP3   OH245057   3.001   5.711   5.214  0.5550 -0.5089 -0.0290
 7881TIP3    H145058   2.923   5.702   5.160 -0.6602  1.6805  1.2956
 7881TIP3    H245059   3.026   5.804   5.205  0.2866 -0.0873  3.1547
 7882TIP3   OH245060   2.533   0.948  16.450 -0.2337 -0.3351 -0.0421
 7882TIP3    H145061   2.449   0.917  16.415  0.2855  0.8534 -2.4399
 7882TIP3    H245062   2.566   0.875  16.502 -1.9732 -1.4244 -0.4277
 7883TIP3   OH245063   1.692   3.685   0.801 -0.3085  0.7701  0.2925
 7883TIP3    H145064   1.735   3.768   0.783  0.1101 -0.1559 -3.5458
 7883TIP3    H245065   1.743   3.621   0.751 -1.0110 -1.7064  2.6407
 7884TIP3   OH245066   2.674   5.166   3.530  0.0150 -0.4462  0.3146
 7884TIP3    H145067   2.689   5.092   3.470 -0.5010 -0.3241  0.0347
 7884TIP3    H245068   2.590   5.147   3.571 -1.6373  1.4781 -2.0033
 7885TIP3   OH245069   4.045   2.262  14.964  0.2150  0.1211 -0.0423
 7885TIP3    H145070   4.011   2.344  14.999 -1.8481 -0.2590 -1.1050
 7885TIP3    H245071   3.999   2.193  15.012  0.9066 -0.4318 -0.1485
 7886TIP3   OH245072   4.994   2.140   5.924  0.4870  0.5222  0.8498
 7886TIP3    H145073   4.948   2.136   6.008  0.8987 -0.8675  1.0088
 7886TIP3    H245074   5.087   2.145   5.948  0.6071  0.0849  0.4801
 7887TIP3   OH245075   5.551   3.167  11.512  0.2500 -0.3920  0.4449
 7887TIP3    H145076   5.502   3.198  11.436  0.1980 -0.8231  0.2959
 7887TIP3    H245077   5.585   3.246  11.553 -2.2671  0.0818  1.7259
 7888TIP3   OH245078   5.997   1.330  16.021 -0.1497  0.1028 -0.3458
 7888TIP3    H145079   6.090   1.344  16.039 -0.1886  2.8422 -2.0044
 7888TIP3    H245080   5.973   1.399  15.959 -3.1840 -0.8499 -0.3507
 7889TIP3   OH245081   3.579   5.638  11.274  0.0375 -0.2758 -0.1850
 7889TIP3    H145082   3.599   5.564  11.332 -1.4220 -1.0731 -0.6800
 7889TIP3    H245083   3.559   5.710  11.333  0.8703 -0.4365  0.3032
 7890TIP3   OH245084   4.536   2.469   3.430 -0.6376 -0.1980 -0.3950
 7890TIP3    H145085   4.474   2.533   3.396 -2.1125 -1.2961  0.1028
 7890TIP3    H245086   4.480   2.407   3.478  0.9426 -0.8408  0.6310
 7891TIP3   OH245087   3.245   5.639   5.407 -0.2130  0.7335  0.2006
 7891TIP3    H145088   3.151   5.653   5.398 -0.1692 -0.7036 -3.1499
 7891TIP3    H245089   3.252   5.556   5.453 -0.5614  0.8117  0.4015
 7892TIP3   OH245090   4.065   6.140  11.751 -0.2688  0.1056  0.3872
 7892TIP3    H145091   3.997   6.172  11.691 -0.5779 -0.2025  0.5762
 7892TIP3    H245092   4.023   6.141  11.837  0.3475  1.0841  0.6912
 7893TIP3   OH245093   5.303   1.245  13.794 -0.2168 -0.2407 -0.2902
 7893TIP3    H145094   5.239   1.218  13.860  1.3827 -0.3140  1.2742
 7893TIP3    H245095   5.376   1.184  13.805  1.1681  1.3825 -0.3282
 7894TIP3   OH245096   4.045   2.473   1.658 -0.3029 -0.3463 -0.5244
 7894TIP3    H145097   3.953   2.467   1.681  0.1050 -0.8655  1.0562
 7894TIP3    H245098   4.053   2.558   1.614 -1.3356  0.2213  0.3407
 7895TIP3   OH245099   0.681   3.304  14.210 -0.3421 -0.0019  0.5348
 7895TIP3    H145100   0.604   3.361  14.216 -0.1948  0.2691 -0.1772
 7895TIP3    H245101   0.647   3.223  14.173 -0.5111 -0.3161  1.3528
 7896TIP3   OH245102   5.822   6.237   2.787  0.0264 -0.1561  0.5152
 7896TIP3    H145103   5.880   6.275   2.852 -1.7525  0.8919  1.5444
 7896TIP3    H245104   5.831   6.293   2.710  1.0971 -0.5823  0.3253
 7897TIP3   OH245105   5.300   5.214  11.650 -0.1072  0.9367 -0.2248
 7897TIP3    H145106   5.264   5.152  11.714 -0.0996  0.4923 -0.6499
 7897TIP3    H245107   5.374   5.254  11.696 -0.8340  1.4904  0.4711
 7898TIP3   OH245108   4.373   5.873   6.745  0.0564 -0.1191 -0.2896
 7898TIP3    H145109   4.452   5.842   6.702  1.3661 -0.8833  2.5473
 7898TIP3    H245110   4.305   5.810   6.718  0.7901 -0.5008 -1.2843
 7899TIP3   OH245111   1.649   5.610  16.241  0.2871  0.3015  0.1155
 7899TIP3    H145112   1.640   5.660  16.323 -0.4919 -0.2957  0.4068
 7899TIP3    H245113   1.561   5.613  16.203  0.5289  0.1457 -0.4434
 7900TIP3   OH245114   1.717   2.642  12.649 -0.0743 -0.7901 -0.2062
 7900TIP3    H145115   1.666   2.573  12.605  0.4522 -1.1909 -0.1943
 7900TIP3    H245116   1.797   2.649  12.597  0.4504 -1.1012  0.5453
 7901TIP3   OH245117   3.637   1.174   5.068 -0.6259 -0.0616  0.6596
 7901TIP3    H145118   3.557   1.168   5.016  1.0608  1.3642 -2.2407
 7901TIP3    H245119   3.651   1.268   5.079  0.4469 -0.2993  1.4542
 7902TIP3   OH245120   5.482   6.089  11.950 -0.0437 -0.0534 -0.5093
 7902TIP3    H145121   5.491   6.152  11.879  0.0460  0.3089 -0.1788
 7902TIP3    H245122   5.451   6.140  12.025  1.7417 -0.0470  0.2605
 7903TIP3   OH245123   0.932   6.446  10.944  0.1863  0.2374 -0.1954
 7903TIP3    H145124   0.969   6.358  10.954  1.6989  0.8511 -0.2697
 7903TIP3    H245125   0.900   6.448  10.854 -1.0564 -0.6716  0.2060
 7904TIP3   OH245126   6.122   6.153  15.553  0.3080 -0.7219  0.4170
 7904TIP3    H145127   6.175   6.225  15.519 -0.5333  0.0289  0.6665
 7904TIP3    H245128   6.068   6.193  15.621 -1.6046 -1.1432 -0.8033
 7905TIP3   OH245129   6.159   4.593   3.810 -0.3924  0.3153 -0.3052
 7905TIP3    H145130   6.118   4.507   3.811  0.0821  0.0722  2.3736
 7905TIP3    H245131   6.111   4.643   3.876  2.8879  0.2972  2.2458
 7906TIP3   OH245132   6.616   2.683   0.329 -0.1886  0.0208 -0.2299
 7906TIP3    H145133   6.555   2.612   0.351 -0.5600  0.7842  1.2379
 7906TIP3    H245134   6.690   2.669   0.388  0.5122 -0.1484 -1.1332
 7907TIP3   OH245135   4.507   4.587   5.138 -0.0477  0.7317 -0.4168
 7907TIP3    H145136   4.460   4.606   5.219 -1.1650 -0.9119 -0.6546
 7907TIP3    H245137   4.583   4.535   5.166 -0.6343 -0.1547 -0.4447
 7908TIP3   OH245138   5.083   6.609   0.733 -0.3552 -0.0455  0.4505
 7908TIP3    H145139   5.174   6.603   0.703 -0.2934  0.1064  0.6044
 7908TIP3    H245140   5.083   6.564   0.818 -1.0537 -2.6524 -0.8866
 7909TIP3   OH245141   5.259   3.669  14.683  0.3389  0.7149 -0.0877
 7909TIP3    H145142   5.228   3.693  14.770 -0.7447  1.6907 -0.7288
 7909TIP3    H245143   5.270   3.752  14.637 -1.3342  0.1375 -1.6101
 7910TIP3   OH245144   1.849   0.565  12.638  0.5419 -0.4542 -0.1545
 7910TIP3    H145145   1.760   0.528  12.638  0.1916  0.3708 -0.8237
 7910TIP3    H245146   1.872   0.571  12.730 -1.3943  2.3528  0.2302
 7911TIP3   OH245147   4.312   1.292  14.417 -0.3899  0.1997  0.5900
 7911TIP3    H145148   4.226   1.332  14.409  0.1446  1.0394 -1.2305
 7911TIP3    H245149   4.347   1.326  14.499 -1.8095 -0.1908  1.3681
 7912TIP3   OH245150   5.404   6.487  16.468 -0.1497 -0.4817  0.0674
 7912TIP3    H145151   5.407   6.393  16.450  0.4953 -0.3368 -0.6140
 7912TIP3    H245152   5.460   6.499  16.545  0.2394 -0.5777 -0.2004
 7913TIP3   OH245153   3.605   0.032   1.472 -0.6604 -0.1868 -0.6002
 7913TIP3    H145154   3.667  -0.011   1.530 -1.6327  0.5784  1.0217
 7913TIP3    H245155   3.624  -0.004   1.385 -0.5828 -2.8731  0.5116
 7914TIP3   OH245156   4.344   4.749  11.298  0.2162  0.2367 -0.7421
 7914TIP3    H145157   4.281   4.744  11.225  0.5437 -0.4758 -0.9777
 7914TIP3    H245158   4.323   4.673  11.353 -1.5690  2.0330  1.1740
 7915TIP3   OH245159   4.637   1.671  11.945 -0.1088 -0.3164 -0.0248
 7915TIP3    H145160   4.683   1.735  11.999 -0.3503 -0.2813  0.1374
 7915TIP3    H245161   4.616   1.719  11.865  1.5495 -0.7873 -0.7659
 7916TIP3   OH245162   3.776   6.112  14.470  0.3806 -0.0500 -0.8810
 7916TIP3    H145163   3.773   6.017  14.465  0.4688 -0.0714 -0.5381
 7916TIP3    H245164   3.714   6.142  14.404 -1.4973 -0.3833  0.6895
 7917TIP3   OH245165   5.791   5.549   4.292 -0.4551  0.2909 -0.6356
 7917TIP3    H145166   5.741   5.551   4.373 -0.0719  4.1501 -0.4216
 7917TIP3    H245167   5.879   5.521   4.318 -0.5797  0.6263  0.1382
 7918TIP3   OH245168   1.223   4.000   3.331  0.0267  0.0167 -0.3767
 7918TIP3    H145169   1.247   3.907   3.328 -0.9222 -0.2140 -1.0099
 7918TIP3    H245170   1.178   4.016   3.248 -0.5246  0.8581  0.0728
 7919TIP3   OH245171   0.358   0.217   1.965 -0.6536  0.0910  0.0168
 7919TIP3    H145172   0.313   0.133   1.973  0.6758 -0.5768  0.6156
 7919TIP3    H245173   0.411   0.209   1.886 -1.2215  0.6940 -0.4225
 7920TIP3   OH245174   5.598   5.042   1.740  0.0622  0.6052 -0.8453
 7920TIP3    H145175   5.542   5.058   1.663 -0.1606  1.2828 -0.5402
 7920TIP3    H245176   5.686   5.060   1.709  0.1126 -0.4552 -1.3266
 7921TIP3   OH245177   4.672   2.402   4.293  0.2496  0.3290  0.2369
 7921TIP3    H145178   4.697   2.445   4.211 -0.6615 -0.1446 -0.2972
 7921TIP3    H245179   4.625   2.469   4.342 -0.8118  0.0803 -0.4202
 7922TIP3   OH245180   1.026   5.507   4.052 -0.4841  0.0970 -0.3095
 7922TIP3    H145181   0.969   5.511   4.128  0.8503 -1.7872  0.8142
 7922TIP3    H245182   1.103   5.558   4.077  1.8771 -4.0853  1.3286
 7923TIP3   OH245183   0.742   2.901   1.957 -0.3992  0.0769  0.0002
 7923TIP3    H145184   0.718   2.897   1.864 -0.5090 -2.2314  0.1008
 7923TIP3    H245185   0.706   2.820   1.994  1.1044  0.1725  1.7108
 7924TIP3   OH245186   5.825   0.571   3.028  0.3765 -0.1055  0.6599
 7924TIP3    H145187   5.732   0.593   3.026  0.4951  0.5005  1.4037
 7924TIP3    H245188   5.869   0.654   3.042  0.9532 -0.5448  1.4990
 7925TIP3   OH245189   4.672   0.971   4.122 -0.0720  0.1806  0.5188
 7925TIP3    H145190   4.680   0.893   4.067 -2.1869  0.2006  0.1679
 7925TIP3    H245191   4.691   0.940   4.210 -0.3199 -0.6027  0.2978
 7926TIP3   OH245192   2.657   3.134   1.213  0.9627  0.6448 -0.5667
 7926TIP3    H145193   2.625   3.172   1.131  1.6156  1.7106 -0.3258
 7926TIP3    H245194   2.581   3.088   1.249  0.6329  0.2889 -1.6899
 7927TIP3   OH245195   4.401   6.015  11.290  0.1153  0.3095 -0.0869
 7927TIP3    H145196   4.469   6.030  11.355  0.7171 -0.5198 -0.5167
 7927TIP3    H245197   4.416   5.925  11.259 -0.6087  0.4383 -0.8421
 7928TIP3   OH245198   0.576   0.256   5.504 -0.2718 -0.5011 -0.2200
 7928TIP3    H145199   0.619   0.261   5.419 -2.5655 -0.8602 -1.4338
 7928TIP3    H245200   0.532   0.171   5.504  0.5655 -0.9605  1.7564
 7929TIP3   OH245201   3.470   0.088   0.379  0.2388 -0.3895 -0.1637
 7929TIP3    H145202   3.389   0.127   0.346 -0.5908 -1.2813  0.7723
 7929TIP3    H245203   3.515   0.055   0.301  0.9092  2.2630 -0.9685
 7930TIP3   OH245204   6.582   0.480   1.262  0.2715 -0.2172  0.1556
 7930TIP3    H145205   6.541   0.491   1.176  0.5816  0.1181  0.0490
 7930TIP3    H245206   6.593   0.570   1.295 -1.1024 -0.4027  1.1374
 7931TIP3   OH245207   5.993   5.431   4.460  0.0999  0.1321  0.2682
 7931TIP3    H145208   6.083   5.428   4.492 -0.5943  2.7325  2.5450
 7931TIP3    H245209   5.938   5.421   4.538 -1.5916  2.6064 -0.5257
 7932TIP3   OH245210   2.243   2.532   3.737  0.1129 -0.0340 -0.1902
 7932TIP3    H145211   2.219   2.466   3.802  0.1312  1.5432  1.4788
 7932TIP3    H245212   2.161   2.574   3.714  0.5198  1.7643  1.4967
 7933TIP3   OH245213   0.669   5.600  14.741  0.1802  0.1819  0.1444
 7933TIP3    H145214   0.722   5.521  14.731 -0.8488 -0.3316 -1.4428
 7933TIP3    H245215   0.640   5.599  14.833  1.7670 -0.2393  0.6509
 7934TIP3   OH245216   5.143   4.394  15.546  0.0448 -0.2488 -0.0775
 7934TIP3    H145217   5.160   4.441  15.627  0.8659 -0.2808 -0.2186
 7934TIP3    H245218   5.073   4.443  15.503  0.0631  0.1412  0.3444
 7935TIP3   OH245219   5.360   3.260  16.029 -0.0443  0.2924  0.0812
 7935TIP3    H145220   5.439   3.285  15.982 -0.6722  1.8838 -0.1514
 7935TIP3    H245221   5.313   3.342  16.042 -1.1055 -0.4805  1.2349
 7936TIP3   OH245222   2.167   4.924  14.599  0.6140 -0.3886  0.4489
 7936TIP3    H145223   2.106   4.968  14.539  1.0527  0.8055  0.8642
 7936TIP3    H245224   2.211   4.996  14.645  2.5600 -1.2249 -0.0602
 7937TIP3   OH245225   0.771   1.126  11.185 -0.5898  0.7074 -0.7827
 7937TIP3    H145226   0.708   1.104  11.116 -3.4953  1.1160  1.6236
 7937TIP3    H245227   0.741   1.211  11.219 -0.0450 -0.0754  1.8158
 7938TIP3   OH245228   1.317   0.094   0.195 -0.7293  0.1133 -0.4315
 7938TIP3    H145229   1.309   0.061   0.106 -0.4359 -2.8693  0.5871
 7938TIP3    H245230   1.382   0.164   0.190  1.0899 -1.6558 -2.1585
 7939TIP3   OH245231   5.592   1.424  15.575 -0.5090  0.2221  0.4778
 7939TIP3    H145232   5.610   1.345  15.523  0.5441 -0.3057  1.6377
 7939TIP3    H245233   5.501   1.445  15.554 -1.0754 -1.7828  0.7905
 7940TIP3   OH245234   3.616   0.580   2.160 -0.2228 -0.4827  0.1055
 7940TIP3    H145235   3.574   0.557   2.077  1.3179 -0.0676 -0.8024
 7940TIP3    H245236   3.644   0.671   2.148 -0.0373 -0.4054  1.1118
 7941TIP3   OH245237   2.764   5.299   1.809 -0.1605 -0.0311  0.3764
 7941TIP3    H145238   2.720   5.351   1.876 -1.7045 -0.5399 -0.2283
 7941TIP3    H245239   2.733   5.335   1.726  0.5288 -0.4354 -0.0591
 7942TIP3   OH245240   1.160   4.978  12.545 -0.4807 -0.5517 -0.7402
 7942TIP3    H145241   1.173   5.073  12.539 -0.3435 -0.6366 -1.8053
 7942TIP3    H245242   1.081   4.968  12.598 -0.7877  0.1669 -1.0569
 7943TIP3   OH245243   1.392   2.530   3.119  0.4545 -0.4389 -0.2923
 7943TIP3    H145244   1.412   2.532   3.025 -1.4792  1.0246 -0.7053
 7943TIP3    H245245   1.412   2.619   3.150  0.0249 -0.6001  0.4565
 7944TIP3   OH245246   0.326   6.018  16.076  0.3170 -0.4421  0.5904
 7944TIP3    H145247   0.257   6.085  16.072  1.7330  1.1583  2.3497
 7944TIP3    H245248   0.279   5.935  16.072 -1.7989  0.6188  2.3717
 7945TIP3   OH245249   5.013   6.208  11.936 -0.1029  0.1742 -0.2284
 7945TIP3    H145250   4.950   6.273  11.969 -1.2091 -0.0383 -1.8390
 7945TIP3    H245251   5.099   6.243  11.960 -0.8577 -0.7898  4.3222
 7946TIP3   OH245252   4.420   3.948  12.930 -0.1502 -0.5470  0.7376
 7946TIP3    H145253   4.373   3.864  12.928 -0.4033 -0.4225  1.2915
 7946TIP3    H245254   4.350   4.014  12.932  0.0499 -0.3227  0.3309
 7947TIP3   OH245255   3.429   5.411   4.349  0.4612  0.0743 -0.5203
 7947TIP3    H145256   3.495   5.445   4.290 -0.4610 -1.1843 -2.3148
 7947TIP3    H245257   3.376   5.487   4.373 -0.4366  0.2635 -3.0033
 7948TIP3   OH245258   6.425   3.267  16.822 -0.0419 -0.6227 -0.1536
 7948TIP3    H145259   6.515   3.274  16.792 -0.2237  0.2304 -0.5195
 7948TIP3    H245260   6.431   3.228  16.909  0.5344 -2.6317 -1.0508
 7949TIP3   OH245261   2.011   3.088  11.828 -0.0317  0.2619  0.2804
 7949TIP3    H145262   2.048   3.031  11.896  0.0172 -0.5842 -0.4361
 7949TIP3    H245263   2.057   3.171  11.837  0.1186  0.0881  1.1445
 7950TIP3   OH245264   6.397   6.731   0.042  0.3976 -0.3922  0.4388
 7950TIP3    H145265   6.362   6.770   0.121 -1.8091 -0.5905 -0.4052
 7950TIP3    H245266   6.476   6.685   0.070  0.4641  0.8010  2.2277
 7951TIP3   OH245267   0.107   3.194   6.570  0.1392 -0.4221  0.3507
 7951TIP3    H145268   0.198   3.167   6.555  0.0716 -1.2275  1.3781
 7951TIP3    H245269   0.110   3.290   6.572  1.1744 -0.4747  1.6817
 7952TIP3   OH245270   1.307   2.555   4.929 -0.1479  0.0784  0.1264
 7952TIP3    H145271   1.234   2.537   4.988  1.2239 -1.9219  1.2933
 7952TIP3    H245272   1.322   2.649   4.938 -1.6734  0.2585  0.9368
 7953TIP3   OH245273   1.451   6.623   5.954 -0.4551 -0.0795 -0.0089
 7953TIP3    H145274   1.519   6.690   5.959 -0.5627 -0.0436  1.1657
 7953TIP3    H245275   1.470   6.576   5.873  0.1812  0.7716 -0.3637
 7954TIP3   OH245276   3.036   4.521   1.661 -0.2640 -0.5176  0.0359
 7954TIP3    H145277   3.057   4.479   1.577 -0.5593  0.7368 -0.6856
 7954TIP3    H245278   2.972   4.588   1.638  0.4614  0.5540  1.0992
 7955TIP3   OH245279   5.661   2.596   1.503 -0.4209 -0.3731  0.0271
 7955TIP3    H145280   5.650   2.502   1.514  0.2599 -0.8138 -2.7094
 7955TIP3    H245281   5.574   2.633   1.519 -1.0404 -1.6179 -0.4443
 7956TIP3   OH245282   1.060   4.589   2.378  0.1463 -0.1497 -0.3200
 7956TIP3    H145283   1.060   4.549   2.465  1.6757  1.0229  0.2331
 7956TIP3    H245284   0.986   4.649   2.379  0.9831  0.8781  0.6547
 7957TIP3   OH245285   0.179   2.076  16.433 -0.1041 -0.1164 -0.2135
 7957TIP3    H145286   0.156   2.003  16.490 -1.6811  1.9027  1.8429
 7957TIP3    H245287   0.123   2.065  16.356 -0.2221 -1.1405  0.0157
 7958TIP3   OH245288   0.632   0.916   2.238 -0.1349  0.7382 -0.2001
 7958TIP3    H145289   0.595   0.999   2.269 -0.8861  0.5846 -0.6779
 7958TIP3    H245290   0.596   0.850   2.297  0.3935  0.7378  0.1252
 7959TIP3   OH245291   0.403   5.266  16.876  0.2861  0.0096  0.5391
 7959TIP3    H145292   0.349   5.324  16.929  0.7648 -0.1850  1.2480
 7959TIP3    H245293   0.410   5.185  16.928 -0.0892 -0.5566 -0.2786
 7960TIP3   OH245294   5.280   2.384  16.339  0.0166 -0.5519 -0.2244
 7960TIP3    H145295   5.336   2.416  16.268 -0.1475 -2.1676 -1.1161
 7960TIP3    H245296   5.340   2.363  16.410  0.2780  0.2022 -0.2200
 7961TIP3   OH245297   0.602   2.458   5.567 -0.1606  0.5052 -0.3531
 7961TIP3    H145298   0.649   2.535   5.598 -1.1808  0.3749  1.6188
 7961TIP3    H245299   0.510   2.476   5.589 -0.0798 -2.4056  2.6380
 7962TIP3   OH245300   4.904   5.777  11.553 -0.2902  0.2666  0.2231
 7962TIP3    H145301   4.808   5.784  11.553 -0.3062  0.8626 -2.6228
 7962TIP3    H245302   4.933   5.848  11.611 -1.5647 -0.2811  1.5746
 7963TIP3   OH245303   1.447   2.097   3.013 -0.1628  0.7149 -0.5250
 7963TIP3    H145304   1.481   2.187   3.013  1.2358  0.2049 -1.2177
 7963TIP3    H245305   1.405   2.087   3.098 -0.0932  1.9343 -0.3351
 7964TIP3   OH245306   1.800   5.674  13.997 -1.0159  0.1630 -0.0599
 7964TIP3    H145307   1.855   5.631  13.932  1.1461 -0.0090  1.8286
 7964TIP3    H245308   1.808   5.768  13.977  0.1150  0.1500  0.3051
 7965TIP3   OH245309   5.903   0.837  11.302  0.4229 -0.2089  0.2233
 7965TIP3    H145310   5.989   0.860  11.267 -0.1972  1.2945 -0.3299
 7965TIP3    H245311   5.886   0.903  11.368 -0.4042 -0.3849  0.1856
 7966TIP3   OH245312   6.629   0.131   4.274  0.5087 -0.5052  0.5629
 7966TIP3    H145313   6.721   0.147   4.296  0.6892 -1.1520  0.2926
 7966TIP3    H245314   6.580   0.172   4.345  0.9696  0.6691  0.2256
 7967TIP3   OH245315   2.672   1.489  13.142  0.3177 -0.2790 -0.4145
 7967TIP3    H145316   2.597   1.548  13.132  1.2600  0.8799 -0.7423
 7967TIP3    H245317   2.692   1.492  13.236  0.6437  0.2748 -0.5011
 7968TIP3   OH245318   1.141   4.187   2.222 -0.2503  0.6601 -0.3738
 7968TIP3    H145319   1.056   4.209   2.183 -0.8454  0.2166  0.6426
 7968TIP3    H245320   1.204   4.199   2.151 -1.2384  0.4326 -1.3006
 7969TIP3   OH245321   3.639   2.194   2.985  0.2023 -0.1985 -0.2880
 7969TIP3    H145322   3.725   2.218   3.020 -0.0206  0.6261 -0.3066
 7969TIP3    H245323   3.621   2.259   2.917 -0.8045  0.1227  0.2777
 7970TIP3   OH245324   3.905   6.084  13.640 -0.3826 -0.1179  0.1236
 7970TIP3    H145325   4.001   6.084  13.635 -0.1397 -1.6818  3.2106
 7970TIP3    H245326   3.881   6.176  13.642  1.0586  0.2912 -0.5666
 7971TIP3   OH245327   2.043   0.527   1.129 -1.0687  1.1998  0.1028
 7971TIP3    H145328   2.040   0.529   1.224 -1.5085  0.4894  0.1050
 7971TIP3    H245329   1.986   0.454   1.104  1.3232 -0.4738 -0.5922
 7972TIP3   OH245330   0.630   3.874   3.532 -0.0015  0.1657 -0.4322
 7972TIP3    H145331   0.700   3.862   3.597  0.3570 -0.4358 -0.9248
 7972TIP3    H245332   0.674   3.864   3.447 -0.7839 -0.7582 -0.7292
 7973TIP3   OH245333   6.517   0.066  13.058  0.0145  0.3830 -0.1600
 7973TIP3    H145334   6.559   0.095  13.139  1.5061 -0.3925 -0.6537
 7973TIP3    H245335   6.585   0.019  13.010 -0.3606  2.2623 -2.6400
 7974TIP3   OH245336   3.054   5.388   1.718 -0.8387  0.1164  0.1081
 7974TIP3    H145337   3.124   5.330   1.746 -0.3166  0.9557  0.5701
 7974TIP3    H245338   2.974   5.335   1.722 -0.3859 -0.5209  0.6330
 7975TIP3   OH245339   1.750   6.032  15.810 -0.4080 -0.0720 -0.0964
 7975TIP3    H145340   1.709   5.964  15.757 -1.2856 -1.1409  1.8662
 7975TIP3    H245341   1.696   6.109  15.797  0.4488  0.2047 -2.1496
 7976TIP3   OH245342   6.658   5.377  15.521 -0.3045  0.4082  0.3531
 7976TIP3    H145343   6.692   5.420  15.599 -0.6671  0.4271  0.5031
 7976TIP3    H245344   6.564   5.368  15.538 -0.4021  0.5111 -0.1281
 7977TIP3   OH245345   5.358   5.639   0.666 -0.8270 -0.1713  0.1245
 7977TIP3    H145346   5.308   5.558   0.666 -0.8219 -0.2110 -2.6937
 7977TIP3    H245347   5.311   5.698   0.607  0.8678  0.7676 -0.3490
 7978TIP3   OH245348   4.856   3.168  10.321  0.2148  0.0236  0.3404
 7978TIP3    H145349   4.868   3.249  10.371  0.0302  0.1847  0.1176
 7978TIP3    H245350   4.814   3.108  10.383  1.1768 -0.1984  0.7985
 7979TIP3   OH245351   4.158   1.716   5.021 -0.0200  0.4706  0.3964
 7979TIP3    H145352   4.124   1.722   5.110 -0.1982  1.2453  0.2803
 7979TIP3    H245353   4.136   1.800   4.981  1.3517  0.6912  0.0812
 7980TIP3   OH245354   6.048   0.467   2.680 -0.3149  0.4368 -0.0267
 7980TIP3    H145355   6.128   0.461   2.732 -1.3131 -1.2067  1.3739
 7980TIP3    H245356   5.983   0.417   2.729 -2.6025  2.8670 -0.4206
 7981TIP3   OH245357   3.262   0.114   0.625  0.0699 -0.1680  0.3711
 7981TIP3    H145358   3.324   0.101   0.553 -1.4502 -0.1625 -0.9594
 7981TIP3    H245359   3.179   0.080   0.591 -0.7759  0.2927  1.9543
 7982TIP3   OH245360   1.626   1.475  15.557  0.1026 -0.2952  0.0556
 7982TIP3    H145361   1.665   1.550  15.602  0.2692 -0.5351  0.3045
 7982TIP3    H245362   1.560   1.515  15.500 -0.9394 -0.0859  1.3820
 7983TIP3   OH245363   0.039   2.398  13.953 -0.1080 -0.4104 -0.3793
 7983TIP3    H145364   0.110   2.429  14.010 -1.3327  2.8117 -0.5040
 7983TIP3    H245365  -0.041   2.429  13.996 -1.2446 -0.9422 -2.0695
 7984TIP3   OH245366   2.175   4.733  13.927  0.2571 -0.0483 -0.0921
 7984TIP3    H145367   2.201   4.642  13.935  1.6204  0.4846  1.8085
 7984TIP3    H245368   2.227   4.779  13.993 -1.9889  1.7785  0.4552
 7985TIP3   OH245369   6.471   6.637  14.522 -0.2786 -0.2113  0.2673
 7985TIP3    H145370   6.400   6.700  14.515  1.1491  1.3432 -0.5889
 7985TIP3    H245371   6.525   6.652  14.444  0.6216 -1.8014  0.5626
 7986TIP3   OH245372   3.953   0.711   1.632  0.5047 -0.4117  0.4268
 7986TIP3    H145373   3.876   0.762   1.605 -0.6514 -0.7803  2.8826
 7986TIP3    H245374   4.007   0.773   1.680  2.8536  0.3976 -3.0414
 7987TIP3   OH245375   1.577   4.684  15.222 -0.3718  0.3562  0.1615
 7987TIP3    H145376   1.494   4.725  15.197 -1.2889 -2.0388 -0.9227
 7987TIP3    H245377   1.552   4.597  15.253  1.7827 -0.6932 -0.9388
 7988TIP3   OH245378   0.507   4.881   3.765  0.4486 -0.1195 -0.0858
 7988TIP3    H145379   0.490   4.950   3.829 -1.1567 -1.6445  1.1931
 7988TIP3    H245380   0.450   4.809   3.792  0.2324 -1.0438 -2.8544
 7989TIP3   OH245381   5.448   0.058   2.601  0.4412 -0.5452 -0.2461
 7989TIP3    H145382   5.447   0.128   2.667  0.1201 -1.5828  0.8793
 7989TIP3    H245383   5.528   0.072   2.552  1.3026 -0.4484  1.1571
 7990TIP3   OH245384   4.936   4.382  12.214 -0.1179  0.2292  0.1468
 7990TIP3    H145385   5.002   4.315  12.231 -0.7681 -0.4510  0.0137
 7990TIP3    H245386   4.970   4.430  12.138  1.6400  1.7704  1.8549
 7991TIP3   OH245387   5.432   3.324  12.033 -0.1533 -0.0367  0.6984
 7991TIP3    H145388   5.470   3.253  11.982  2.9206  0.7414  1.7790
 7991TIP3    H245389   5.338   3.305  12.036  0.0461 -1.7286 -2.5780
 7992TIP3   OH245390   3.974   3.939  12.683  0.0036  0.4217 -0.8161
 7992TIP3    H145391   3.901   3.908  12.737  1.2452  0.7922  1.1170
 7992TIP3    H245392   3.932   3.968  12.602 -1.7784 -1.1438 -0.5056
 7993TIP3   OH245393   5.135   5.676   2.155  0.4399 -0.1084  0.1472
 7993TIP3    H145394   5.206   5.740   2.155 -1.6697  2.2821  0.3408
 7993TIP3    H245395   5.108   5.669   2.063 -0.9558  1.1704  0.4379
 7994TIP3   OH245396   5.036   2.087  12.640  0.8568  0.9749 -0.1747
 7994TIP3    H145397   4.982   2.008  12.645 -0.4532  1.6967 -2.6163
 7994TIP3    H245398   5.123   2.058  12.669 -0.1540 -0.8195  1.1628
 7995TIP3   OH245399   0.124   5.645   4.567  0.0181  0.4219 -0.6137
 7995TIP3    H145400   0.047   5.611   4.613  0.9053 -2.5025 -1.1740
 7995TIP3    H245401   0.194   5.641   4.632  0.1609  1.1328 -0.7219
 7996TIP3   OH245402   3.539   4.398  15.545 -0.0344  0.0534 -0.0874
 7996TIP3    H145403   3.499   4.364  15.465  0.8348 -0.3858 -0.3412
 7996TIP3    H245404   3.465   4.416  15.603 -0.5700 -1.3283 -0.3241
 7997TIP3   OH245405   1.468   0.687  16.595 -0.0923 -0.8768 -0.0577
 7997TIP3    H145406   1.552   0.641  16.606 -0.0923 -0.6148  1.0822
 7997TIP3    H245407   1.426   0.680  16.680 -2.1851 -2.8687 -1.2105
 7998TIP3   OH245408   1.555   2.514   1.932 -0.3013  0.3174  0.1346
 7998TIP3    H145409   1.472   2.550   1.898 -0.1016  0.8965  0.2524
 7998TIP3    H245410   1.610   2.505   1.854 -0.4292  0.0608  0.0746
 7999TIP3   OH245411   1.462   4.804   3.535 -0.8088 -0.1367 -0.3276
 7999TIP3    H145412   1.380   4.786   3.489 -0.6587 -0.1964 -0.5733
 7999TIP3    H245413   1.528   4.754   3.487 -0.5866  0.1169 -0.2881
 8000TIP3   OH245414   0.426   6.662   1.480 -0.0777 -0.0748  0.0376
 8000TIP3    H145415   0.471   6.586   1.442  0.4411  0.5668 -0.6449
 8000TIP3    H245416   0.349   6.675   1.425  0.2228  0.3354 -0.2919
 8001TIP3   OH245417   3.915   3.681  15.034 -0.2246 -0.2136  0.5980
 8001TIP3    H145418   4.006   3.686  15.061 -0.5076 -2.2105  1.9915
 8001TIP3    H245419   3.880   3.605  15.081 -1.8363 -1.2359 -2.1836
 8002TIP3   OH245420   3.046   4.361  14.584 -0.7159 -0.1077 -0.8167
 8002TIP3    H145421   2.995   4.424  14.534  1.5865  3.3738  1.0261
 8002TIP3    H245422   3.023   4.378  14.676 -0.1210 -2.0228 -0.2861
 8003TIP3   OH245423   3.820   4.257  17.051  0.1957 -0.1269 -0.0067
 8003TIP3    H145424   3.824   4.316  16.976  0.5348 -1.2257 -0.8601
 8003TIP3    H245425   3.728   4.253  17.074 -0.0529 -0.6685 -1.0818
 8004TIP3   OH245426   4.114   0.123  11.135  0.1969 -0.1016  0.5042
 8004TIP3    H145427   4.116   0.088  11.046  1.0489 -1.1887  0.9463
 8004TIP3    H245428   4.048   0.193  11.132  0.3015 -0.0620 -0.9993
 8005TIP3   OH245429   2.464   2.910   5.816  0.3296 -0.4565 -0.3125
 8005TIP3    H145430   2.527   2.955   5.872 -0.9924 -0.3544  1.1199
 8005TIP3    H245431   2.477   2.818   5.834  0.7844 -0.4947 -0.8119
 8006TIP3   OH245432   0.256   3.155   4.855 -0.1226  0.2506  1.0555
 8006TIP3    H145433   0.331   3.111   4.815 -0.6717  0.3898 -0.1527
 8006TIP3    H245434   0.198   3.175   4.782  0.3851  3.5734  1.4651
 8007TIP3   OH245435   3.735   3.210   3.565  0.6265  0.1102  0.4772
 8007TIP3    H145436   3.828   3.193   3.575  1.1475  3.2192  1.6359
 8007TIP3    H245437   3.721   3.216   3.470  1.5171 -0.7978  0.2918
 8008TIP3   OH245438   5.449   2.023   6.134 -0.3152  0.1002  0.3847
 8008TIP3    H145439   5.474   2.009   6.226 -0.3832 -2.2315  0.0960
 8008TIP3    H245440   5.361   2.061   6.138 -0.2069  0.2583  1.2914
 8009TIP3   OH245441   1.748   6.022   3.637  0.1685  0.0871 -0.5714
 8009TIP3    H145442   1.669   6.004   3.586  0.5062  1.3943 -1.5889
 8009TIP3    H245443   1.806   6.069   3.576  1.4813 -0.2980  0.3462
 8010TIP3   OH245444   0.991   6.159   2.688 -0.0534 -0.1877  0.3987
 8010TIP3    H145445   1.009   6.183   2.778 -0.0615 -1.2588  0.6933
 8010TIP3    H245446   1.076   6.139   2.650 -0.0202  0.5323  0.0837
 8011TIP3   OH245447   2.116   5.100  13.346  0.3197  0.3263 -0.3124
 8011TIP3    H145448   2.095   5.118  13.255 -0.7049  1.2282  0.0989
 8011TIP3    H245449   2.160   5.014  13.344 -0.2921  0.0354 -1.5568
 8012TIP3   OH245450   2.163   4.439  12.495 -0.0049  0.6622 -0.3942
 8012TIP3    H145451   2.166   4.480  12.582  1.5777  0.5078 -0.3576
 8012TIP3    H245452   2.226   4.367  12.501 -1.1929 -0.4520 -1.1314
 8013TIP3   OH245453   0.033   4.093   4.161 -0.1588 -0.3981  0.3976
 8013TIP3    H145454  -0.040   4.147   4.129 -0.7229 -1.5526 -0.2871
 8013TIP3    H245455   0.061   4.043   4.084 -1.2573 -2.8964  1.6052
 8014TIP3   OH245456   0.837   1.231   3.767 -0.0097  0.2553  0.7643
 8014TIP3    H145457   0.815   1.153   3.819 -0.9382  0.0798  0.1270
 8014TIP3    H245458   0.763   1.290   3.781  0.0121  0.4412  0.1144
 8015TIP3   OH245459   6.244   6.578   1.241 -0.6725 -0.2264  0.2627
 8015TIP3    H145460   6.282   6.648   1.294 -2.2576  0.8209  0.0622
 8015TIP3    H245461   6.227   6.507   1.303  1.0920 -0.5101  0.4391
 8016TIP3   OH245462   4.749   0.938   5.665 -0.2510 -0.4257  0.2527
 8016TIP3    H145463   4.828   0.915   5.714  0.0076 -1.0717 -0.4556
 8016TIP3    H245464   4.763   1.028   5.637  0.1665 -0.4902  0.2562
 8017TIP3   OH245465   2.470   3.787  12.389 -0.6478  0.2677 -0.2725
 8017TIP3    H145466   2.491   3.702  12.426  2.3828  1.2800  0.5228
 8017TIP3    H245467   2.410   3.827  12.452 -0.2794 -0.3914  0.4961
 8018TIP3   OH245468   3.395   4.863   3.943  0.4824  0.3744 -0.4046
 8018TIP3    H145469   3.481   4.840   3.909  1.2347  1.2335  0.9000
 8018TIP3    H245470   3.344   4.782   3.936  2.3718 -1.0661  1.8522
 8019TIP3   OH245471   2.740   0.616   1.444 -0.4562  0.2431  0.1639
 8019TIP3    H145472   2.719   0.541   1.500  1.3802  0.3191  0.9797
 8019TIP3    H245473   2.695   0.597   1.362  0.1725 -1.8912  0.2699
 8020TIP3   OH245474   1.626   4.956  12.040  0.1043 -0.0899  0.7243
 8020TIP3    H145475   1.603   4.921  11.954 -2.1542  1.6788  0.5469
 8020TIP3    H245476   1.719   4.979  12.033 -0.1069  0.2494 -1.3425
 8021TIP3   OH245477   4.200   3.738   1.707  0.7790  0.1668 -0.0429
 8021TIP3    H145478   4.108   3.748   1.730  0.2113 -0.0066 -2.0676
 8021TIP3    H245479   4.237   3.825   1.717  0.5702  0.0963  1.4357
 8022TIP3   OH245480   0.798   5.396   5.211 -0.1627 -0.1141 -0.0407
 8022TIP3    H145481   0.786   5.383   5.117  1.8692 -1.5513 -0.1398
 8022TIP3    H245482   0.876   5.345   5.233  1.1264  2.5221  1.8795
 8023TIP3   OH245483   4.868   1.624  11.628  0.2017  0.0700  0.4579
 8023TIP3    H145484   4.956   1.629  11.590  0.2698 -0.5714  0.5304
 8023TIP3    H245485   4.883   1.634  11.722  0.2316 -0.4078  0.5035
 8024TIP3   OH245486   2.492   2.855   3.093  0.1951 -0.1281  0.3771
 8024TIP3    H145487   2.485   2.863   2.998 -1.5786  1.1419  0.5877
 8024TIP3    H245488   2.416   2.902   3.127 -0.3276 -2.2945  2.3692
 8025TIP3   OH245489   0.519   6.299   3.512  0.1142 -0.0364 -0.3160
 8025TIP3    H145490   0.549   6.219   3.555  1.2856 -0.3684 -1.7140
 8025TIP3    H245491   0.478   6.269   3.431 -1.6570  0.6204  0.3068
 8026TIP3   OH245492   1.171   2.508  11.739  0.4158 -0.7735  0.1928
 8026TIP3    H145493   1.261   2.509  11.706  0.2095  0.9864 -0.3740
 8026TIP3    H245494   1.176   2.550  11.825  0.0732 -0.3576  0.0080
 8027TIP3   OH245495   6.406   6.286  10.816  0.3657  0.4102  0.0772
 8027TIP3    H145496   6.433   6.233  10.741  1.1384  0.4545  0.3206
 8027TIP3    H245497   6.401   6.375  10.781 -1.6853  0.0868 -0.5240
 8028TIP3   OH245498   6.259   1.763  10.795  0.1826 -0.5070 -0.1341
 8028TIP3    H145499   6.346   1.796  10.775  0.5691 -1.2744  0.2512
 8028TIP3    H245500   6.274   1.688  10.852 -0.7240 -0.7101 -0.1477
 8029TIP3   OH245501   4.966   3.567  10.708  0.1279  0.0758 -0.1895
 8029TIP3    H145502   5.046   3.515  10.711 -0.9263 -1.8845 -3.3835
 8029TIP3    H245503   4.996   3.658  10.710  2.2769 -0.6158  0.7123
 8030TIP3   OH245504   0.225   0.599  14.253 -0.4235 -0.4179  0.2343
 8030TIP3    H145505   0.231   0.676  14.310 -0.2934  1.0255 -1.6519
 8030TIP3    H245506   0.315   0.567  14.248  0.0878  1.2134 -1.4644
 8031TIP3   OH245507   2.131   0.862  13.004  0.4508 -0.1447  0.2321
 8031TIP3    H145508   2.053   0.807  13.007 -0.2197  0.7100 -1.1784
 8031TIP3    H245509   2.105   0.944  13.046  0.4787  0.2818 -0.5798
 8032TIP3   OH245510   5.854   0.963   2.160 -0.8361  0.0605  0.2453
 8032TIP3    H145511   5.844   0.883   2.109 -1.3052  0.3799 -0.1727
 8032TIP3    H245512   5.901   1.023   2.102  1.0554 -0.4773  1.1787
 8033TIP3   OH245513   4.029   3.779  10.196  0.2746  0.4378 -0.2159
 8033TIP3    H145514   3.997   3.689  10.200 -0.6594  0.8099  1.0780
 8033TIP3    H245515   4.115   3.776  10.239  0.3762  0.1019 -0.4479
 8034TIP3   OH245516   5.242   4.964  17.076  0.1638  0.1215  0.3493
 8034TIP3    H145517   5.169   5.014  17.113  1.3525  1.6289  0.7060
 8034TIP3    H245518   5.263   5.009  16.994 -0.7696 -1.6676 -0.9153
 8035TIP3   OH245519   1.548   4.101   1.161  0.8865  0.1152  1.0459
 8035TIP3    H145520   1.545   4.144   1.247 -2.5950  1.3264  0.4315
 8035TIP3    H245521   1.554   4.174   1.099 -0.1128 -0.5459  0.1632
 8036TIP3   OH245522   4.455   3.496   2.934  0.5077  0.2734 -0.1798
 8036TIP3    H145523   4.460   3.535   2.847  1.0249  2.0190  0.6148
 8036TIP3    H245524   4.520   3.425   2.932  1.0291  0.7659 -0.9947
 8037TIP3   OH245525   2.160   0.062  15.924  0.0230 -0.3238 -0.7111
 8037TIP3    H145526   2.077   0.082  15.880 -0.1527 -1.2305 -0.8050
 8037TIP3    H245527   2.135   0.020  16.006  0.3824 -1.0028 -0.9392
 8038TIP3   OH245528   0.526   4.599   4.247 -0.7463  0.0032  0.2460
 8038TIP3    H145529   0.449   4.655   4.255 -0.7903  0.2603 -1.7688
 8038TIP3    H245530   0.494   4.511   4.270 -2.0323 -0.1738 -2.0882
 8039TIP3   OH245531   4.603   5.131   3.745  0.2818  0.2126  0.5028
 8039TIP3    H145532   4.648   5.159   3.665 -3.5217  2.2510 -1.0420
 8039TIP3    H245533   4.577   5.041   3.728 -0.6610  0.6970 -0.6405
 8040TIP3   OH245534   2.519   3.773  12.981 -0.5068  0.2436 -0.4519
 8040TIP3    H145535   2.464   3.849  12.966  0.3752  0.9026 -0.4166
 8040TIP3    H245536   2.499   3.747  13.071  1.3589  2.2766  0.6048
 8041TIP3   OH245537   2.223   1.860   3.314  0.1102 -0.2230 -0.1042
 8041TIP3    H145538   2.268   1.781   3.346  0.1907  0.2833  1.0321
 8041TIP3    H245539   2.290   1.928   3.317 -0.7720  0.5983  1.8213
 8042TIP3   OH245540   3.067   5.849  12.335 -1.1109 -0.5061  0.4613
 8042TIP3    H145541   3.006   5.779  12.360 -1.8825  0.0164  0.0776
 8042TIP3    H245542   3.040   5.874  12.247  0.9960 -1.6838 -0.5500
 8043TIP3   OH245543   5.268   3.892   2.081  0.1367  0.1107 -0.6744
 8043TIP3    H145544   5.229   3.822   2.028  0.3934 -0.0900 -0.6044
 8043TIP3    H245545   5.357   3.901   2.047  0.8262 -1.1019  0.7373
 8044TIP3   OH245546   1.927   5.185   1.977 -0.2315 -0.1210 -0.1307
 8044TIP3    H145547   1.975   5.267   1.981  0.6586 -0.6867  1.4269
 8044TIP3    H245548   1.988   5.124   1.935 -0.9167  0.0179 -1.3526
 8045TIP3   OH245549   1.516   2.930  14.621 -0.3222  0.2376 -0.0336
 8045TIP3    H145550   1.565   2.879  14.556 -1.1697 -0.9959  0.2805
 8045TIP3    H245551   1.451   2.978  14.571  0.6559  1.2554 -0.3622
 8046TIP3   OH245552   0.672   3.913   6.893 -0.3523 -0.5538 -0.0253
 8046TIP3    H145553   0.644   3.983   6.834  1.1016 -0.1917 -0.2879
 8046TIP3    H245554   0.736   3.953   6.951 -0.8484 -1.2264  0.9954
 8047TIP3   OH245555   1.306   1.751   1.644 -0.2455  0.2434 -0.6716
 8047TIP3    H145556   1.349   1.834   1.663 -1.7087  0.7032  0.7649
 8047TIP3    H245557   1.296   1.709   1.730 -2.8859  0.2947 -0.9214
 8048TIP3   OH245558   3.656   1.136  16.134  0.6867  0.1751 -0.2503
 8048TIP3    H145559   3.582   1.137  16.195  0.0469  2.1347 -1.0005
 8048TIP3    H245560   3.629   1.196  16.064  2.2419 -0.5031 -1.4430
 8049TIP3   OH245561   6.378   1.919  14.551 -0.5510 -0.0675 -0.0442
 8049TIP3    H145562   6.314   1.849  14.552 -1.8543  1.1107  0.6821
 8049TIP3    H245563   6.431   1.905  14.630 -1.5354  0.4346  0.7024
 8050TIP3   OH245564   0.716   2.589  14.578  0.3879 -0.1940  0.0550
 8050TIP3    H145565   0.739   2.553  14.492 -0.8065  0.4132 -0.5255
 8050TIP3    H245566   0.624   2.616  14.569  0.2884 -0.0238  1.4861
 8051TIP3   OH245567   1.127   3.850  11.871 -0.0725  0.4029 -0.8333
 8051TIP3    H145568   1.149   3.805  11.952  1.0812  1.9254 -0.2693
 8051TIP3    H245569   1.034   3.870  11.878  0.3947  2.1003  0.9415
 8052TIP3   OH245570   4.490   4.904   3.641 -0.4439  0.2155 -0.1991
 8052TIP3    H145571   4.406   4.897   3.595 -0.3588 -1.3243 -0.1287
 8052TIP3    H245572   4.531   4.819   3.630  0.4596  0.4738  1.0561
 8053TIP3   OH245573   3.316   2.493   0.056 -0.2855 -0.1173 -0.4426
 8053TIP3    H145574   3.353   2.406   0.076  0.9489  0.4588 -0.1677
 8053TIP3    H245575   3.242   2.501   0.116  0.2658 -0.5296  0.3117
 8054TIP3   OH245576   3.045   3.661   4.702 -0.4606 -0.2666 -0.3360
 8054TIP3    H145577   2.978   3.652   4.770 -0.5169 -0.9911 -0.4840
 8054TIP3    H245578   3.115   3.711   4.744 -0.3745 -0.9423  0.3443
 8055TIP3   OH245579   0.134   1.824  12.211  0.0811 -0.4626 -0.0437
 8055TIP3    H145580   0.212   1.805  12.264  0.2739 -2.4057 -0.9596
 8055TIP3    H245581   0.064   1.834  12.275  0.6645 -0.9127  0.6822
 8056TIP3   OH245582   3.029   0.883  10.560 -0.2768 -0.3969  0.7242
 8056TIP3    H145583   3.027   0.957  10.499 -0.5618 -2.5559 -2.0032
 8056TIP3    H245584   3.120   0.852  10.557 -0.7946 -1.8654 -0.3409
 8057TIP3   OH245585   0.871   3.099   2.440  0.6077  0.0377  0.3193
 8057TIP3    H145586   0.855   3.161   2.512 -2.2925 -0.4417  0.1511
 8057TIP3    H245587   0.786   3.093   2.395  1.8638 -1.1786 -1.9570
 8058TIP3   OH245588   5.308   1.098  10.903  0.0168 -0.9017  0.2287
 8058TIP3    H145589   5.331   1.103  10.996  0.0254 -0.0081  0.1843
 8058TIP3    H245590   5.392   1.109  10.857 -0.1454 -0.1848  0.1015
 8059TIP3   OH245591   1.097   4.965  17.140 -0.0495  0.5127 -0.0848
 8059TIP3    H145592   1.122   4.940  17.229  1.6580 -0.7179 -0.8970
 8059TIP3    H245593   1.040   4.895  17.110  2.0588 -0.8143 -1.1406
 8060TIP3   OH245594   3.191   1.254  16.617 -0.8326  0.1012  0.3099
 8060TIP3    H145595   3.169   1.173  16.571 -0.0451  0.3193 -0.4586
 8060TIP3    H245596   3.112   1.308  16.608 -0.7656  0.0531 -0.6003
 8061TIP3   OH245597   0.102   4.170  14.710  0.1889  0.0525 -0.6584
 8061TIP3    H145598   0.121   4.078  14.694  1.9408  0.2706  0.0301
 8061TIP3    H245599   0.071   4.204  14.626  2.5239 -0.4399 -1.7506
 8062TIP3   OH245600   3.028   4.106   3.533  0.3693 -0.6204 -0.1550
 8062TIP3    H145601   3.114   4.140   3.556  0.6198 -1.2476 -0.1674
 8062TIP3    H245602   2.967   4.173   3.564  0.8794  0.0045 -0.4972
 8063TIP3   OH245603   5.816   0.625  12.598  0.3840  0.3365 -0.4703
 8063TIP3    H145604   5.776   0.623  12.511  0.3248  0.8560 -0.4562
 8063TIP3    H245605   5.898   0.577  12.588 -0.6832 -1.5885 -0.2693
 8064TIP3   OH245606   0.448   1.849  16.548  0.4466  0.7986 -0.2627
 8064TIP3    H145607   0.435   1.897  16.629  1.3577 -0.0197  0.3721
 8064TIP3    H245608   0.359   1.830  16.517  0.0924  1.6140  0.2224
 8065TIP3   OH245609   6.547   4.398   0.477 -0.3338 -0.1550  0.2484
 8065TIP3    H145610   6.513   4.321   0.432 -1.5537  1.5842 -1.9636
 8065TIP3    H245611   6.614   4.433   0.417 -1.3097  1.6720  0.1759
 8066TIP3   OH245612   3.766   0.934  11.362 -0.4837  0.2240 -0.1196
 8066TIP3    H145613   3.767   0.961  11.454 -0.4667 -1.1483  0.2941
 8066TIP3    H245614   3.852   0.894  11.347 -0.4028  0.6407 -0.8002
 8067TIP3   OH245615   5.250   3.842  11.459 -0.3161 -0.2179  0.1180
 8067TIP3    H145616   5.310   3.778  11.421  0.4250  1.2788 -1.2797
 8067TIP3    H245617   5.166   3.825  11.416  0.0480  0.1867 -0.7606
 8068TIP3   OH245618   0.993   1.301   4.288  0.3254  0.0432 -0.1210
 8068TIP3    H145619   0.949   1.238   4.344  0.3485  1.5783  1.6677
 8068TIP3    H245620   1.081   1.264   4.273  0.1412 -0.6096  0.4207
 8069TIP3   OH245621   6.155   4.839   1.536  0.8621  0.8258 -0.5528
 8069TIP3    H145622   6.103   4.882   1.604 -3.9036 -2.9406 -1.5681
 8069TIP3    H245623   6.231   4.804   1.582 -1.3477 -0.0732  2.5464
 8070TIP3   OH245624   0.822   5.173   5.499  0.2157  0.0286 -0.1850
 8070TIP3    H145625   0.760   5.106   5.527  0.2404  1.6596  4.1399
 8070TIP3    H245626   0.903   5.150   5.545  0.7014  2.0227 -0.0131
 8071TIP3   OH245627   6.551   4.470   1.498 -0.3985 -0.1505 -0.2836
 8071TIP3    H145628   6.481   4.471   1.563  0.2168  0.1303  0.3756
 8071TIP3    H245629   6.631   4.476   1.549  0.0430  1.7910 -1.1520
 8072TIP3   OH245630   6.170   6.404  12.995  0.4189  0.2652 -0.0731
 8072TIP3    H145631   6.149   6.493  12.966 -0.6210  0.0227 -0.0903
 8072TIP3    H245632   6.120   6.392  13.076  0.8891 -0.1537  0.1630
 8073TIP3   OH245633   6.459   5.399   1.139 -0.2780  0.5534 -0.0107
 8073TIP3    H145634   6.436   5.358   1.055  0.2154  0.2772 -0.0087
 8073TIP3    H245635   6.426   5.489   1.131  0.1497  0.6583 -0.6702
 8074TIP3   OH245636   0.752   2.204   2.252 -0.1683  0.1693 -0.5126
 8074TIP3    H145637   0.819   2.207   2.183 -2.7813  3.1988 -3.0278
 8074TIP3    H245638   0.743   2.294   2.282 -2.1019 -0.4297  0.8142
 8075TIP3   OH245639   5.843   6.449  15.831  0.3088 -0.3563 -0.0901
 8075TIP3    H145640   5.791   6.456  15.911  2.6491 -0.4211  1.4646
 8075TIP3    H245641   5.869   6.357  15.828  3.5825  0.4637  1.2738
 8076TIP3   OH245642   5.753   3.184  10.716 -0.7863 -0.0659 -0.0594
 8076TIP3    H145643   5.731   3.176  10.809  0.4682  0.8216  0.3277
 8076TIP3    H245644   5.705   3.113  10.674 -1.4987 -0.3757  1.2447
 8077TIP3   OH245645   5.900   3.737  11.467 -0.3233 -0.4792  0.1916
 8077TIP3    H145646   5.927   3.730  11.559  1.0816 -0.2071 -0.1957
 8077TIP3    H245647   5.836   3.808  11.466 -2.3701 -2.2359  1.3966
 8078TIP3   OH245648   0.403   1.496   3.633 -0.1132  0.4386 -0.1168
 8078TIP3    H145649   0.450   1.460   3.558 -2.3651  0.3636 -1.5206
 8078TIP3    H245650   0.472   1.521   3.695  1.7453  0.0008 -1.9742
 8079TIP3   OH245651   5.796   3.486  11.369  0.0695  0.2191  0.2086
 8079TIP3    H145652   5.732   3.505  11.300  1.0782 -0.8132 -1.0332
 8079TIP3    H245653   5.837   3.570  11.387 -0.3012  0.5245 -0.3500
 8080TIP3   OH245654   4.863   4.283  16.086 -0.3565 -0.0792 -0.2083
 8080TIP3    H145655   4.846   4.283  15.992 -1.3186 -1.9575 -0.0584
 8080TIP3    H245656   4.839   4.195  16.115  1.0792  0.0860  1.5926
 8081TIP3   OH245657   6.723   2.644   5.618  0.6195  0.1658 -0.0179
 8081TIP3    H145658   6.785   2.575   5.640 -0.1397 -1.0362 -1.5731
 8081TIP3    H245659   6.652   2.600   5.572 -0.0319  1.9257 -0.7744
 8082TIP3   OH245660   6.418   2.028  17.068 -0.0685  0.2158  0.4700
 8082TIP3    H145661   6.342   2.000  17.119 -0.4807  0.4193 -0.0332
 8082TIP3    H245662   6.440   1.953  17.013 -0.6867  0.5946 -0.3010
 8083TIP3   OH245663   0.710   3.374   2.478  0.0908 -0.3387  0.3923
 8083TIP3    H145664   0.650   3.434   2.523 -2.7164 -2.2726 -0.6417
 8083TIP3    H245665   0.673   3.364   2.390  1.1210 -2.7050  0.1875
 8084TIP3   OH245666   3.148   3.164  13.152 -0.2632  0.0976 -0.7785
 8084TIP3    H145667   3.163   3.259  13.162  1.6763 -0.3382  1.0400
 8084TIP3    H245668   3.118   3.136  13.239 -0.7576 -0.9538 -1.2887
 8085TIP3   OH245669   3.007   0.986   2.658 -0.1537  0.3316 -0.1065
 8085TIP3    H145670   3.024   0.897   2.688 -0.1992 -0.7166 -2.9486
 8085TIP3    H245671   2.927   1.013   2.703  0.3956 -0.6851  1.4957
 8086TIP3   OH245672   2.073   3.948   4.995 -0.1543 -0.6570  0.3230
 8086TIP3    H145673   2.002   3.938   4.933  0.7227 -1.2332 -0.6048
 8086TIP3    H245674   2.031   3.944   5.081 -1.2781 -0.6061 -0.2213
 8087TIP3   OH245675   2.023   6.532   4.310 -0.6469  0.2149  0.4345
 8087TIP3    H145676   2.078   6.562   4.383 -0.4334  1.9403 -0.3919
 8087TIP3    H245677   2.079   6.474   4.259  0.0458  1.0293  0.2532
 8088TIP3   OH245678   6.069   0.332  16.174 -0.1578  0.1302 -0.1202
 8088TIP3    H145679   6.113   0.328  16.259  1.1111  2.5924 -0.5964
 8088TIP3    H245680   6.113   0.266  16.120 -0.8171 -1.2800  1.0417
 8089TIP3   OH245681   2.183   1.695   0.518  0.3142  0.2779  0.3412
 8089TIP3    H145682   2.209   1.688   0.610  0.0689  1.1116  0.4746
 8089TIP3    H245683   2.215   1.780   0.490 -1.2134  0.8193  0.1760
 8090TIP3   OH245684   5.784   5.389   5.680  0.0010  0.0585  0.4439
 8090TIP3    H145685   5.763   5.321   5.616  1.8722 -1.1730  1.0735
 8090TIP3    H245686   5.747   5.356   5.762  0.7583 -0.1516  0.7139
 8091TIP3   OH245687   5.878   6.559  14.974  0.2890  0.3845  0.1403
 8091TIP3    H145688   5.876   6.584  14.882 -0.1528  0.8656  0.2779
 8091TIP3    H245689   5.873   6.642  15.022 -2.3149  0.0047  0.6121
 8092TIP3   OH245690   4.835   3.592   0.155  0.1269 -0.5540 -0.0675
 8092TIP3    H145691   4.798   3.508   0.125  0.9823 -1.2057  0.6712
 8092TIP3    H245692   4.781   3.616   0.230 -1.5039  0.6723 -1.5898
 8093TIP3   OH245693   5.430   0.534   2.840  0.5537  0.8735  0.2123
 8093TIP3    H145694   5.500   0.505   2.783 -0.8450 -0.3376 -0.9315
 8093TIP3    H245695   5.411   0.624   2.812 -0.6437  0.0226 -1.7709
 8094TIP3   OH245696   6.783   2.677   3.772  0.1288 -0.1073 -0.7462
 8094TIP3    H145697   6.740   2.595   3.793 -2.0289  1.6623  2.2404
 8094TIP3    H245698   6.805   2.715   3.858  3.4951  1.2293 -2.0981
 8095TIP3   OH245699   1.035   0.787   2.587 -0.1988 -0.4911  0.1112
 8095TIP3    H145700   0.979   0.857   2.552 -1.0219 -1.1053  0.1801
 8095TIP3    H245701   1.097   0.832   2.643 -0.5581  0.2187 -0.0478
 8096TIP3   OH245702   4.114   4.994  11.750 -0.3658 -0.0658 -0.5741
 8096TIP3    H145703   4.196   4.987  11.799 -2.0540 -0.5889  2.2795
 8096TIP3    H245704   4.115   5.082  11.714 -0.4220  1.4282  2.9308
 8097TIP3   OH245705   3.329   5.582  13.516  0.0899 -0.3633 -0.2369
 8097TIP3    H145706   3.410   5.610  13.474  0.2166  0.8438  0.7805
 8097TIP3    H245707   3.354   5.556  13.604 -0.6515  0.1801  0.1435
 8098TIP3   OH245708   4.918   3.460  14.653 -0.5202 -0.0292  0.4058
 8098TIP3    H145709   4.866   3.462  14.573 -1.9485 -1.0623  1.2700
 8098TIP3    H245710   4.892   3.538  14.701  0.9164  1.0010 -0.4846
 8099TIP3   OH245711   2.606   0.232  11.065  0.3154 -0.3107  0.1909
 8099TIP3    H145712   2.537   0.286  11.027  1.5772  1.5291  0.4457
 8099TIP3    H245713   2.593   0.145  11.026  0.9083  1.2202 -3.6377
 8100TIP3   OH245714   2.790   1.818   2.336 -0.0447 -0.3509 -0.2548
 8100TIP3    H145715   2.788   1.856   2.424  2.0333 -0.1823 -0.2463
 8100TIP3    H245716   2.883   1.812   2.315 -0.5191 -0.3674 -2.4620
 8101TIP3   OH245717   2.529   1.932  12.537 -0.3969 -0.6357  0.2229
 8101TIP3    H145718   2.543   1.977  12.454  0.2632 -1.0514  0.1063
 8101TIP3    H245719   2.445   1.887  12.527 -0.2406 -0.8164 -0.2724
 8102TIP3   OH245720   6.725   2.934  15.024  0.0216  0.0409  0.5131
 8102TIP3    H145721   6.734   2.974  15.110 -1.2593  0.7833  0.3151
 8102TIP3    H245722   6.810   2.947  14.982 -0.3174  2.4079  0.5236
 8103TIP3   OH245723   4.855   0.632   2.672 -0.2117 -0.3357  0.7501
 8103TIP3    H145724   4.858   0.539   2.697  1.1750 -0.5772 -0.2510
 8103TIP3    H245725   4.939   0.647   2.628 -1.5984  0.6619 -1.6354
 8104TIP3   OH245726   5.994   0.584   1.797  0.2055 -0.4820  0.2250
 8104TIP3    H145727   5.996   0.648   1.725  0.7443 -0.6837  0.0572
 8104TIP3    H245728   6.086   0.577   1.825  0.4423 -2.5421 -0.9702
 8105TIP3   OH245729   0.902   5.197  12.390 -0.2477  0.4259  0.4975
 8105TIP3    H145730   0.986   5.239  12.370 -0.8320  1.4953  0.2256
 8105TIP3    H245731   0.869   5.247  12.466 -1.1562  0.7434 -0.1010
 8106TIP3   OH245732   4.940   2.080   1.658 -0.8591  0.1906 -0.0356
 8106TIP3    H145733   4.885   2.154   1.684 -0.4006  0.5894 -0.2157
 8106TIP3    H245734   4.971   2.043   1.741 -0.2703  0.8130  0.0256
 8107TIP3   OH245735   2.995   4.125   5.221 -0.3454 -0.0607 -0.5896
 8107TIP3    H145736   2.931   4.192   5.197  0.0460 -0.2744 -2.3139
 8107TIP3    H245737   2.950   4.042   5.202  0.1063 -0.2244 -0.9740
 8108TIP3   OH245738   4.794   4.472  16.300 -0.1801 -0.0188 -0.4372
 8108TIP3    H145739   4.879   4.467  16.344 -0.3777 -3.3990 -0.2858
 8108TIP3    H245740   4.806   4.424  16.219 -1.6448  0.4869 -0.9763
 8109TIP3   OH245741   1.226   0.032   6.008 -0.3487  0.6056  0.0586
 8109TIP3    H145742   1.168  -0.025   6.058 -0.4550  1.7951  1.3314
 8109TIP3    H245743   1.314  -0.005   6.021 -0.6985 -0.7463 -1.2435
 8110TIP3   OH245744   4.676   0.616   4.944  0.4561  0.3062 -0.1920
 8110TIP3    H145745   4.622   0.556   4.893  0.4512 -0.7743  1.0737
 8110TIP3    H245746   4.743   0.561   4.984  0.0843  1.0383  1.4785
 8111TIP3   OH245747   0.314   6.729  14.389  0.5642  0.2314  0.1462
 8111TIP3    H145748   0.359   6.795  14.442  0.9603 -0.4922  0.7292
 8111TIP3    H245749   0.375   6.655  14.388  0.1151 -0.1282 -0.4862
 8112TIP3   OH245750   5.875   0.359   2.852  0.1647  0.1602 -0.8028
 8112TIP3    H145751   5.896   0.287   2.911  0.8700  0.8130 -0.2623
 8112TIP3    H245752   5.861   0.434   2.909  3.6474  1.5023 -1.5841
 8113TIP3   OH245753   4.462   4.058   2.821 -0.4825  0.0559 -0.2782
 8113TIP3    H145754   4.553   4.087   2.824 -0.1880 -0.7823 -0.8549
 8113TIP3    H245755   4.457   4.002   2.743 -1.5429  0.2714 -0.3786
 8114TIP3   OH245756   3.198   0.979   0.282  0.3689 -0.1239 -0.5993
 8114TIP3    H145757   3.127   0.923   0.314  1.1291 -0.6376  0.2107
 8114TIP3    H245758   3.222   0.942   0.197  0.0033 -0.2441 -0.6524
 8115TIP3   OH245759   0.370   4.137  16.760 -0.0667  0.1587 -0.3973
 8115TIP3    H145760   0.278   4.118  16.774 -0.0915 -0.0910 -0.8891
 8115TIP3    H245761   0.415   4.092  16.831 -0.2446 -0.5334 -0.7151
 8116TIP3   OH245762   3.307   1.967  15.365  0.0545 -0.0659  0.5889
 8116TIP3    H145763   3.231   1.916  15.338 -0.4798 -1.4195  4.3324
 8116TIP3    H245764   3.380   1.905  15.362 -0.1751 -0.5068  2.9017
 8117TIP3   OH245765   0.556   5.666  15.998  0.4035  0.7444 -0.3073
 8117TIP3    H145766   0.541   5.619  15.916  0.5879  1.1836 -0.5935
 8117TIP3    H245767   0.637   5.715  15.983 -0.1676  1.7030 -0.2570
 8118TIP3   OH245768   5.374   5.789  13.771 -0.1424  0.2190  0.2425
 8118TIP3    H145769   5.466   5.766  13.763 -0.4183 -0.0311 -2.5678
 8118TIP3    H245770   5.374   5.873  13.816  1.3715 -0.3257  1.3214
 8119TIP3   OH245771   0.968   0.135   3.311  0.1701  0.1509 -0.2774
 8119TIP3    H145772   1.033   0.116   3.379 -0.1633 -1.7204 -0.4702
 8119TIP3    H245773   1.020   0.155   3.233  0.5468 -1.7730 -0.5488
 8120TIP3   OH245774   0.895   6.049   1.577 -0.0600  0.2541 -0.4848
 8120TIP3    H145775   0.914   6.022   1.487 -0.5620  2.4201 -1.2513
 8120TIP3    H245776   0.799   6.049   1.582 -0.0326 -2.1813  0.7885
 8121TIP3   OH245777   2.254   5.616   2.143  0.7178  0.0466 -0.5008
 8121TIP3    H145778   2.186   5.568   2.191  1.3495  0.4725  0.8355
 8121TIP3    H245779   2.205   5.679   2.091  0.0043 -0.5570 -0.5767
 8122TIP3   OH245780   6.464   5.002   2.036 -0.1742 -0.1283 -0.0868
 8122TIP3    H145781   6.496   5.057   1.965 -1.5351  0.0101 -0.6162
 8122TIP3    H245782   6.395   5.055   2.077  0.0039 -0.5647  0.7746
 8123TIP3   OH245783   5.375   2.035  14.963  0.2344 -0.0754 -0.0175
 8123TIP3    H145784   5.462   2.014  14.930  0.0390 -0.0434 -0.5561
 8123TIP3    H245785   5.345   2.107  14.908 -1.9890 -3.0868 -2.9466
 8124TIP3   OH245786   0.642   2.010  11.846  0.1856 -0.1110 -0.0813
 8124TIP3    H145787   0.721   1.958  11.860  1.0713  1.6325  1.6458
 8124TIP3    H245788   0.654   2.047  11.759  1.1292 -0.1177  0.0343
 8125TIP3   OH245789   4.690   6.636  14.165 -0.0962  0.4784  0.1082
 8125TIP3    H145790   4.670   6.660  14.074 -0.5641  0.1315  0.1174
 8125TIP3    H245791   4.617   6.580  14.191  0.8019 -0.6487  0.2111
 8126TIP3   OH245792   2.055   2.624  12.246  0.0329 -0.2037  0.4076
 8126TIP3    H145793   2.120   2.631  12.176 -2.4991  0.8634 -1.8981
 8126TIP3    H245794   2.010   2.541  12.230  1.0390 -1.1491  2.2511
 8127TIP3   OH245795   5.235   2.748   2.899 -0.3382 -0.9225 -0.4070
 8127TIP3    H145796   5.316   2.780   2.941 -0.0753 -2.0227 -0.0570
 8127TIP3    H245797   5.165   2.798   2.942  0.0140 -1.2970  0.6198
 8128TIP3   OH245798   3.965   5.500   0.511  0.4358  0.6846 -0.2782
 8128TIP3    H145799   4.014   5.506   0.594  0.3917  1.0603 -0.2772
 8128TIP3    H245800   4.021   5.447   0.454  1.1251  1.6181 -0.4777
 8129TIP3   OH245801   0.164   0.501   3.125  0.1556 -0.1429  0.1648
 8129TIP3    H145802   0.177   0.427   3.066  1.3764 -0.4720  0.8316
 8129TIP3    H245803   0.078   0.486   3.164  0.4743 -1.3188  0.4426
 8130TIP3   OH245804   5.499   5.803  14.174  0.5566  0.3235  0.3489
 8130TIP3    H145805   5.437   5.752  14.124 -0.0105  1.9731 -0.6804
 8130TIP3    H245806   5.494   5.767  14.263  0.0603 -1.2595 -0.3052
 8131TIP3   OH245807   6.237   3.848  16.526  0.1559 -0.1584 -0.8241
 8131TIP3    H145808   6.283   3.853  16.443 -1.8401  2.1876 -1.8565
 8131TIP3    H245809   6.152   3.890  16.510 -0.5912 -0.3508  2.1696
 8132TIP3   OH245810   5.559   0.408  15.801 -0.3024 -0.4305 -0.1053
 8132TIP3    H145811   5.632   0.370  15.753  1.3222  1.2203  1.0326
 8132TIP3    H245812   5.580   0.393  15.893 -1.6861 -0.4613  0.2169
 8133TIP3   OH245813   5.561   2.759   4.072 -0.5342 -0.4144 -0.3718
 8133TIP3    H145814   5.615   2.828   4.035 -0.2311  0.7647  2.1981
 8133TIP3    H245815   5.620   2.709   4.128 -1.5183 -0.6077  0.5299
 8134TIP3   OH245816   5.461   6.005  15.864  0.5368  0.0872 -0.2494
 8134TIP3    H145817   5.514   5.969  15.936 -0.2536 -1.6612 -0.5235
 8134TIP3    H245818   5.375   6.021  15.902  0.5747  0.7048 -0.4075
 8135TIP3   OH245819   0.192   4.082   6.617 -0.1429 -0.3068  0.1665
 8135TIP3    H145820   0.171   4.083   6.710 -1.6496 -0.9999 -0.1456
 8135TIP3    H245821   0.207   4.174   6.595 -2.5238  0.2063  0.5233
 8136TIP3   OH245822   5.905   0.767  16.412 -0.1146 -0.2336  0.4664
 8136TIP3    H145823   5.940   0.815  16.336 -0.5362  1.6437  1.4133
 8136TIP3    H245824   5.971   0.781  16.481 -0.8482  0.0571  1.1134
 8137TIP3   OH245825   0.927   4.056   6.580  0.0824 -0.0324 -0.4760
 8137TIP3    H145826   1.003   4.067   6.523  1.2355  0.2383  1.0561
 8137TIP3    H245827   0.941   3.970   6.621 -0.1651  0.2434  0.1877
 8138TIP3   OH245828   5.870   3.229  15.484  0.2548  0.0665 -0.0537
 8138TIP3    H145829   5.920   3.275  15.417  1.4250 -1.0346  0.0548
 8138TIP3    H245830   5.856   3.141  15.448  0.7935 -0.4909  1.0760
 8139TIP3   OH245831   4.268   1.896   2.847  0.8429  0.5195 -0.1606
 8139TIP3    H145832   4.206   1.963   2.876  0.9310  0.1716  0.8387
 8139TIP3    H245833   4.295   1.851   2.927  1.0080 -0.5242 -0.7877
 8140TIP3   OH245834   3.189   4.591   2.109 -0.1623 -0.3990  0.5989
 8140TIP3    H145835   3.255   4.645   2.151  1.0690  0.2552 -2.0679
 8140TIP3    H245836   3.144   4.650   2.048 -1.6042 -1.4061  0.6449
 8141TIP3   OH245837   0.171   2.332   3.787  0.1436 -0.1300  0.0844
 8141TIP3    H145838   0.230   2.257   3.788  0.1140 -0.1502  0.7786
 8141TIP3    H245839   0.139   2.336   3.697  0.2000 -0.9017  0.0243
 8142TIP3   OH245840   1.317   3.388  12.974  0.2583 -0.2116  0.6066
 8142TIP3    H145841   1.311   3.295  12.996 -0.5116 -0.1765  0.5600
 8142TIP3    H245842   1.411   3.405  12.966  0.3753 -1.1561 -0.1156
 8143TIP3   OH245843   4.080   2.003  16.600  0.0851  0.5961  0.0654
 8143TIP3    H145844   4.080   1.962  16.686  2.0601  2.3027  0.9207
 8143TIP3    H245845   4.059   2.095  16.617 -1.3044  0.6013 -1.4930
 8144TIP3   OH245846   4.456   3.403  16.858  0.0516 -0.6817 -0.1321
 8144TIP3    H145847   4.383   3.404  16.920 -0.5660 -1.1248 -0.8411
 8144TIP3    H245848   4.516   3.338  16.893  0.8987  0.8393  1.3313
 8145TIP3   OH245849   5.954   1.122  11.951 -0.2734  0.1953 -0.4878
 8145TIP3    H145850   5.953   1.039  11.999  1.9471 -0.1322 -0.9499
 8145TIP3    H245851   5.930   1.097  11.861  0.7374 -0.0150 -0.7050
 8146TIP3   OH245852   0.552   1.125   3.163  0.6776 -0.0942 -0.2447
 8146TIP3    H145853   0.627   1.089   3.212  1.1208  2.2392  0.8810
 8146TIP3    H245854   0.591   1.166   3.086  0.4413  0.1723 -0.2227
 8147TIP3   OH245855   5.815   2.241   1.182  0.2706  0.0676 -0.1344
 8147TIP3    H145856   5.850   2.214   1.097  0.2892 -0.3984  0.0142
 8147TIP3    H245857   5.738   2.294   1.161  0.8180  0.7424 -0.4568
 8148TIP3   OH245858   5.079   1.731   3.027 -0.2116  0.1074  0.0419
 8148TIP3    H145859   5.090   1.825   3.044  0.4518 -0.3532  2.2875
 8148TIP3    H245860   5.166   1.694   3.041 -0.6672 -0.9713  0.0197
 8149TIP3   OH245861   4.874   6.027  14.865 -0.2895  0.3543 -0.4793
 8149TIP3    H145862   4.802   6.071  14.819 -1.5266 -0.7492  0.3280
 8149TIP3    H245863   4.910   5.966  14.801 -0.2413  0.7297 -0.8115
 8150TIP3   OH245864   5.605   2.674  11.696  0.8847  0.3600 -0.6153
 8150TIP3    H145865   5.613   2.712  11.784  1.0269 -1.2840  0.1111
 8150TIP3    H245866   5.524   2.712  11.661 -0.8677 -1.3166  1.4667
 8151TIP3   OH245867   5.900   2.120  16.499 -0.1125 -0.4370 -0.5167
 8151TIP3    H145868   5.978   2.108  16.445 -0.6273  0.7494 -1.5477
 8151TIP3    H245869   5.928   2.180  16.568  0.5062 -1.8380  0.4731
 8152TIP3   OH245870   1.195   1.851   3.735  0.4045  0.7336 -0.0879
 8152TIP3    H145871   1.185   1.946   3.727  0.1275  0.5906 -1.6172
 8152TIP3    H245872   1.117   1.815   3.692  2.3445 -0.2410 -2.9195
 8153TIP3   OH245873   4.463   1.105  14.083  0.3071 -0.7333 -0.5540
 8153TIP3    H145874   4.443   1.097  14.176  0.5156 -0.0525 -0.4503
 8153TIP3    H245875   4.377   1.111  14.040  0.2229 -0.6299 -0.3681
 8154TIP3   OH245876   5.643   4.238   5.194  0.3625  0.5001  0.1706
 8154TIP3    H145877   5.738   4.227   5.195  0.4704  1.4946  1.4201
 8154TIP3    H245878   5.612   4.194   5.273 -0.0418  1.5426  0.6104
 8155TIP3   OH245879   0.487   6.499   0.994 -0.5363 -0.6591 -0.3024
 8155TIP3    H145880   0.531   6.472   0.913 -0.6817 -1.6093 -0.0799
 8155TIP3    H245881   0.394   6.487   0.977 -0.5640 -0.9453  0.0259
 8156TIP3   OH245882   1.604   5.635  12.504  0.1215  0.4561  0.0993
 8156TIP3    H145883   1.638   5.700  12.566 -0.8974 -0.7310  1.9303
 8156TIP3    H245884   1.681   5.605  12.456  0.7561  2.2380 -0.0379
 8157TIP3   OH245885   1.348   2.587  15.125  0.0392 -0.0555 -0.2999
 8157TIP3    H145886   1.302   2.671  15.123 -0.2490 -0.0990  2.6688
 8157TIP3    H245887   1.440   2.610  15.112 -0.0131  0.7531  0.6845
 8158TIP3   OH245888   0.384   2.403  14.932 -0.5653  0.0471  0.1669
 8158TIP3    H145889   0.472   2.436  14.950 -0.7042 -0.0357  1.0288
 8158TIP3    H245890   0.334   2.480  14.907 -0.3910  0.1828  0.2400
 8159TIP3   OH245891   1.887   1.905  13.068 -0.2385 -0.1199  0.2156
 8159TIP3    H145892   1.950   1.972  13.040  0.2215 -0.5871  0.1208
 8159TIP3    H245893   1.910   1.828  13.016  0.0248 -0.7165  1.2043
 8160TIP3   OH245894   2.222   4.374  12.108 -0.0344  0.3287 -0.2937
 8160TIP3    H145895   2.239   4.463  12.077 -1.6584  0.8831  0.3499
 8160TIP3    H245896   2.188   4.328  12.031 -1.1715  0.8511 -0.1081
 8161TIP3   OH245897   0.535   3.511  16.021  0.4713 -0.0215 -0.2710
 8161TIP3    H145898   0.608   3.504  16.083 -0.1061 -0.8536  0.3249
 8161TIP3    H245899   0.559   3.453  15.949 -0.2820 -1.4582  0.6199
 8162TIP3   OH245900   2.126   5.223   4.873  0.1626 -0.1001  0.1070
 8162TIP3    H145901   2.100   5.313   4.892 -0.6509  0.2547 -2.4255
 8162TIP3    H245902   2.209   5.231   4.827  1.1281 -0.7948  1.6953
 8163TIP3   OH245903   1.225   4.196  16.255  0.0436 -0.1462 -0.0764
 8163TIP3    H145904   1.183   4.214  16.171  1.3380 -0.8319 -0.8799
 8163TIP3    H245905   1.244   4.282  16.292  0.4937  0.1585 -1.0046
 8164TIP3   OH245906   3.509   2.014  12.461  0.2025  0.6713 -0.5465
 8164TIP3    H145907   3.589   2.001  12.410 -0.6627  0.9442 -2.0013
 8164TIP3    H245908   3.513   1.946  12.529  1.1789  0.0443 -1.2072
 8165TIP3   OH245909   3.444   0.665   2.694  0.2112  0.3153 -0.0726
 8165TIP3    H145910   3.458   0.653   2.600  2.0307 -0.8369  0.3195
 8165TIP3    H245911   3.432   0.760   2.704 -0.5443  0.3895 -1.5264
 8166TIP3   OH245912   6.614   1.055   2.668 -0.1925  0.4507 -0.7670
 8166TIP3    H145913   6.682   1.100   2.618 -1.0673 -0.0582 -2.4793
 8166TIP3    H245914   6.658   0.978   2.704  1.0994  2.1981  1.4973
 8167TIP3   OH245915   1.675   6.120  11.665  0.0407  0.1359  0.5124
 8167TIP3    H145916   1.612   6.069  11.717  1.7721 -2.1289  0.4798
 8167TIP3    H245917   1.689   6.066  11.587  1.0918  1.2076 -0.0436
 8168TIP3   OH245918   2.084   3.583  14.283  0.6671  0.1778  0.0779
 8168TIP3    H145919   2.116   3.498  14.252  0.4818  0.3426 -0.5895
 8168TIP3    H245920   2.058   3.629  14.203  0.6088  0.7986  0.4484
 8169TIP3   OH245921   2.037   3.338  12.484 -0.5276 -0.2008 -0.1895
 8169TIP3    H145922   2.005   3.404  12.545  2.2230  0.2939  0.8050
 8169TIP3    H245923   2.019   3.375  12.397 -1.2003  0.7476  0.3432
 8170TIP3   OH245924   2.766   3.565   4.558  0.3329 -0.1720 -0.0626
 8170TIP3    H145925   2.736   3.478   4.531  0.8426 -0.2299 -0.4609
 8170TIP3    H245926   2.839   3.584   4.500  0.9385  0.0494  0.7638
 8171TIP3   OH245927   6.307   4.296   2.077  0.5046  0.2253  1.0920
 8171TIP3    H145928   6.313   4.320   2.170  1.8039  0.7013  0.8921
 8171TIP3    H245929   6.398   4.289   2.049  0.1215  1.8248 -0.6039
 8172TIP3   OH245930   2.714   3.105   4.237 -0.3390  0.3845 -0.0809
 8172TIP3    H145931   2.668   3.189   4.228 -0.2081  0.4890  0.2027
 8172TIP3    H245932   2.676   3.067   4.316  0.0826  0.4825  0.1689
 8173TIP3   OH245933   0.131   0.000   5.683 -0.4563  0.0286  0.0850
 8173TIP3    H145934   0.067   0.071   5.675 -0.9691 -0.2097  1.7386
 8173TIP3    H245935   0.131  -0.021   5.777  1.2610 -0.7060 -0.0642
 8174TIP3   OH245936   0.812   3.300   4.157  0.2523  0.2156 -0.5519
 8174TIP3    H145937   0.755   3.331   4.228 -0.6808 -1.5340 -0.5089
 8174TIP3    H245938   0.825   3.377   4.101 -0.7825  1.0616  0.3440
 8175TIP3   OH245939   0.791   3.034  14.032 -0.8339  0.4991  0.5566
 8175TIP3    H145940   0.797   3.118  13.987  1.2979  0.5482  0.8627
 8175TIP3    H245941   0.768   2.971  13.964  0.4039  0.8941 -0.2422
 8176TIP3   OH245942   5.560   0.005  14.058  0.1580 -0.5005  0.2052
 8176TIP3    H145943   5.530   0.095  14.047 -0.7928 -0.5791  2.0460
 8176TIP3    H245944   5.562  -0.030  13.968 -1.6108  0.6781 -0.3287
 8177TIP3   OH245945   1.527   3.487   2.649 -0.7793 -0.4920 -0.1347
 8177TIP3    H145946   1.453   3.492   2.710 -0.9822  0.1076 -0.4220
 8177TIP3    H245947   1.584   3.560   2.675 -0.3121 -0.9308  0.0611
 8178TIP3   OH245948   1.597   0.611   0.992  0.2270 -0.1905  0.3904
 8178TIP3    H145949   1.559   0.682   1.045  2.2684  2.6678 -1.7843
 8178TIP3    H245950   1.692   0.619   1.007  0.6508 -0.9114 -1.7276
 8179TIP3   OH245951   1.098   1.420   2.078  0.1066 -0.5826 -0.4432
 8179TIP3    H145952   1.028   1.475   2.114  1.2304  0.6848 -0.1219
 8179TIP3    H245953   1.097   1.439   1.984  0.8984  0.5105 -0.2502
 8180TIP3   OH245954   1.290   6.107  14.824  0.0759 -0.6217  0.3860
 8180TIP3    H145955   1.357   6.159  14.868  0.6713 -1.7844  0.8723
 8180TIP3    H245956   1.216   6.107  14.884  0.6870 -1.7395  1.1593
 8181TIP3   OH245957   5.297   5.256  13.045 -0.2926  0.0972 -0.5788
 8181TIP3    H145958   5.252   5.340  13.056 -2.0762 -0.8855 -0.1646
 8181TIP3    H245959   5.356   5.271  12.971  0.0541  1.9748  0.0348
 8182TIP3   OH245960   3.055   2.426   0.189  0.1671 -0.3124  0.0377
 8182TIP3    H145961   3.084   2.441   0.279 -1.6442  0.3324  0.5453
 8182TIP3    H245962   3.043   2.331   0.184  0.5490 -0.3784  0.3983
 8183TIP3   OH245963   4.355   6.610   4.849 -0.2852  0.3135  0.4520
 8183TIP3    H145964   4.422   6.598   4.916  0.4759  0.5955 -0.2496
 8183TIP3    H245965   4.311   6.691   4.874 -0.6838 -0.1190  1.1770
 8184TIP3   OH245966   1.236   0.072   5.709  0.6854  0.5162 -0.1287
 8184TIP3    H145967   1.242   0.087   5.803 -1.8062  1.2984 -0.0748
 8184TIP3    H245968   1.233   0.160   5.671 -0.6225  0.2084 -0.7623
 8185TIP3   OH245969   1.028   4.440  13.086 -0.5939  0.2855 -0.1801
 8185TIP3    H145970   1.103   4.391  13.120 -1.6740  0.9573  3.3890
 8185TIP3    H245971   1.005   4.395  13.005  1.3800 -2.1993  0.5588
 8186TIP3   OH245972   3.999   0.911  10.897 -0.0608  0.7100 -0.1397
 8186TIP3    H145973   4.078   0.949  10.859 -1.9582  2.8047 -2.1236
 8186TIP3    H245974   3.928   0.967  10.867 -2.3154 -0.9978  1.7699
 8187TIP3   OH245975   0.002   4.320   3.453 -0.5354 -0.4713 -0.8680
 8187TIP3    H145976  -0.040   4.327   3.539  0.0988 -0.4992 -0.5583
 8187TIP3    H245977   0.052   4.239   3.457  0.0681 -0.1054 -1.0137
 8188TIP3   OH245978   2.269   1.743  14.780 -0.2071  0.2491 -0.1313
 8188TIP3    H145979   2.178   1.755  14.751  0.1272 -1.0524 -1.7506
 8188TIP3    H245980   2.261   1.730  14.875 -1.5497  1.8359  0.0016
 8189TIP3   OH245981   3.406   1.183  14.717 -0.2610 -0.4836  0.5661
 8189TIP3    H145982   3.332   1.176  14.656 -1.2761  0.5389  1.6557
 8189TIP3    H245983   3.478   1.215  14.663 -0.7151 -1.1461 -0.4410
 8190TIP3   OH245984   6.730   5.177   4.363 -0.2936 -0.0820 -0.8900
 8190TIP3    H145985   6.816   5.137   4.380 -0.1046  0.2190 -1.1256
 8190TIP3    H245986   6.711   5.229   4.441 -0.4984 -0.5562 -0.6200
 8191TIP3   OH245987   3.308   2.817  16.799  0.1246 -0.1149  0.1568
 8191TIP3    H145988   3.370   2.744  16.788 -0.8850 -0.8829 -0.5177
 8191TIP3    H245989   3.275   2.834  16.710 -0.7778  0.1563  0.5384
 8192TIP3   OH245990   0.108   6.667   4.723 -0.9679  0.4316  0.5021
 8192TIP3    H145991   0.174   6.728   4.689 -1.3781  1.0211  0.7722
 8192TIP3    H245992   0.146   6.581   4.706  0.5012  0.7810  1.8746
 8193TIP3   OH245993   6.108   4.239  11.188  0.2446  0.3490 -0.3938
 8193TIP3    H145994   6.169   4.266  11.120  0.9544 -1.1109 -0.3528
 8193TIP3    H245995   6.133   4.149  11.209 -1.6481 -0.1201 -0.0590
 8194TIP3   OH245996   4.852   3.368   2.106  0.4910  0.3053 -0.4902
 8194TIP3    H145997   4.883   3.344   2.018 -1.1767  0.5369 -1.1646
 8194TIP3    H245998   4.796   3.444   2.091  0.0545  0.2326  0.7509
 8195TIP3   OH245999   2.418   5.911  13.807  0.1509 -0.2967 -0.2039
 8195TIP3    H146000   2.327   5.881  13.815  0.3211 -1.1250 -1.2132
 8195TIP3    H246001   2.418   5.965  13.728  0.4097  0.2205  0.1486
 8196TIP3   OH246002   4.810   6.785   5.737  0.1568 -0.6620 -0.4530
 8196TIP3    H146003   4.718   6.806   5.722  0.3982  2.4395  1.8715
 8196TIP3    H246004   4.809   6.722   5.809 -0.1539  0.4477  0.5456
 8197TIP3   OH246005   4.727   2.912   0.043 -0.1416 -0.5445 -0.5895
 8197TIP3    H146006   4.808   2.962   0.031 -1.0712  0.9957 -0.5656
 8197TIP3    H246007   4.753   2.836   0.095  1.4373 -0.4954 -1.2704
 8198TIP3   OH246008   3.797   1.555  11.429 -0.2146 -0.7593 -0.1803
 8198TIP3    H146009   3.782   1.555  11.524  0.9589  1.3363  0.0520
 8198TIP3    H246010   3.709   1.549  11.391 -1.1090  2.7566  1.0877
 8199TIP3   OH246011   3.850   3.600  14.117  0.0382  0.3095 -0.4451
 8199TIP3    H146012   3.894   3.533  14.065 -3.2690 -1.4789 -1.0778
 8199TIP3    H246013   3.806   3.655  14.052  0.9796  1.8638  0.1955
 8200TIP3   OH246014   2.417   6.754  12.509 -0.3081 -0.3722  0.3561
 8200TIP3    H146015   2.372   6.785  12.430  0.0788 -1.2683 -0.2237
 8200TIP3    H246016   2.362   6.682  12.541 -0.2403 -0.2862  0.6707
 8201TIP3   OH246017   5.368   0.707   5.520  0.0684  0.2245 -0.4795
 8201TIP3    H146018   5.361   0.649   5.445 -0.2577  0.2691 -0.4853
 8201TIP3    H246019   5.277   0.722   5.547  0.2114 -0.5027  0.4654
 8202TIP3   OH246020   4.667   5.623   1.179  0.6072  0.1303  0.7145
 8202TIP3    H146021   4.584   5.670   1.174  0.9936  0.6446 -1.2147
 8202TIP3    H246022   4.734   5.692   1.172  1.1998 -0.3574  1.4733
 8203TIP3   OH246023   4.486   3.715   3.085 -0.5111  0.2099 -0.2776
 8203TIP3    H146024   4.480   3.627   3.050 -0.2539 -0.1415  0.5558
 8203TIP3    H246025   4.419   3.765   3.038 -0.3858 -0.3340 -1.0240
 8204TIP3   OH246026   4.687   2.358   2.101  0.6907 -0.0814 -0.2787
 8204TIP3    H146027   4.781   2.345   2.117  0.9445  2.4787  0.5382
 8204TIP3    H246028   4.646   2.344   2.187  0.3588 -0.8964 -0.5683
 8205TIP3   OH246029   0.603   1.466  16.440 -0.1011  0.0239 -0.0569
 8205TIP3    H146030   0.589   1.560  16.429  2.1166  0.4894  0.8472
 8205TIP3    H246031   0.671   1.460  16.507  0.1521 -2.2138 -0.4965
 8206TIP3   OH246032   0.182   5.410  16.468 -0.7713 -0.3408  0.2002
 8206TIP3    H146033   0.124   5.442  16.398  0.2696 -0.6401 -0.8051
 8206TIP3    H246034   0.269   5.407  16.428 -1.1025 -6.4576 -0.4221
 8207TIP3   OH246035   3.890   5.759   5.206 -0.0273 -0.5553  0.2900
 8207TIP3    H146036   3.964   5.707   5.176  0.6760  1.1614 -1.0479
 8207TIP3    H246037   3.922   5.803   5.284  0.1272 -0.3817  0.1297
 8208TIP3   OH246038   3.497   2.162   0.766 -0.8833  0.2501  0.6306
 8208TIP3    H146039   3.514   2.209   0.848  0.5293  0.1652  0.4026
 8208TIP3    H246040   3.568   2.097   0.761 -2.0469 -1.0154  0.2801
 8209TIP3   OH246041   3.208   1.969  14.773 -0.8513 -0.0783 -0.6002
 8209TIP3    H146042   3.194   1.978  14.867 -0.5016 -0.4366 -0.5156
 8209TIP3    H246043   3.299   1.995  14.759 -0.4562 -1.4463 -0.6390
 8210TIP3   OH246044   6.231   1.896   4.207 -0.7552  0.4380 -0.0890
 8210TIP3    H146045   6.275   1.975   4.239  0.0817  0.2262 -0.7042
 8210TIP3    H246046   6.144   1.901   4.245 -0.0187  0.5690  1.6167
 8211TIP3   OH246047   2.489   4.259  15.293 -0.4537 -0.6231  0.0779
 8211TIP3    H146048   2.517   4.177  15.252 -1.3264 -0.9475  0.1063
 8211TIP3    H246049   2.394   4.249  15.303 -0.4977  0.1951  0.5252
 8212TIP3   OH246050   2.811   4.803   3.571 -0.1034 -0.1433 -0.6997
 8212TIP3    H146051   2.757   4.834   3.498  1.6827 -2.5656 -3.1301
 8212TIP3    H246052   2.874   4.744   3.531  0.6034 -1.9748  2.9220
 8213TIP3   OH246053   1.718   1.995   3.184  0.3810 -0.6065  0.5872
 8213TIP3    H146054   1.668   1.913   3.172  1.4019 -1.2575  0.7214
 8213TIP3    H246055   1.796   1.968   3.233 -0.2297  0.7929  2.4028
 8214TIP3   OH246056   2.847   2.457  13.263 -0.3699  0.3731 -0.2076
 8214TIP3    H146057   2.763   2.428  13.227 -0.0944  1.1999 -1.5622
 8214TIP3    H246058   2.910   2.442  13.193  0.9602 -1.8225  1.3869
 8215TIP3   OH246059   6.745   3.668   0.069  0.7271 -0.3935  0.3369
 8215TIP3    H146060   6.733   3.642  -0.022 -1.1861  1.3994  0.0423
 8215TIP3    H246061   6.664   3.642   0.113  1.4005 -0.7268  1.4185
 8216TIP3   OH246062   0.498   3.808   2.127 -0.5055  0.7341 -0.6439
 8216TIP3    H146063   0.472   3.775   2.041 -2.4260 -0.1599  0.2342
 8216TIP3    H246064   0.492   3.903   2.119 -1.1441  0.6440 -1.3591
 8217TIP3   OH246065   1.441   0.378   0.001 -0.3377  0.2773 -0.0480
 8217TIP3    H146066   1.413   0.455  -0.049 -0.3558  1.0171  1.0757
 8217TIP3    H246067   1.480   0.319  -0.064 -0.0775  1.3508 -0.8758
 8218TIP3   OH246068   1.262   0.493   0.629 -0.0357 -0.4866 -0.0371
 8218TIP3    H146069   1.177   0.537   0.632  0.2047 -0.0436  0.4660
 8218TIP3    H246070   1.279   0.481   0.535 -1.2182 -1.7194 -0.1127
 8219TIP3   OH246071   0.201   1.772  17.192  0.6146  0.5727 -0.3296
 8219TIP3    H146072   0.238   1.686  17.211  0.1028  0.5666  0.6531
 8219TIP3    H246073   0.166   1.803  17.275  0.0630  1.3853 -0.8468
 8220TIP3   OH246074   5.690   0.106   2.441  0.5308  0.4285 -0.1123
 8220TIP3    H146075   5.714   0.080   2.352 -2.7999  0.3156 -1.0729
 8220TIP3    H246076   5.695   0.202   2.440 -1.8421  0.5797 -1.2166
 8221TIP3   OH246077   3.317   0.637   3.187  0.7588  0.1342 -0.2221
 8221TIP3    H146078   3.293   0.730   3.190  1.3460  0.2991 -0.3829
 8221TIP3    H246079   3.406   0.635   3.222 -0.1086 -0.6817  2.0127
 8222TIP3   OH246080   2.712   0.073  15.451  0.3819  0.7149 -0.4769
 8222TIP3    H146081   2.749  -0.006  15.490 -1.0548 -0.1476 -0.8121
 8222TIP3    H246082   2.782   0.108  15.396  1.3510  0.2125  0.4264
 8223TIP3   OH246083   3.154   3.620   1.069  0.1377  0.3238 -0.3668
 8223TIP3    H146084   3.198   3.536   1.054  0.0779  0.5232 -1.7136
 8223TIP3    H246085   3.090   3.601   1.138  1.2305 -0.3479  0.4873
 8224TIP3   OH246086   0.413   6.131  12.030 -0.3844 -0.1790  0.4413
 8224TIP3    H146087   0.340   6.191  12.043 -0.1382  0.4476 -0.9933
 8224TIP3    H246088   0.393   6.086  11.948  0.4512 -0.5784  0.4466
 8225TIP3   OH246089   6.502   3.828   4.212 -0.3228  0.7507 -0.4155
 8225TIP3    H146090   6.448   3.811   4.135 -0.8733  1.0413 -0.0925
 8225TIP3    H246091   6.449   3.799   4.286  0.8023 -0.9262 -0.2453
 8226TIP3   OH246092   0.455   5.928  13.072 -0.3655 -0.0854  0.0070
 8226TIP3    H146093   0.441   5.855  13.012 -0.3057 -0.5768  0.5940
 8226TIP3    H246094   0.521   5.982  13.029 -1.4608  0.3892 -1.1053
 8227TIP3   OH246095   1.628   0.101  14.487 -0.7356  0.1604 -0.3497
 8227TIP3    H146096   1.652   0.009  14.488  0.3532  0.4346 -0.5229
 8227TIP3    H246097   1.704   0.146  14.523 -1.4735  0.9411  0.2384
 8228TIP3   OH246098   0.912   4.297  14.604 -0.1496  0.2012  0.1904
 8228TIP3    H146099   0.928   4.281  14.511 -0.3830 -1.5958  0.4439
 8228TIP3    H246100   0.990   4.263  14.648 -0.6576 -0.2674  0.7441
 8229TIP3   OH246101   2.116   3.482  16.123 -0.2459  0.0046  0.9126
 8229TIP3    H146102   2.076   3.428  16.191 -0.7287 -2.0498 -0.9409
 8229TIP3    H246103   2.043   3.535  16.089 -0.7977 -1.6007 -0.4529
 8230TIP3   OH246104   2.019   5.409   0.620 -0.0983 -0.4101 -0.5766
 8230TIP3    H146105   1.946   5.464   0.646  1.8077  1.7547  0.3192
 8230TIP3    H246106   2.013   5.332   0.677 -1.5089 -0.1474 -0.3596
 8231TIP3   OH246107   3.400   0.522  12.579 -0.1967 -0.6109 -0.0346
 8231TIP3    H146108   3.475   0.468  12.605  0.0141 -0.2758  0.0547
 8231TIP3    H246109   3.427   0.612  12.599 -1.7073 -0.7034  2.7284
 8232TIP3   OH246110   5.763   1.093   2.950 -0.4991  0.0460 -0.1284
 8232TIP3    H146111   5.788   1.122   3.038 -2.1914  0.3659  0.2625
 8232TIP3    H246112   5.824   1.022   2.930  1.2767  1.3756  0.4271
 8233TIP3   OH246113   4.721   3.365  12.269 -0.3123 -0.0044  0.4829
 8233TIP3    H146114   4.641   3.391  12.224 -0.6489  0.1800  1.1877
 8233TIP3    H246115   4.710   3.271  12.286  0.0287 -0.1843 -0.2443
 8234TIP3   OH246116   3.328   4.814  12.829  0.0543  0.3704 -0.5999
 8234TIP3    H146117   3.330   4.773  12.742 -0.5691  0.7893 -0.8190
 8234TIP3    H246118   3.258   4.879  12.822  0.7228  1.1495 -0.1134
 8235TIP3   OH246119   4.118   2.462   2.304 -0.5694 -0.1200 -0.0467
 8235TIP3    H146120   4.110   2.544   2.354 -1.1320 -0.4151  0.3441
 8235TIP3    H246121   4.198   2.474   2.252  0.4486 -0.0971  1.4821
 8236TIP3   OH246122   0.416   5.561   5.651  0.2779  0.7374  0.4294
 8236TIP3    H146123   0.492   5.508   5.677 -1.2276 -1.0347  1.2577
 8236TIP3    H246124   0.384   5.599   5.733 -2.2616 -1.9383  0.7598
 8237TIP3   OH246125   6.145   3.354  17.149 -0.7215  0.1951 -0.4640
 8237TIP3    H146126   6.095   3.322  17.074  1.2647  0.8611 -2.0951
 8237TIP3    H246127   6.152   3.279  17.208 -1.3523 -0.6308 -1.4358
 8238TIP3   OH246128   2.222   2.094  14.903 -0.5556  0.1459  0.2333
 8238TIP3    H146129   2.177   2.105  14.987 -0.4949  0.7182  0.1880
 8238TIP3    H246130   2.214   2.179  14.860  1.1428  0.4729  0.5209
 8239TIP3   OH246131   1.249   5.939   3.732  0.1633  0.2203  0.1858
 8239TIP3    H146132   1.307   5.905   3.801 -0.0232  2.1437  1.3205
 8239TIP3    H246133   1.163   5.904   3.754  0.4865 -0.8687 -0.2603
 8240TIP3   OH246134   0.689   5.634  13.085 -0.3750  0.7882  0.0867
 8240TIP3    H146135   0.609   5.662  13.041 -0.4029  1.1496  0.3650
 8240TIP3    H246136   0.662   5.617  13.175  0.2241  2.7406  0.6658
 8241TIP3   OH246137   1.645   3.924  16.670  0.2814  0.1931 -0.1175
 8241TIP3    H146138   1.567   3.873  16.691 -0.7249  1.6395 -0.3121
 8241TIP3    H246139   1.615   4.014  16.665  1.9540  0.7690 -0.2677
 8242TIP3   OH246140   0.742   6.685   5.288  0.5156  0.4676  0.1041
 8242TIP3    H146141   0.710   6.599   5.316  1.6041  0.1731  0.4763
 8242TIP3    H246142   0.826   6.667   5.246  0.0819  1.1985 -1.0996
 8243TIP3   OH246143   2.811   2.441   1.059 -0.6333 -0.6564 -0.4340
 8243TIP3    H146144   2.826   2.411   0.969 -0.5745 -2.7788  0.2567
 8243TIP3    H246145   2.717   2.430   1.072 -0.3396 -2.3149  0.4201
 8244TIP3   OH246146   3.162   0.944   3.262 -0.0121  0.3604  0.2962
 8244TIP3    H146147   3.129   1.030   3.287  0.5931  0.9541 -0.9094
 8244TIP3    H246148   3.124   0.927   3.176  1.6116  0.4178 -0.4667
 8245TIP3   OH246149   6.231   2.448  11.826  0.3362 -0.0520  0.3395
 8245TIP3    H146150   6.140   2.468  11.808  0.9395  1.5560 -1.0730
 8245TIP3    H246151   6.242   2.461  11.920 -0.3424  1.9932  0.1375
 8246TIP3   OH246152   2.756   1.857   0.236  0.1225  0.2885  0.0591
 8246TIP3    H146153   2.702   1.779   0.246 -1.9338  1.5916 -0.6742
 8246TIP3    H246154   2.694   1.930   0.233  1.9976  1.9832  0.8185
 8247TIP3   OH246155   0.021   0.664  13.519 -0.2574 -0.0610 -0.1385
 8247TIP3    H146156  -0.021   0.665  13.433  0.1276 -0.5554 -0.3360
 8247TIP3    H246157  -0.007   0.745  13.560 -1.2257 -0.2873 -0.3518
 8248TIP3   OH246158   0.760   5.436  16.585  0.2200  0.3026 -0.0791
 8248TIP3    H146159   0.846   5.405  16.557  1.5282  1.8428  2.0229
 8248TIP3    H246160   0.771   5.455  16.678 -2.0108  1.8263 -0.0877
 8249TIP3   OH246161   2.733   5.669   1.843 -0.0381  0.7922 -0.5572
 8249TIP3    H146162   2.823   5.648   1.867 -0.1679 -0.4298 -1.1036
 8249TIP3    H246163   2.680   5.606   1.892 -0.3511 -1.2212 -3.3758
 8250TIP3   OH246164   1.487   2.069   2.529 -0.1782 -0.0653 -0.1944
 8250TIP3    H146165   1.577   2.103   2.535  0.3676 -1.6967  1.4518
 8250TIP3    H246166   1.446   2.094   2.611 -0.7199 -0.7243 -0.2539
 8251TIP3   OH246167   6.717   2.316   2.094  0.2184  0.4941 -0.1701
 8251TIP3    H146168   6.800   2.274   2.117 -0.5119 -0.1994  1.2031
 8251TIP3    H246169   6.737   2.410   2.096  0.9466  0.3320  0.2530
 8252TIP3   OH246170   4.538   0.532   0.813 -0.0942  0.1958 -0.0705
 8252TIP3    H146171   4.629   0.557   0.794 -0.1301  0.1038 -0.3690
 8252TIP3    H246172   4.528   0.446   0.771 -0.6727  0.7387 -1.0670
 8253TIP3   OH246173   6.047   5.474  15.060 -0.0154  0.2476 -0.5586
 8253TIP3    H146174   6.110   5.484  14.989  0.3159 -1.8753 -0.5775
 8253TIP3    H246175   6.063   5.387  15.096 -1.2546  0.6520  1.0853
 8254TIP3   OH246176   5.303   0.799  13.577  0.0981 -0.4223 -0.4731
 8254TIP3    H146177   5.364   0.785  13.504 -0.6943  1.7360 -1.5702
 8254TIP3    H246178   5.319   0.888  13.606 -1.2611 -0.4550  0.4494
 8255TIP3   OH246179   3.650   4.573   5.767  0.2953  0.5019 -0.4741
 8255TIP3    H146180   3.668   4.566   5.861 -0.0968  1.6314 -0.3096
 8255TIP3    H246181   3.734   4.553   5.725  0.6095  0.5359  0.1343
 8256TIP3   OH246182   4.187   3.324   5.613  0.3705 -0.0082 -0.2070
 8256TIP3    H146183   4.135   3.389   5.567 -0.5589 -0.7320 -0.1881
 8256TIP3    H246184   4.132   3.295   5.686  0.0876 -2.0179 -1.1715
 8257TIP3   OH246185   4.726   3.057   1.168 -0.0446  0.3742 -0.6039
 8257TIP3    H146186   4.765   3.104   1.242 -0.7718  0.2018 -0.0957
 8257TIP3    H246187   4.632   3.062   1.185 -0.1889 -0.0750 -1.2770
 8258TIP3   OH246188   1.345   1.949  11.172 -0.0393  0.2363  0.5337
 8258TIP3    H146189   1.410   1.900  11.122  0.7163  1.0093  0.7384
 8258TIP3    H246190   1.392   1.977  11.251 -1.4481 -1.6345  2.0611
 8259TIP3   OH246191   2.151   5.071   0.066 -0.1616 -0.5830  0.1774
 8259TIP3    H146192   2.230   5.045   0.113 -0.6375 -0.1414  1.2345
 8259TIP3    H246193   2.175   5.152   0.021  0.6865 -1.6924 -1.4189
 8260TIP3   OH246194   0.829   5.495  15.397  0.1510  0.3043 -0.2358
 8260TIP3    H146195   0.738   5.469  15.385  0.3163  0.6647 -2.4708
 8260TIP3    H246196   0.835   5.518  15.490 -1.8554 -0.3441  0.0837
 8261TIP3   OH246197   2.495   5.965  15.143 -0.4064  0.7896  0.0522
 8261TIP3    H146198   2.404   5.993  15.157 -1.5501 -2.3555 -0.7457
 8261TIP3    H246199   2.489   5.890  15.084  2.7123  0.3085  0.2452
 8262TIP3   OH246200   0.885   5.711  13.404  0.0023  0.1236 -0.0037
 8262TIP3    H146201   0.893   5.645  13.336 -1.2781  1.5534 -1.5795
 8262TIP3    H246202   0.807   5.685  13.454  0.0295 -0.0541 -0.0535
 8263TIP3   OH246203   3.968   4.503   0.527  0.2721  0.0416 -0.2818
 8263TIP3    H146204   3.900   4.567   0.549  1.7260  1.5200  0.0462
 8263TIP3    H246205   4.021   4.546   0.459  3.8232  1.0264  2.9140
 8264TIP3   OH246206   3.736   4.451   4.544 -0.4927  0.3488  0.1104
 8264TIP3    H146207   3.721   4.527   4.601  1.4978  1.8848 -1.3582
 8264TIP3    H246208   3.670   4.460   4.475 -0.0407  0.9567 -0.2508
 8265TIP3   OH246209   3.853   6.215   4.015  0.0370  0.1494 -0.2033
 8265TIP3    H146210   3.942   6.181   4.007  0.4201  0.9893  0.4697
 8265TIP3    H246211   3.849   6.287   3.952  0.6931  1.8759  1.6981
 8266TIP3   OH246212   0.025   2.335   2.949  0.0154 -0.1025  0.2396
 8266TIP3    H146213  -0.037   2.406   2.929 -2.1290 -2.1241 -0.5324
 8266TIP3    H246214   0.111   2.377   2.948 -1.2126  2.5130 -0.0472
 8267TIP3   OH246215   2.203   2.189   5.435 -0.3969  0.4018  0.2370
 8267TIP3    H146216   2.109   2.206   5.437 -0.8005 -1.6364 -0.4905
 8267TIP3    H246217   2.224   2.175   5.343  0.6507  0.9241  0.3829
 8268TIP3   OH246218   5.419   5.659   3.476 -0.2822  1.3042  0.3695
 8268TIP3    H146219   5.439   5.585   3.533  1.0355  0.2953 -1.3613
 8268TIP3    H246220   5.429   5.736   3.532 -3.8977  0.1530  2.8369
 8269TIP3   OH246221   0.058   1.946   2.969 -0.3224 -0.2518 -0.2826
 8269TIP3    H146222  -0.016   1.995   2.932 -1.3699 -1.6891 -0.1390
 8269TIP3    H246223   0.134   2.001   2.951 -1.3672  1.0569 -0.8153
 8270TIP3   OH246224   0.650   2.470   3.077  0.2911 -0.2423  0.1807
 8270TIP3    H146225   0.733   2.423   3.067  1.3862  1.3495  1.5871
 8270TIP3    H246226   0.614   2.437   3.159 -2.0050 -3.1623 -1.8756
 8271TIP3   OH246227   4.383   2.059  12.124  0.2835  0.2292  0.2275
 8271TIP3    H146228   4.453   2.103  12.172 -0.3538  1.8863 -0.3419
 8271TIP3    H246229   4.428   2.019  12.049  0.5189  1.9565 -0.5689
 8272TIP3   OH246230   4.746   1.414   1.441 -0.3863 -0.4772 -0.2752
 8272TIP3    H146231   4.834   1.426   1.404 -0.9091  2.0907 -0.7798
 8272TIP3    H246232   4.743   1.322   1.465  2.0578 -0.8686 -1.2802
 8273TIP3   OH246233   2.388   1.774   5.919  0.5423 -0.3836  0.6524
 8273TIP3    H146234   2.450   1.700   5.925  1.6635  0.5629  0.9049
 8273TIP3    H246235   2.406   1.813   5.834  0.2255 -0.1680  0.6861
 8274TIP3   OH246236   5.395   3.533  12.211 -0.2604 -0.3664 -0.1588
 8274TIP3    H146237   5.465   3.598  12.200 -0.7579  0.0591 -0.8239
 8274TIP3    H246238   5.417   3.464  12.149 -2.1531  1.2558 -2.7308
 8275TIP3   OH246239   5.942   1.325   3.566  0.1204  0.0476 -0.3632
 8275TIP3    H146240   5.883   1.400   3.570 -0.1846 -0.1384 -1.3273
 8275TIP3    H246241   5.890   1.255   3.527  0.2048 -0.8681  1.1188
 8276TIP3   OH246242   2.234   3.605   1.077 -0.0674 -0.4595  0.0936
 8276TIP3    H146243   2.238   3.697   1.103  1.2252 -0.1521 -1.1399
 8276TIP3    H246244   2.144   3.593   1.047  0.4296  1.1133 -2.1629
 8277TIP3   OH246245   3.741   4.153   0.964  1.0823 -0.2038 -0.3760
 8277TIP3    H146246   3.661   4.115   0.998  1.5511 -0.4187  0.5070
 8277TIP3    H246247   3.732   4.247   0.978  0.9959 -0.2317 -0.2487
 8278TIP3   OH246248   0.321   6.090   5.576 -0.5858 -0.3132 -0.2652
 8278TIP3    H146249   0.346   5.998   5.574  0.0400 -0.1276 -1.4937
 8278TIP3    H246250   0.249   6.095   5.639 -0.9395 -1.7154 -0.5596
 8279TIP3   OH246251   4.014   3.656   3.019 -0.0393  0.0319 -0.5490
 8279TIP3    H146252   3.923   3.674   2.999 -0.7654 -1.6776  1.0575
 8279TIP3    H246253   4.059   3.659   2.934 -2.1011 -2.0571 -1.7412
 8280TIP3   OH246254   3.818   0.170  16.731 -0.0276  0.0745 -0.1744
 8280TIP3    H146255   3.866   0.139  16.808  1.1834  2.0513 -0.1023
 8280TIP3    H246256   3.744   0.219  16.768  0.6032  1.0973 -0.2733
 8281TIP3   OH246257   6.300   2.771  12.794 -0.3336  0.3400  0.8190
 8281TIP3    H146258   6.390   2.738  12.784 -1.0308 -0.9474 -1.3044
 8281TIP3    H246259   6.309   2.866  12.789  0.6384  0.1388 -1.7470
 8282TIP3   OH246260   1.418   4.736  11.202  0.0689  0.2422  0.0752
 8282TIP3    H146261   1.349   4.692  11.153  0.0804  0.7569 -0.3982
 8282TIP3    H246262   1.399   4.829  11.193  0.5704  0.3713  0.3200
 8283TIP3   OH246263   2.760   5.310   3.260  0.0798  0.1271 -0.1257
 8283TIP3    H146264   2.779   5.261   3.340  0.1901 -1.4957 -1.1435
 8283TIP3    H246265   2.842   5.357   3.241 -0.0395  0.7691  0.8577
 8284TIP3   OH246266   5.007   0.142   1.057  0.3822  0.2264  0.1538
 8284TIP3    H146267   4.995   0.132   0.963  0.1565 -0.9412  0.3027
 8284TIP3    H246268   5.101   0.129   1.070  0.3034 -0.3500  0.1723
 8285TIP3   OH246269   4.478   4.366   5.952 -0.4848 -0.0609 -0.3123
 8285TIP3    H146270   4.543   4.307   5.991 -0.6126  0.1375  0.2036
 8285TIP3    H246271   4.441   4.413   6.026 -0.1343  0.9251 -0.7557
 8286TIP3   OH246272   6.207   4.629  15.076 -0.7010  0.8744 -0.2769
 8286TIP3    H146273   6.133   4.580  15.040 -0.2574 -1.1419  1.4962
 8286TIP3    H246274   6.281   4.604  15.020 -1.1282  2.1900 -1.4802
 8287TIP3   OH246275   3.906   2.418  17.238  0.1184 -0.1193  0.0841
 8287TIP3    H146276   3.995   2.383  17.233  0.2326  0.0340  0.9687
 8287TIP3    H246277   3.851   2.342  17.258  0.0753 -0.1841 -0.2844
 8288TIP3   OH246278   0.657   1.147   1.266  0.1671  0.1940 -0.0969
 8288TIP3    H146279   0.568   1.169   1.240 -0.0589  1.0541  1.3438
 8288TIP3    H246280   0.649   1.109   1.353  1.0033 -1.8465 -0.8707
 8289TIP3   OH246281   5.591   3.588  16.307 -0.2828 -0.1545 -0.0603
 8289TIP3    H146282   5.620   3.501  16.336 -2.1660 -0.3467  1.3789
 8289TIP3    H246283   5.625   3.648  16.373 -0.5700 -0.0250 -0.0289
 8290TIP3   OH246284   2.919   6.152   2.326  0.4120  0.1793 -0.0366
 8290TIP3    H146285   2.825   6.169   2.331  0.3932  0.4081 -1.1477
 8290TIP3    H246286   2.946   6.190   2.243  1.2319 -1.1325 -0.3794
 8291TIP3   OH246287   0.404   1.177  16.669  0.1216 -0.0291  0.1796
 8291TIP3    H146288   0.482   1.133  16.702  0.1399  0.5005  0.8551
 8291TIP3    H246289   0.438   1.246  16.612  0.1111 -0.5152 -0.4155
 8292TIP3   OH246290   4.633   1.164  16.660  0.3858 -0.1718 -0.4799
 8292TIP3    H146291   4.723   1.189  16.680  0.2838 -0.0245 -0.1947
 8292TIP3    H246292   4.618   1.085  16.712  0.4141 -0.3062 -0.6800
 8293TIP3   OH246293   2.715   2.648  14.766 -0.0533  0.4069 -0.0249
 8293TIP3    H146294   2.751   2.613  14.848 -0.7869 -1.9654 -0.6801
 8293TIP3    H246295   2.620   2.637  14.776 -0.1308 -0.1286 -1.2852
 8294TIP3   OH246296   5.691   6.740  16.982 -0.0067 -0.6109 -0.0635
 8294TIP3    H146297   5.640   6.674  17.028  0.8752 -1.2698 -0.0143
 8294TIP3    H246298   5.667   6.823  17.023 -1.6502 -0.8103 -0.5947
 8295TIP3   OH246299   4.596   5.951  12.296  0.0613 -0.2721  0.0150
 8295TIP3    H146300   4.673   5.976  12.244  0.2871  1.1930  1.0137
 8295TIP3    H246301   4.572   5.865  12.263 -0.1960  0.8764 -2.9350
 8296TIP3   OH246302   4.179   0.740  13.741  0.1180  0.3464 -0.6082
 8296TIP3    H146303   4.275   0.733  13.744  0.0696 -0.3520 -0.7432
 8296TIP3    H246304   4.148   0.650  13.730 -0.5391  0.6270 -1.0876
 8297TIP3   OH246305   0.190   4.703  12.109  0.4461 -0.2366  0.0192
 8297TIP3    H146306   0.280   4.731  12.128  0.4984  0.7611 -1.5864
 8297TIP3    H246307   0.200   4.618  12.066  0.7647  0.7195 -1.8556
 8298TIP3   OH246308   2.472   5.465  14.558 -0.0924  0.2165 -0.2890
 8298TIP3    H146309   2.426   5.498  14.635 -0.0695 -0.8552  0.1901
 8298TIP3    H246310   2.533   5.535  14.534  0.5385  0.1940  1.2091
 8299TIP3   OH246311   1.012   5.623  15.239  0.3817  0.3118  0.6410
 8299TIP3    H146312   0.945   5.581  15.293  0.6758 -0.8213  0.1456
 8299TIP3    H246313   1.012   5.714  15.267 -0.4571  0.0389  1.5570
 8300TIP3   OH246314   2.266   0.212  14.090 -0.4810  0.8794 -0.1762
 8300TIP3    H146315   2.184   0.165  14.080 -0.3939  0.7175 -0.1298
 8300TIP3    H246316   2.293   0.196  14.180 -0.9376  1.8132  0.1296
 8301TIP3   OH246317   4.347   5.636   1.465  0.1847 -0.1282  0.5330
 8301TIP3    H146318   4.263   5.669   1.433  1.3021  2.8233  0.5140
 8301TIP3    H246319   4.403   5.634   1.387  0.4688 -1.0880  0.7474
 8302TIP3   OH246320   1.398   2.602  14.487  0.1325  0.1250 -0.3507
 8302TIP3    H146321   1.337   2.667  14.523 -0.4354  0.0314 -1.1348
 8302TIP3    H246322   1.482   2.621  14.530  0.1122  1.7496 -0.9838
 8303TIP3   OH246323   2.361   5.421  16.313 -0.1922 -0.4250 -0.2254
 8303TIP3    H146324   2.308   5.394  16.238  0.1095 -0.5393 -0.3968
 8303TIP3    H246325   2.322   5.503  16.343 -0.4985 -0.5387 -0.3200
 8304TIP3   OH246326   4.657   4.485   0.271  0.6848  0.8043  0.3861
 8304TIP3    H146327   4.578   4.539   0.268  0.7061  0.8468  0.5904
 8304TIP3    H246328   4.678   4.478   0.364  2.2371  2.6707  0.1890
 8305TIP3   OH246329   6.281   5.729   4.119 -0.1059 -0.2463  0.0231
 8305TIP3    H146330   6.237   5.723   4.204 -0.0815 -0.7342 -0.0027
 8305TIP3    H246331   6.233   5.669   4.062  0.7915 -1.0169  0.0771
 8306TIP3   OH246332   2.687   3.613   6.101 -0.0994 -0.1006  0.2835
 8306TIP3    H146333   2.642   3.673   6.159 -0.0149 -0.5037  0.7624
 8306TIP3    H246334   2.717   3.668   6.029 -0.9909  0.2365  0.1648
 8307TIP3   OH246335   6.127   4.249   1.842  0.6794  0.2249  0.3025
 8307TIP3    H146336   6.046   4.199   1.852  0.4295  0.5036 -0.3061
 8307TIP3    H246337   6.148   4.279   1.930  0.6350 -0.6525  0.6113
 8308TIP3   OH246338   4.267   4.633  16.230  0.0576 -0.0776  0.0846
 8308TIP3    H146339   4.209   4.595  16.163  1.2958 -0.5919 -0.7174
 8308TIP3    H246340   4.346   4.580  16.226 -0.1337 -0.6050  2.5181
 8309TIP3   OH246341   0.944   0.234   2.256  0.5449  0.1749  0.1101
 8309TIP3    H146342   0.951   0.208   2.164 -0.9175 -0.0218  0.0384
 8309TIP3    H246343   1.017   0.190   2.299 -0.4773 -2.1300 -0.4406
 8310TIP3   OH246344   3.176   4.645  13.136  0.7825  0.2877  0.4532
 8310TIP3    H146345   3.266   4.624  13.107  0.8712 -0.6085  1.3707
 8310TIP3    H246346   3.139   4.694  13.062  1.5505 -0.5851 -0.5298
 8311TIP3   OH246347   1.156   3.050  14.704 -0.0713 -0.4405 -0.0979
 8311TIP3    H146348   1.123   3.131  14.666 -1.5388 -0.9612 -0.0007
 8311TIP3    H246349   1.148   3.063  14.798  0.9477 -0.1958 -0.0454
 8312TIP3   OH246350   2.661   2.444  13.678 -0.1284  0.1279 -0.2143
 8312TIP3    H146351   2.585   2.489  13.715 -0.1904 -0.0424 -0.1359
 8312TIP3    H246352   2.627   2.401  13.600 -0.4553 -1.2127  0.6519
 8313TIP3   OH246353   4.613   0.808   2.740  0.0090 -0.8341  0.6448
 8313TIP3    H146354   4.568   0.842   2.663  0.0902 -1.4958  0.2966
 8313TIP3    H246355   4.706   0.814   2.718  0.0460 -0.6685  0.8451
 8314TIP3   OH246356   0.450   2.251   6.089  0.0618 -0.1086  0.6767
 8314TIP3    H146357   0.363   2.212   6.076  0.1787 -0.1611  0.0709
 8314TIP3    H246358   0.486   2.204   6.164 -0.4205 -0.1115  0.9081
 8315TIP3   OH246359   3.271   0.463  16.634 -0.5811 -0.0510 -0.4014
 8315TIP3    H146360   3.185   0.451  16.594 -2.1794 -0.1464  2.9066
 8315TIP3    H246361   3.277   0.394  16.700  1.1968  1.1726  0.7710
 8316TIP3   OH246362   0.945   6.376  15.232 -0.4501  0.3225 -0.2919
 8316TIP3    H146363   0.923   6.379  15.139 -0.7798  2.0081 -0.1773
 8316TIP3    H246364   1.033   6.339  15.235 -0.4612  0.2099 -1.2679
 8317TIP3   OH246365   0.583   1.549   6.325  0.3626 -0.0477  0.5094
 8317TIP3    H146366   0.654   1.504   6.278  0.1569 -1.7241  1.7695
 8317TIP3    H246367   0.528   1.479   6.359 -1.4067  1.2273  0.3349
 8318TIP3   OH246368   6.143   2.119  15.379 -0.4280  0.1974  0.8350
 8318TIP3    H146369   6.060   2.071  15.371 -1.3000  1.7013  0.6049
 8318TIP3    H246370   6.190   2.073  15.449 -2.4406  0.6914  2.5787
 8319TIP3   OH246371   2.502   3.015   0.494 -0.0525 -0.1523  0.4076
 8319TIP3    H146372   2.479   2.922   0.488  0.6463 -0.3508  0.7296
 8319TIP3    H246373   2.571   3.027   0.428 -1.0084  0.4163 -0.4895
 8320TIP3   OH246374   2.706   2.933  13.944 -0.3093 -0.0902 -0.2144
 8320TIP3    H146375   2.787   2.891  13.972  0.6950  0.2991 -2.4399
 8320TIP3    H246376   2.687   2.895  13.858 -1.9344  0.5775 -0.1809
 8321TIP3   OH246377   2.420   2.934  12.943 -0.0724 -0.5706  0.5467
 8321TIP3    H146378   2.396   2.914  12.853 -1.3578 -0.7707  0.9206
 8321TIP3    H246379   2.427   2.848  12.985  2.5099 -0.5727  0.1592
 8322TIP3   OH246380   4.338   1.300   6.390 -0.0344  0.2937  0.1930
 8322TIP3    H146381   4.250   1.303   6.352 -0.3380 -0.9022  0.7755
 8322TIP3    H246382   4.353   1.207   6.408  0.6635  0.6857  1.6943
 8323TIP3   OH246383   6.770   5.223   1.703  0.1504 -0.0957 -0.0547
 8323TIP3    H146384   6.749   5.243   1.612  1.9803 -1.0417 -0.7157
 8323TIP3    H246385   6.782   5.309   1.744 -2.2066  0.3796 -0.2954
 8324TIP3   OH246386   0.063   1.522  12.195  0.6017 -0.2282 -0.6107
 8324TIP3    H146387   0.066   1.514  12.100  2.6150  0.8180 -0.6438
 8324TIP3    H246388  -0.002   1.591  12.211  0.8175  0.1229 -1.2494
 8325TIP3   OH246389   2.163   1.421   5.395  0.3778 -0.4539  0.1162
 8325TIP3    H146390   2.102   1.380   5.458  0.4838 -0.3891  0.2605
 8325TIP3    H246391   2.250   1.394   5.425  0.4744  0.2784  0.4974
 8326TIP3   OH246392   5.406   4.430  11.527  0.6454 -0.4156 -0.5178
 8326TIP3    H146393   5.408   4.448  11.433  0.1300 -0.1834 -0.4899
 8326TIP3    H246394   5.487   4.382  11.544  1.4006  0.7293 -0.8281
 8327TIP3   OH246395   5.026   2.040   3.283  0.4742 -0.8242 -0.0136
 8327TIP3    H146396   5.084   2.022   3.208 -1.4289 -1.9266 -1.2516
 8327TIP3    H246397   5.024   1.957   3.331 -1.0872 -1.1816 -0.6868
 8328TIP3   OH246398   3.332   1.424   3.233  0.2777  0.1595  0.4148
 8328TIP3    H146399   3.394   1.458   3.169  0.1421  1.7264  1.0957
 8328TIP3    H246400   3.258   1.484   3.230 -1.7098 -2.2465 -1.1109
 8329TIP3   OH246401   0.428   2.635   3.191  0.2063 -0.1647 -0.0872
 8329TIP3    H146402   0.461   2.666   3.107 -1.1829  0.5291 -0.4060
 8329TIP3    H246403   0.378   2.556   3.170 -1.2956  0.7731 -0.1279
 8330TIP3   OH246404   2.656   2.896  15.498  0.6261 -0.3126  0.6447
 8330TIP3    H146405   2.734   2.951  15.505  0.4514 -0.0244  0.3322
 8330TIP3    H246406   2.585   2.957  15.479  0.5271 -0.7056 -0.2742
 8331TIP3   OH246407   5.642   0.059   1.354 -0.1819 -0.3476  0.1786
 8331TIP3    H146408   5.668   0.059   1.262 -0.1404 -2.0478  0.1688
 8331TIP3    H246409   5.725   0.066   1.402 -0.2058  0.5625  0.0838
 8332TIP3   OH246410   6.486   5.933  11.141  0.1968 -0.6286 -0.1157
 8332TIP3    H146411   6.497   6.013  11.091 -1.1163 -0.9342 -0.9073
 8332TIP3    H246412   6.506   5.957  11.231 -1.6719  0.9530 -0.0984
 8333TIP3   OH246413   3.333   5.643  13.964 -0.6198 -0.0279  0.2135
 8333TIP3    H146414   3.345   5.579  13.893 -0.2466  0.9570 -0.6172
 8333TIP3    H246415   3.245   5.678  13.949 -0.3733  0.4907 -0.0092
 8334TIP3   OH246416   5.242   3.996   0.030  0.0974 -0.2937 -0.1913
 8334TIP3    H146417   5.333   4.014   0.009 -0.1463 -1.2961 -2.1476
 8334TIP3    H246418   5.243   3.976   0.124  1.2996  3.4898  0.7078
 8335TIP3   OH246419   4.064   1.498   1.113  0.4414  0.6980 -0.1027
 8335TIP3    H146420   3.975   1.533   1.105  1.0130  1.9867 -1.0771
 8335TIP3    H246421   4.058   1.433   1.183 -1.4311  0.1943 -0.6989
 8336TIP3   OH246422   6.082   1.267  11.675 -0.3498 -0.1655  0.2444
 8336TIP3    H146423   6.127   1.254  11.758  0.5796 -0.7117 -0.3229
 8336TIP3    H246424   6.122   1.346  11.638  1.7510 -1.8555 -1.2582
 8337TIP3   OH246425   4.817   3.625  13.098  0.2703  0.7425 -0.3288
 8337TIP3    H146426   4.794   3.700  13.043 -0.9027 -0.5593 -1.6783
 8337TIP3    H246427   4.740   3.612  13.153 -0.0688 -0.2573 -1.0190
 8338TIP3   OH246428   5.586   4.575   3.775  0.8671  0.3304  0.6892
 8338TIP3    H146429   5.500   4.577   3.817  0.9061  1.5396  0.7176
 8338TIP3    H246430   5.574   4.518   3.699 -0.6218  2.5070 -0.7487
 8339TIP3   OH246431   4.777   2.955  14.356 -0.5274 -0.1523 -0.4229
 8339TIP3    H146432   4.711   2.989  14.417 -1.3836 -0.4682 -1.1696
 8339TIP3    H246433   4.784   2.862  14.378 -0.7794 -0.2496 -0.7415
 8340TIP3   OH246434   4.754   3.886   1.379 -0.2421 -0.1358  0.0015
 8340TIP3    H146435   4.827   3.834   1.345 -0.9845 -0.6129 -0.8943
 8340TIP3    H246436   4.795   3.956   1.429  0.8032 -0.9891  0.3462
 8341TIP3   OH246437   6.437   2.508  16.371 -0.2157  0.3301 -0.6464
 8341TIP3    H146438   6.520   2.463  16.358 -0.0972  0.4679 -0.3725
 8341TIP3    H246439   6.461   2.594  16.407 -0.6121 -1.0900  3.3480
 8342TIP3   OH246440   4.227   2.326   4.697  0.6572  0.4225  0.2596
 8342TIP3    H146441   4.235   2.238   4.662 -0.9375 -0.3867  1.8724
 8342TIP3    H246442   4.316   2.361   4.695  1.8055 -2.2593  2.3176
 8343TIP3   OH246443   4.145   2.130  16.103  0.2139  0.2896  0.2304
 8343TIP3    H146444   4.118   2.057  16.157  0.3984  1.9179  2.6105
 8343TIP3    H246445   4.075   2.140  16.038 -1.5761  0.2558  2.1214
 8344TIP3   OH246446   0.969   3.329  14.734 -0.3339 -0.2612 -0.1699
 8344TIP3    H146447   0.989   3.284  14.815 -1.0047  1.2460  0.8718
 8344TIP3    H246448   1.051   3.369  14.707  0.6556 -3.3291 -1.9527
 8345TIP3   OH246449   0.081   4.315  14.994  0.0545  0.2110 -0.0088
 8345TIP3    H146450   0.107   4.405  15.015 -0.6764  0.2301  0.8645
 8345TIP3    H246451   0.090   4.309  14.899  1.8173  0.6563  0.1140
 8346TIP3   OH246452   6.541   2.102  16.246  0.4574 -0.1957 -0.5576
 8346TIP3    H146453   6.603   2.060  16.188 -0.1183  0.1205 -1.4088
 8346TIP3    H246454   6.489   2.159  16.189  0.0351  0.2840  0.2936
 8347TIP3   OH246455   1.314   2.205  15.233 -0.3633  0.3002 -0.3608
 8347TIP3    H146456   1.301   2.235  15.322  1.8363  0.4584 -0.0576
 8347TIP3    H246457   1.271   2.270  15.178  0.2074  1.4087  0.4982
 8348TIP3   OH246458   1.158   0.461  10.821 -0.0979  0.1679 -0.1292
 8348TIP3    H146459   1.160   0.485  10.729  0.0294  1.4491  0.1972
 8348TIP3    H246460   1.228   0.513  10.861 -2.0871  1.8862  1.2128
 8349TIP3   OH246461   1.753   6.205   1.455  0.1725 -0.0854  0.2279
 8349TIP3    H146462   1.695   6.176   1.525 -0.4219  0.9626  0.1814
 8349TIP3    H246463   1.807   6.273   1.494  1.0122 -0.6747  0.1193
 8350TIP3   OH246464   1.019   6.698   4.729  0.3106  0.5120  0.1416
 8350TIP3    H146465   1.014   6.780   4.778 -0.3098  1.1881 -1.0243
 8350TIP3    H246466   0.956   6.641   4.773  0.6957  0.6707  0.9181
 8351TIP3   OH246467   6.041   3.271  14.354 -0.0712 -0.3272  0.2515
 8351TIP3    H146468   5.950   3.262  14.384 -0.4361 -1.1073 -1.0906
 8351TIP3    H246469   6.089   3.295  14.434 -1.7661  2.1828  0.6064
 8352TIP3   OH246470   4.428   0.006  16.706  0.8243 -0.3650 -0.4007
 8352TIP3    H146471   4.361   0.035  16.644  1.9505  0.3957 -1.2885
 8352TIP3    H246472   4.384  -0.059  16.761 -0.6418  0.1592 -0.9416
 8353TIP3   OH246473   3.661   1.524  13.479 -0.1489  0.0064  0.7383
 8353TIP3    H146474   3.742   1.521  13.429 -0.0618  1.9025  0.7188
 8353TIP3    H246475   3.685   1.494  13.566  0.8470  1.6168  1.0436
 8354TIP3   OH246476   1.212   2.428  11.392 -0.5303  0.7145  0.1146
 8354TIP3    H146477   1.169   2.362  11.447  0.7971 -0.4692 -0.2201
 8354TIP3    H246478   1.180   2.409  11.304  1.3643 -0.7727 -0.2743
 8355TIP3   OH246479   0.892   3.467  15.697 -0.0218  0.5655 -0.4850
 8355TIP3    H146480   0.934   3.425  15.772 -0.5264 -1.7780 -1.4799
 8355TIP3    H246481   0.962   3.480  15.634  0.0494  0.8043 -0.3579
 8356TIP3   OH246482   3.389   1.377   1.729 -0.1390  0.6647 -0.4307
 8356TIP3    H146483   3.429   1.387   1.816 -0.7956  1.5218 -0.2317
 8356TIP3    H246484   3.455   1.412   1.668  0.6498 -0.6444 -0.3593
 8357TIP3   OH246485   6.400   4.448  15.799  0.3403  0.3902  0.3403
 8357TIP3    H146486   6.476   4.505  15.785 -1.0974  2.1070 -0.5149
 8357TIP3    H246487   6.384   4.453  15.893  0.4450  1.0919  0.3199
 8358TIP3   OH246488   2.038   4.770  14.870 -0.8499 -0.2583  0.3343
 8358TIP3    H146489   2.044   4.810  14.783 -2.2674  0.7668  0.6937
 8358TIP3    H246490   2.127   4.779  14.906 -0.0223 -1.4678 -1.3141
 8359TIP3   OH246491   5.644   0.015   4.984  0.2754 -0.0338  0.7375
 8359TIP3    H146492   5.695   0.074   5.039  0.9312 -0.2387  0.3571
 8359TIP3    H246493   5.706  -0.054   4.959 -0.5299 -0.9836  1.3391
 8360TIP3   OH246494   6.008   1.690   5.734  0.0107 -0.0286 -0.2213
 8360TIP3    H146495   5.943   1.742   5.687  0.0750 -0.4232 -0.7576
 8360TIP3    H246496   6.065   1.755   5.775 -1.3919  0.3255  1.2262
 8361TIP3   OH246497   1.212   6.130   4.555  0.3262  0.1726 -0.0589
 8361TIP3    H146498   1.217   6.045   4.512 -0.9276 -0.3505  0.7819
 8361TIP3    H246499   1.135   6.172   4.516  0.9861  0.9526 -0.5282
 8362TIP3   OH246500   4.097   0.511  10.529 -0.0375  0.8682  0.2840
 8362TIP3    H146501   4.014   0.547  10.560 -0.1220  1.5280 -0.6636
 8362TIP3    H246502   4.150   0.501  10.608 -1.7528 -1.6025  1.2110
 8363TIP3   OH246503   2.132   4.662   1.655  0.1037 -0.3897 -0.4970
 8363TIP3    H146504   2.196   4.721   1.693  0.6911  0.1407 -2.2596
 8363TIP3    H246505   2.047   4.699   1.680  0.4576 -0.6139  1.1018
 8364TIP3   OH246506   4.907   6.123   0.772  0.1691  0.0876  0.0100
 8364TIP3    H146507   4.910   6.142   0.678 -0.8723 -2.8730 -0.6631
 8364TIP3    H246508   4.998   6.130   0.800  0.7842 -0.8981 -1.6283
 8365TIP3   OH246509   3.831   3.665   0.796  0.4528 -0.6083  0.5758
 8365TIP3    H146510   3.861   3.575   0.810  1.1982 -0.8391 -2.2136
 8365TIP3    H246511   3.737   3.657   0.781  0.5345 -0.9601  0.2320
 8366TIP3   OH246512   0.946   1.626  11.485  0.2401  0.5344 -0.2415
 8366TIP3    H146513   0.858   1.601  11.514  0.2449  0.2432 -0.4768
 8366TIP3    H246514   0.995   1.544  11.483  0.4061  0.6398 -0.5076
 8367TIP3   OH246515   1.913   4.808  13.945 -0.0842  0.0916 -0.5860
 8367TIP3    H146516   2.007   4.803  13.961 -0.4064 -0.9943  0.9949
 8367TIP3    H246517   1.888   4.720  13.919 -0.4824  0.6476 -2.1726
 8368TIP3   OH246518   6.498   6.162   0.344 -0.3344  0.1098 -0.3866
 8368TIP3    H146519   6.403   6.150   0.340 -0.3126  0.4762 -2.2898
 8368TIP3    H246520   6.515   6.240   0.291  1.1122 -0.3643 -0.6336
 8369TIP3   OH246521   6.108   2.561   3.521  0.2848  0.3239 -0.0171
 8369TIP3    H146522   6.068   2.629   3.574  0.0874  0.0057  0.2489
 8369TIP3    H246523   6.188   2.600   3.487  0.4343  0.5127  0.5500
 8370TIP3   OH246524   3.340   1.033   5.903  0.3598  0.1441  0.1495
 8370TIP3    H146525   3.362   1.125   5.890  0.9574 -0.0025  0.0991
 8370TIP3    H246526   3.424   0.989   5.915  0.1510 -0.5371 -0.7806
 8371TIP3   OH246527   6.759   2.999  16.038 -0.2795  0.0097 -0.2247
 8371TIP3    H146528   6.710   3.081  16.032  0.4491  0.4127 -0.6655
 8371TIP3    H246529   6.692   2.933  16.057 -1.1641  0.3908 -1.8879
 8372TIP3   OH246530   3.070   2.232  15.718 -0.1477  0.7792  0.2000
 8372TIP3    H146531   3.018   2.179  15.657  0.3383 -0.3262  0.7252
 8372TIP3    H246532   3.059   2.189  15.802 -0.0158  1.7290  0.7097
 8373TIP3   OH246533   0.863   2.268  15.458 -0.0377  0.2845 -0.2878
 8373TIP3    H146534   0.815   2.257  15.376  1.8359 -0.4725 -1.3225
 8373TIP3    H246535   0.862   2.181  15.499  0.1385  0.3489 -0.1444
 8374TIP3   OH246536   0.559   5.668  14.004  0.1872 -0.3353  0.1521
 8374TIP3    H146537   0.560   5.574  13.985  2.1564  0.0422 -1.8424
 8374TIP3    H246538   0.467   5.693  13.994 -0.1693 -1.8362 -0.4718
 8375TIP3   OH246539   5.636   1.975   2.369  0.5854 -0.0581  0.1107
 8375TIP3    H146540   5.600   1.954   2.282  0.8162 -1.0125  0.2347
 8375TIP3    H246541   5.620   2.069   2.380 -1.0231 -0.2761 -0.2311
 8376TIP3   OH246542   2.227   4.318   4.608  0.5860 -0.3403 -0.1146
 8376TIP3    H146543   2.319   4.291   4.614 -0.0597 -2.9850 -1.3446
 8376TIP3    H246544   2.193   4.306   4.697  1.2479 -0.0460  0.1807
 8377TIP3   OH246545   0.929   5.677  16.134  0.4643 -0.1396 -0.3779
 8377TIP3    H146546   0.977   5.695  16.054  0.5354 -0.8884 -0.5027
 8377TIP3    H246547   0.911   5.764  16.171 -0.8881  0.2813 -1.9771
 8378TIP3   OH246548   4.936   5.531  15.106 -0.5310 -0.5409  0.7545
 8378TIP3    H146549   4.981   5.559  15.186  1.3749 -0.9499 -0.1407
 8378TIP3    H246550   4.908   5.612  15.064  2.7712  0.0028 -0.5728
 8379TIP3   OH246551   6.725   5.284   2.050  0.4617 -0.3014 -0.3003
 8379TIP3    H146552   6.680   5.360   2.088  0.1201 -0.8133  0.3224
 8379TIP3    H246553   6.768   5.319   1.972  1.0038  0.7265  0.4401
 8380TIP3   OH246554   0.064   3.028   5.360  0.1427 -0.2433 -0.3396
 8380TIP3    H146555   0.005   3.001   5.430  0.4679  1.4659  0.6183
 8380TIP3    H246556   0.106   2.947   5.331 -0.6609 -1.0837  0.8162
 8381TIP3   OH246557   2.442   4.252  14.105 -0.2763  0.1117  0.1357
 8381TIP3    H146558   2.400   4.253  14.191  0.4183 -0.2769  0.4841
 8381TIP3    H246559   2.462   4.160  14.089 -0.1313  0.2187 -0.3124
 8382TIP3   OH246560   1.740   1.582  14.624  0.1249  0.1046 -0.4316
 8382TIP3    H146561   1.744   1.549  14.714  2.1394  0.8218 -0.2281
 8382TIP3    H246562   1.828   1.569  14.590 -0.4916  0.3214 -2.1450
 8383TIP3   OH246563   2.308   3.064   5.444 -0.2067  0.2690 -0.8062
 8383TIP3    H146564   2.265   3.128   5.499  1.4851  0.1901  0.6532
 8383TIP3    H246565   2.314   3.106   5.358 -1.6817  0.9079 -0.6006
 8384TIP3   OH246566   3.315   6.744  15.685 -0.3904 -0.7004 -0.2941
 8384TIP3    H146567   3.266   6.700  15.754 -0.4898 -0.3707 -0.1559
 8384TIP3    H246568   3.253   6.804  15.645 -0.0301 -0.0867  0.0569
 8385TIP3   OH246569   0.623   4.790   2.236 -0.9244 -0.5837  0.1329
 8385TIP3    H146570   0.600   4.763   2.147 -0.7959  0.0948 -0.1105
 8385TIP3    H246571   0.643   4.708   2.282 -1.2684 -0.9594 -0.3816
 8386TIP3   OH246572   0.056   1.450   3.481  0.3750  0.3868 -0.0106
 8386TIP3    H146573   0.107   1.385   3.530  2.0737 -0.9208 -3.3523
 8386TIP3    H246574   0.074   1.533   3.526 -0.2734 -1.1135  3.1447
 8387TIP3   OH246575   2.836   4.173   1.533  0.2537  0.5417 -0.2768
 8387TIP3    H146576   2.910   4.114   1.549  0.1363  0.4079 -0.2320
 8387TIP3    H246577   2.870   4.236   1.469  0.9885  1.5914  1.1303
 8388TIP3   OH246578   2.937   5.299  16.717  0.9875  0.2034  0.2510
 8388TIP3    H146579   2.882   5.224  16.739  0.7905 -0.0161 -0.9486
 8388TIP3    H246580   2.909   5.324  16.629  0.4665  2.2182  0.9691
 8389TIP3   OH246581   2.027   2.851   4.788  0.7663 -0.5854  0.0431
 8389TIP3    H146582   2.073   2.851   4.704  2.4828  0.4506  0.9425
 8389TIP3    H246583   1.935   2.839   4.765  1.3825 -1.9284 -1.8662
 8390TIP3   OH246584   0.362   5.865   4.075  0.5053 -0.2876  0.4315
 8390TIP3    H146585   0.425   5.936   4.080  0.9768 -0.4909 -1.8992
 8390TIP3    H246586   0.282   5.901   4.112  1.5382  0.4575  2.0260
 8391TIP3   OH246587   5.443   2.309  17.119 -0.4044 -0.0976  0.6586
 8391TIP3    H146588   5.436   2.214  17.109  1.6579 -0.1760 -0.3319
 8391TIP3    H246589   5.353   2.339  17.124 -1.1404 -1.9251 -0.9424
 8392TIP3   OH246590   1.252   1.438  14.555 -0.4019 -0.5728 -0.3704
 8392TIP3    H146591   1.304   1.430  14.635  0.1845 -2.0689 -0.8824
 8392TIP3    H246592   1.172   1.482  14.583 -0.8785 -2.4599  1.3782
 8393TIP3   OH246593   3.698   0.205   5.030 -0.0788  0.5267 -0.3960
 8393TIP3    H146594   3.679   0.257   5.108 -0.6801  0.8721 -0.7746
 8393TIP3    H246595   3.793   0.212   5.019  0.0245  0.3878  0.3617
 8394TIP3   OH246596   3.921   4.942  16.721 -0.0507 -0.4056 -0.5996
 8394TIP3    H146597   3.953   5.021  16.676  1.0783 -0.3564  0.2493
 8394TIP3    H246598   3.934   4.871  16.658  0.9214 -0.2394 -0.5904
 8395TIP3   OH246599   4.517   6.751   5.642 -0.3712  0.1369  0.0461
 8395TIP3    H146600   4.511   6.664   5.602  2.8977  0.2558 -0.7764
 8395TIP3    H246601   4.520   6.733   5.736  0.1621 -0.6472 -0.1128
 8396TIP3   OH246602   1.656   5.981   5.537  0.4189 -0.1428  0.3457
 8396TIP3    H146603   1.600   5.932   5.476  0.7343  1.4475 -1.2817
 8396TIP3    H246604   1.727   6.015   5.482  0.7975  1.1894  1.6209
 8397TIP3   OH246605   4.100   4.259   1.762  0.5108  0.0810  0.6333
 8397TIP3    H146606   4.159   4.284   1.691  2.1270  2.6418  2.7724
 8397TIP3    H246607   4.126   4.170   1.786  2.7558  0.7458  0.7447
 8398TIP3   OH246608   6.015   6.218  12.078  0.1745  0.1838 -0.1902
 8398TIP3    H146609   5.946   6.267  12.033  1.1610  3.6828  1.9106
 8398TIP3    H246610   6.096   6.258  12.047  1.1140 -1.3474  0.2554
 8399TIP3   OH246611   4.422   2.640  16.508 -0.1225 -0.2712  0.2566
 8399TIP3    H146612   4.335   2.603  16.521 -0.8851  1.1841 -0.6661
 8399TIP3    H246613   4.436   2.696  16.585 -0.4584  0.3827 -0.1629
 8400TIP3   OH246614   5.985   3.763   2.512  0.0370 -0.6195  0.3078
 8400TIP3    H146615   5.941   3.817   2.447  0.2829  0.7092  1.2269
 8400TIP3    H246616   5.930   3.769   2.590  1.1239 -0.0352  1.0405
 8401TIP3   OH246617   1.878   3.915   3.191  0.0102 -0.7922  0.3750
 8401TIP3    H146618   1.829   3.950   3.116  1.5163 -1.6614 -1.0432
 8401TIP3    H246619   1.843   3.827   3.202 -0.7333 -0.4047  1.1907
 8402TIP3   OH246620   4.288   3.900   2.979 -0.2025  0.0017  0.3457
 8402TIP3    H146621   4.228   3.964   3.018  0.5710 -0.2742  2.0323
 8402TIP3    H246622   4.342   3.951   2.919  1.7490  1.3489  3.1554
 8403TIP3   OH246623   1.667   0.125   3.369 -0.5028  0.0848 -0.1521
 8403TIP3    H146624   1.573   0.141   3.375 -0.1682  1.9533  0.3962
 8403TIP3    H246625   1.704   0.209   3.344  1.1399 -0.3634  0.7193
 8404TIP3   OH246626   0.802   0.368   1.883  0.3176 -0.1951  0.3681
 8404TIP3    H146627   0.748   0.409   1.816  0.3250  1.1980  1.1938
 8404TIP3    H246628   0.745   0.303   1.925 -0.4401  0.6562  0.6571
 8405TIP3   OH246629   3.824   6.329  13.011  0.0505  0.4777 -0.1099
 8405TIP3    H146630   3.799   6.387  12.939  0.7996 -2.0623 -2.5221
 8405TIP3    H246631   3.745   6.319  13.063  0.0692  4.1218  0.7605
 8406TIP3   OH246632   4.221   5.832  17.196  0.9503  0.3459  0.6015
 8406TIP3    H146633   4.149   5.866  17.144  1.6356 -0.7725 -1.0929
 8406TIP3    H246634   4.299   5.874  17.160  1.3615  0.1188  1.2100
 8407TIP3   OH246635   4.605   0.803   1.539  0.4138 -0.8030  0.3550
 8407TIP3    H146636   4.583   0.868   1.472 -0.8206 -0.2334  1.2974
 8407TIP3    H246637   4.695   0.823   1.564  0.8607 -0.9626 -1.0564
 8408TIP3   OH246638   5.426   2.320   1.394  0.1327 -0.4666  0.6249
 8408TIP3    H146639   5.521   2.311   1.399  0.4656  2.1764 -0.5756
 8408TIP3    H246640   5.396   2.298   1.482  1.9316 -0.2248  1.3231
 8409TIP3   OH246641   2.980   1.738  12.637  0.1729  0.1777 -0.6666
 8409TIP3    H146642   2.931   1.806  12.685  1.0439 -0.8880  1.8593
 8409TIP3    H246643   2.964   1.658  12.687  2.5917 -0.6258 -1.1234
 8410TIP3   OH246644   0.538   3.986   2.932 -0.3942 -0.1403  0.6766
 8410TIP3    H146645   0.500   3.904   2.965 -1.0945 -0.5896 -1.1747
 8410TIP3    H246646   0.568   3.964   2.844  0.6083  1.2627  0.6603
 8411TIP3   OH246647   3.890   1.568  12.806 -0.0842  0.0181 -0.1897
 8411TIP3    H146648   3.882   1.520  12.724  0.9510 -1.9160  0.7878
 8411TIP3    H246649   3.873   1.502  12.874  1.2479  1.0720  1.2028
 8412TIP3   OH246650   4.709   5.436   0.013  0.4129  0.0661  0.3153
 8412TIP3    H146651   4.710   5.366  -0.052  3.6701  0.9142 -0.5951
 8412TIP3    H246652   4.750   5.398   0.091  0.7088  0.4801  0.3612
 8413TIP3   OH246653   5.042   2.851  11.397 -0.5487  0.2763  0.0386
 8413TIP3    H146654   4.971   2.793  11.426 -0.6980 -0.0186 -0.9077
 8413TIP3    H246655   5.116   2.828  11.454 -0.6178 -0.8247 -0.2960
 8414TIP3   OH246656   0.223   2.976   0.623 -0.0967  0.6729  0.3240
 8414TIP3    H146657   0.222   2.984   0.718  0.3764  1.2775  0.2823
 8414TIP3    H246658   0.133   2.953   0.599  0.2654 -1.7380  1.0946
 8415TIP3   OH246659   1.804   2.068  16.068 -0.4476 -0.0370  0.4207
 8415TIP3    H146660   1.834   2.131  16.002  1.4607 -0.3071  0.9985
 8415TIP3    H246661   1.743   2.011  16.021  0.4790  0.1116 -0.9717
 8416TIP3   OH246662   3.959   1.693   1.962 -0.2460  0.0547 -0.0997
 8416TIP3    H146663   4.022   1.625   1.938  0.9644  0.7097  1.1510
 8416TIP3    H246664   3.919   1.718   1.879  0.4348 -1.0516 -0.7869
 8417TIP3   OH246665   1.088   0.706   0.412 -0.3332  0.6116 -1.0568
 8417TIP3    H146666   1.160   0.758   0.448 -1.0450  0.6357  0.3905
 8417TIP3    H246667   1.120   0.674   0.328  1.7788 -0.2357  0.0350
 8418TIP3   OH246668   1.541   0.033  13.023 -0.1748 -0.3166 -0.0245
 8418TIP3    H146669   1.455  -0.009  13.020 -0.5318  0.3864  0.1810
 8418TIP3    H246670   1.559   0.057  12.933  0.1976 -1.2291 -0.2039
 8419TIP3   OH246671   5.101   6.001  15.081  0.4610  0.7528 -0.0270
 8419TIP3    H146672   5.168   6.065  15.054 -1.0221  1.7764 -1.3749
 8419TIP3    H246673   5.084   5.950  15.002  0.7309 -0.5064  0.7198
 8420TIP3   OH246674   3.577   1.003  11.183 -0.0967 -0.3282 -0.3788
 8420TIP3    H146675   3.623   0.990  11.099 -0.0990  0.4263 -0.5020
 8420TIP3    H246676   3.643   0.982  11.249  0.8026  1.8070 -0.5385
 8421TIP3   OH246677   3.370   3.240  15.044  0.6493 -0.5420  0.1057
 8421TIP3    H146678   3.453   3.216  15.084  0.4968  0.2169  0.8925
 8421TIP3    H246679   3.313   3.165  15.061  0.3644  0.0677  1.9877
 8422TIP3   OH246680   0.036   0.530  10.567  0.2936  0.0334 -0.6865
 8422TIP3    H146681   0.101   0.464  10.541 -0.3758 -0.4179 -1.2214
 8422TIP3    H246682   0.066   0.610  10.524 -0.0993 -0.4190 -1.8233
 8423TIP3   OH246683   0.620   6.265  12.268 -0.2459  0.1520  0.4782
 8423TIP3    H146684   0.564   6.187  12.267  0.0731 -0.0998  1.8732
 8423TIP3    H246685   0.709   6.231  12.257 -0.1893  0.4111  0.0991
 8424TIP3   OH246686   3.757   5.284   5.790 -0.2848  0.0636 -0.5278
 8424TIP3    H146687   3.835   5.232   5.769 -0.4037 -0.9607  1.4519
 8424TIP3    H246688   3.770   5.366   5.743  1.3693 -0.5849 -1.2573
 8425TIP3   OH246689   1.427   5.247   2.792 -0.3184 -0.0491  0.9672
 8425TIP3    H146690   1.495   5.229   2.856 -0.7127 -0.8613  1.1590
 8425TIP3    H246691   1.444   5.187   2.720 -1.2487 -0.7715  1.3312
 8426TIP3   OH246692   4.395   6.105   6.893 -0.5747  0.2402  0.1514
 8426TIP3    H146693   4.394   6.016   6.857  0.6510  0.4604 -0.4282
 8426TIP3    H246694   4.325   6.104   6.959  0.8366 -1.7679  1.6821
 8427TIP3   OH246695   5.358   0.719   0.654 -0.3477 -0.2521  0.0375
 8427TIP3    H146696   5.374   0.812   0.642  0.4672 -0.1609  1.6322
 8427TIP3    H246697   5.429   0.689   0.711 -0.4675 -1.8957 -0.6405
 8428TIP3   OH246698   4.280   4.804  12.569 -0.1344 -0.0657  0.4865
 8428TIP3    H146699   4.301   4.897  12.569  0.6020 -0.2197 -0.9640
 8428TIP3    H246700   4.280   4.779  12.477 -0.6644 -1.4269  0.8422
 8429TIP3   OH246701   3.965   0.163   4.801  0.0354 -0.6855 -0.1766
 8429TIP3    H146702   3.957   0.073   4.769  2.7987 -0.7767 -0.7294
 8429TIP3    H246703   3.994   0.154   4.892 -2.0969 -0.3550  0.5552
 8430TIP3   OH246704   0.982   4.680  16.804  0.3804  0.1634 -0.3377
 8430TIP3    H146705   0.890   4.703  16.819  0.7035  1.5490 -0.3637
 8430TIP3    H246706   0.979   4.613  16.735 -0.5741  0.7136 -0.8497
 8431TIP3   OH246707   3.303   1.869  12.316  0.0452  0.7156  0.0187
 8431TIP3    H146708   3.236   1.937  12.324  0.7305  1.1385  3.0201
 8431TIP3    H246709   3.379   1.905  12.362  0.9013 -1.4839  0.3833
 8432TIP3   OH246710   5.324   4.996  13.982  0.3260  0.1681  0.8162
 8432TIP3    H146711   5.240   5.027  14.016 -0.4379 -1.7493  0.7259
 8432TIP3    H246712   5.309   4.982  13.889  0.2372 -1.7892  1.1048
 8433TIP3   OH246713   5.741   5.288  11.902  0.3020 -0.0008  0.6925
 8433TIP3    H146714   5.715   5.265  11.991  0.1466 -1.3759  0.3061
 8433TIP3    H246715   5.836   5.294  11.905  0.4008 -1.4281  0.6489
 8434TIP3   OH246716   2.447   6.128  13.960  0.1271 -0.6252 -0.1033
 8434TIP3    H146717   2.534   6.166  13.946 -0.3204  1.0210  1.4908
 8434TIP3    H246718   2.421   6.097  13.873  2.0149 -0.5234 -0.7315
 8435TIP3   OH246719   0.739   0.704   3.349  0.0735  1.1173 -0.1821
 8435TIP3    H146720   0.830   0.721   3.323 -0.1939  1.7743 -0.6922
 8435TIP3    H246721   0.736   0.610   3.364  0.3641  0.7982 -2.0296
 8436TIP3   OH246722   6.410   3.851  15.859 -0.1007 -0.4379  0.1249
 8436TIP3    H146723   6.427   3.943  15.877  0.5181 -0.8904  1.8975
 8436TIP3    H246724   6.337   3.852  15.797  0.7087  1.2682 -0.8373
 8437TIP3   OH246725   3.675   5.081  15.036 -0.2039  0.4825 -0.4295
 8437TIP3    H146726   3.620   5.138  15.091 -0.0644  0.0168  0.2082
 8437TIP3    H246727   3.733   5.141  14.989 -0.0872  0.8751  0.2065
 8438TIP3   OH246728   4.870   3.567   4.355  0.1769 -0.1357  0.5077
 8438TIP3    H146729   4.850   3.496   4.294  1.0403  0.1239 -0.0804
 8438TIP3    H246730   4.955   3.600   4.326 -0.4483  1.4574  0.4688
 8439TIP3   OH246731   4.205   0.142  16.500 -0.3013  0.4529 -0.4370
 8439TIP3    H146732   4.149   0.071  16.533 -0.4127  1.1582  0.9429
 8439TIP3    H246733   4.187   0.215  16.559  2.3732  0.5867  0.2500
 8440TIP3   OH246734   0.364   3.079  15.346 -0.7498  0.4991 -0.3909
 8440TIP3    H146735   0.388   3.042  15.260 -1.3189  1.0523 -0.7946
 8440TIP3    H246736   0.423   3.036  15.408 -1.0657 -0.7338 -0.9221
 8441TIP3   OH246737   1.641   3.976   6.752  0.3332 -0.1554 -0.1537
 8441TIP3    H146738   1.669   4.035   6.683  2.0808 -0.2424  0.4550
 8441TIP3    H246739   1.707   3.907   6.754  1.3798  0.8240  2.7932
 8442TIP3   OH246740   5.171   3.815   2.554  0.6842 -0.1650 -0.0267
 8442TIP3    H146741   5.166   3.818   2.649 -4.4589  1.9899 -0.2203
 8442TIP3    H246742   5.200   3.903   2.529 -1.9175  0.5931 -0.5236
 8443TIP3   OH246743   6.438   2.889   2.132 -0.4042 -0.1751 -0.2167
 8443TIP3    H146744   6.488   2.835   2.194 -0.8620 -0.2424  0.1011
 8443TIP3    H246745   6.496   2.900   2.057 -0.0956 -0.6494 -0.0511
 8444TIP3   OH246746   2.287   2.483  13.498  0.1822  0.1826 -0.6465
 8444TIP3    H146747   2.203   2.529  13.500  0.6350  0.9688  1.1585
 8444TIP3    H246748   2.301   2.454  13.588  1.5240 -0.5339 -1.0729
 8445TIP3   OH246749   2.418   3.739  11.428 -0.5338 -0.1804  0.2331
 8445TIP3    H146750   2.385   3.797  11.497 -0.4613  1.1838 -0.8524
 8445TIP3    H246751   2.352   3.743  11.360  1.9722  2.9151 -2.1633
 8446TIP3   OH246752   0.994   6.233  11.930 -0.0515 -0.0310 -0.0901
 8446TIP3    H146753   0.957   6.304  11.982  0.2228 -0.1313  0.2394
 8446TIP3    H246754   1.054   6.188  11.989 -2.0903 -2.0755  0.4884
 8447TIP3   OH246755   0.403   2.995  16.541  0.2275  0.4312 -0.2204
 8447TIP3    H146756   0.384   3.089  16.539 -0.9790  0.2870  2.1203
 8447TIP3    H246757   0.351   2.958  16.471 -2.4732  1.0368  1.3929
 8448TIP3   OH246758   5.262   1.293  16.382  0.2021  0.2389  0.6054
 8448TIP3    H146759   5.325   1.235  16.340 -1.0679  0.7653 -2.1409
 8448TIP3    H246760   5.177   1.262  16.351 -0.7134  1.2492  2.0787
 8449TIP3   OH246761   2.821   4.554  12.516  0.2550  0.3770  0.0198
 8449TIP3    H146762   2.833   4.553  12.421 -2.9484  1.8249 -0.4554
 8449TIP3    H246763   2.875   4.628  12.546 -0.3868  1.2484 -0.9420
 8450TIP3   OH246764   5.757   2.908   1.571  0.2687 -0.1668  0.0922
 8450TIP3    H146765   5.849   2.935   1.573  0.5591 -0.8970 -2.3085
 8450TIP3    H246766   5.758   2.816   1.598  0.4237 -0.5822 -1.2939
 8451TIP3   OH246767   1.476   3.589   5.252  0.7778 -0.2936 -0.0016
 8451TIP3    H146768   1.468   3.568   5.345  1.0767  2.3841  0.6829
 8451TIP3    H246769   1.431   3.518   5.207 -1.1874 -0.5633  2.2889
 8452TIP3   OH246770   2.076   5.092  12.774 -0.8174  0.3985 -0.0584
 8452TIP3    H146771   2.039   5.169  12.817 -2.6459  0.3194 -1.3891
 8452TIP3    H246772   2.081   5.117  12.682 -1.5651 -1.1028 -0.5282
 8453TIP3   OH246773   3.046   0.165   1.981 -0.5316  0.4117  0.3099
 8453TIP3    H146774   3.093   0.226   1.924  0.4997 -0.5147  0.1689
 8453TIP3    H246775   3.019   0.094   1.923 -0.5809  0.0797  0.7393
 8454TIP3   OH246776   5.762   4.957  11.913 -0.2389  0.0336 -0.3796
 8454TIP3    H146777   5.767   4.942  12.007 -0.3687  0.2760 -0.3333
 8454TIP3    H246778   5.853   4.955  11.884 -0.1352  0.7117 -0.1282
 8455TIP3   OH246779   0.620   3.802   0.706 -0.4339 -0.1088  0.2500
 8455TIP3    H146780   0.626   3.897   0.697 -0.3260 -0.2449 -1.1172
 8455TIP3    H246781   0.635   3.768   0.618  1.2948 -1.4829  1.0479
 8456TIP3   OH246782   0.884   0.726   2.938  0.2709 -0.3337  0.1471
 8456TIP3    H146783   0.797   0.692   2.916  0.4942 -0.1833 -0.9883
 8456TIP3    H246784   0.891   0.807   2.887  0.4174  0.5355  1.5168
 8457TIP3   OH246785   6.650   0.809   3.842  0.2088 -0.2299  0.2422
 8457TIP3    H146786   6.587   0.767   3.900  0.3875 -1.2256 -0.2855
 8457TIP3    H246787   6.599   0.879   3.800  0.0280  0.3786  1.4323
 8458TIP3   OH246788   2.227   3.905  12.509 -0.0223  0.6770 -0.4009
 8458TIP3    H146789   2.236   3.958  12.588 -1.9074 -0.3308  0.5378
 8458TIP3    H246790   2.145   3.934  12.470 -1.2727 -1.7106  0.3203
 8459TIP3   OH246791   3.515   5.296  12.968 -0.1216 -0.1140 -0.3872
 8459TIP3    H146792   3.506   5.305  12.874 -1.0337  0.2679 -0.2650
 8459TIP3    H246793   3.451   5.228  12.992  1.2940 -1.4500 -0.2677
 8460TIP3   OH246794   1.051   6.043   0.471  0.3771 -0.0309  0.1018
 8460TIP3    H146795   0.990   5.971   0.454 -0.3160 -0.0373  2.4842
 8460TIP3    H246796   1.133   5.999   0.495  1.0294 -0.0156 -2.0169
 8461TIP3   OH246797   6.175   3.029   1.087  0.4971 -0.4412  0.0843
 8461TIP3    H146798   6.129   2.966   1.143  0.0426  0.9275  1.2937
 8461TIP3    H246799   6.129   3.112   1.103  3.1251  0.8780  1.0078
 8462TIP3   OH246800   0.646   0.062   6.254  0.7537 -0.2691 -0.4847
 8462TIP3    H146801   0.667  -0.014   6.200 -0.1708  0.3093 -1.6951
 8462TIP3    H246802   0.576   0.106   6.206  1.7666  1.7362 -0.1758
 8463TIP3   OH246803   6.653   5.809  12.716 -0.0496  0.8694  0.6277
 8463TIP3    H146804   6.603   5.756  12.779 -0.3362 -1.0477 -1.1188
 8463TIP3    H246805   6.694   5.744  12.658 -0.3335  2.5605 -1.5483
 8464TIP3   OH246806   1.402   4.629   4.514 -0.3637 -0.4459  0.3632
 8464TIP3    H146807   1.434   4.625   4.424  0.2029 -2.5735  0.6202
 8464TIP3    H246808   1.479   4.654   4.566 -0.1386 -1.3433  0.4813
 8465TIP3   OH246809   2.526   4.155  10.509  0.1909 -0.3018 -0.0668
 8465TIP3    H146810   2.545   4.197  10.425 -0.8786  0.0227 -0.1469
 8465TIP3    H246811   2.607   4.166  10.560  0.3042  0.8501 -0.4865
 8466TIP3   OH246812   2.275   6.078  13.090  0.1006 -0.4756 -0.1867
 8466TIP3    H146813   2.352   6.128  13.116  0.5708 -0.6018 -1.3127
 8466TIP3    H246814   2.278   5.999  13.143  0.6696 -0.4055 -0.1137
 8467TIP3   OH246815   1.002   0.918   4.706 -0.3595  0.3659 -0.0234
 8467TIP3    H146816   0.940   0.848   4.691  0.1482 -0.0966  0.0232
 8467TIP3    H246817   1.033   0.904   4.796 -1.4643  1.6003  0.5683
 8468TIP3   OH246818   1.774   5.955   2.213 -0.0087 -0.2429 -0.0042
 8468TIP3    H146819   1.834   5.933   2.284 -2.7876 -3.4798  1.5058
 8468TIP3    H246820   1.826   5.945   2.133  1.9301 -1.0672  1.3204
 8469TIP3   OH246821   0.185   4.341  11.231  0.4178  0.3024 -0.0025
 8469TIP3    H146822   0.204   4.273  11.166 -0.3192  0.3651 -0.2897
 8469TIP3    H246823   0.164   4.293  11.311 -0.0095  0.1917 -0.1806
 8470TIP3   OH246824   6.771   0.864   6.293 -0.1336 -0.0458  0.2234
 8470TIP3    H146825   6.859   0.903   6.294 -0.3940  0.5403 -0.1643
 8470TIP3    H246826   6.744   0.869   6.202  0.3593 -2.3038 -0.0859
 8471TIP3   OH246827   0.129   3.956   2.792  0.0805  0.1508  0.3383
 8471TIP3    H146828   0.126   3.988   2.702  1.0121  1.2302  0.6859
 8471TIP3    H246829   0.195   4.010   2.835 -0.1228 -0.5736  1.5907
 8472TIP3   OH246830   4.635   3.410   0.348  0.1436 -0.3347 -0.2994
 8472TIP3    H146831   4.638   3.420   0.253 -0.8799  1.7087 -0.1481
 8472TIP3    H246832   4.686   3.331   0.365  3.3953  1.2403 -2.2183
 8473TIP3   OH246833   4.245   0.645   5.102 -0.0288 -0.0248  0.3454
 8473TIP3    H146834   4.224   0.606   5.017 -0.0302 -0.9105  0.7478
 8473TIP3    H246835   4.238   0.572   5.164  2.8393 -0.0246  0.7075
 8474TIP3   OH246836   0.459   3.054   3.243 -0.2934  0.4082  0.2569
 8474TIP3    H146837   0.509   3.114   3.298  1.3569  0.4297 -1.2010
 8474TIP3    H246838   0.503   2.969   3.253  0.4814  0.5715 -1.5463
 8475TIP3   OH246839   0.862   2.740  11.873 -0.7269 -0.1260 -0.4508
 8475TIP3    H146840   0.825   2.809  11.929  0.1656 -0.0919  0.1063
 8475TIP3    H246841   0.799   2.731  11.802 -1.1864  0.8032 -0.1731
 8476TIP3   OH246842   4.412   2.130   1.859 -0.2711  0.0549 -0.0243
 8476TIP3    H146843   4.368   2.190   1.918 -0.2355  0.3754 -0.3231
 8476TIP3    H246844   4.473   2.082   1.916  0.7627  1.3240 -0.0238
 8477TIP3   OH246845   6.117   3.845  15.254  0.4769  0.1674  0.5172
 8477TIP3    H146846   6.069   3.917  15.293 -2.0363 -1.3844  0.4119
 8477TIP3    H246847   6.180   3.819  15.321  1.5309  2.5220  0.4908
 8478TIP3   OH246848   1.419   4.111  15.509 -0.1874 -0.0243 -0.2610
 8478TIP3    H146849   1.433   4.051  15.435 -1.2095 -0.8249  0.1811
 8478TIP3    H246850   1.493   4.171  15.504  2.3838 -2.9305  0.8364
 8479TIP3   OH246851   1.194   6.486  14.391 -0.0488  0.2319  0.1675
 8479TIP3    H146852   1.132   6.540  14.441 -1.1794 -1.3790  0.5730
 8479TIP3    H246853   1.225   6.543  14.321 -0.1113  1.8475  1.4426
 8480TIP3   OH246854   6.765   6.302   4.980 -0.6276  0.6979 -0.2464
 8480TIP3    H146855   6.727   6.386   4.956  0.4164  1.4985  0.8159
 8480TIP3    H246856   6.851   6.324   5.016 -0.3246 -0.8257  0.0167
 8481TIP3   OH246857   3.908   4.756   1.317  0.3996 -0.0139  0.8979
 8481TIP3    H146858   3.902   4.831   1.375 -0.5797  1.5693 -1.1775
 8481TIP3    H246859   3.984   4.774   1.261 -0.6936  0.1989 -0.5750
 8482TIP3   OH246860   4.498   3.593   2.675  0.2511 -0.4962 -0.0079
 8482TIP3    H146861   4.589   3.624   2.677  0.4188 -1.0177  0.6196
 8482TIP3    H246862   4.493   3.537   2.598  0.6660 -1.0671  0.3756
 8483TIP3   OH246863   2.161   3.270   3.483 -0.2577  0.4431  0.0806
 8483TIP3    H146864   2.158   3.230   3.570  0.0038  1.5150  0.5907
 8483TIP3    H246865   2.069   3.276   3.456 -0.2191 -2.1052 -0.7670
 8484TIP3   OH246866   5.564   0.465  13.917  0.9900 -0.1818  0.3627
 8484TIP3    H146867   5.500   0.484  13.985  1.3614  1.4212  0.2958
 8484TIP3    H246868   5.512   0.432  13.844  0.4273 -0.4480  0.8779
 8485TIP3   OH246869   4.751   1.456   4.712  0.3959  0.4408  0.0321
 8485TIP3    H146870   4.824   1.412   4.668  0.2326  1.1129 -0.9183
 8485TIP3    H246871   4.767   1.549   4.699  0.3117  0.6526  1.3542
 8486TIP3   OH246872   0.349   1.491   2.751  0.2256  0.3561 -0.3981
 8486TIP3    H146873   0.355   1.580   2.716 -1.1863  0.5706 -0.0962
 8486TIP3    H246874   0.324   1.503   2.843  1.1180 -0.3188 -0.0579
 8487TIP3   OH246875   0.051   3.334   4.610  0.0102  0.1458 -0.0492
 8487TIP3    H146876   0.023   3.423   4.586  1.0090  0.5794  0.3386
 8487TIP3    H246877   0.146   3.341   4.620  0.1793 -1.1208 -0.6353
 8488TIP3   OH246878   2.083   2.986  16.265 -0.0523 -0.7663 -0.3120
 8488TIP3    H146879   1.988   2.985  16.254 -0.2650 -1.2655  1.3710
 8488TIP3    H246880   2.096   3.018  16.355  1.3665 -0.6203 -0.5573
 8489TIP3   OH246881   4.113   3.304   2.072 -0.1707  0.0631  0.1829
 8489TIP3    H146882   4.109   3.232   2.134  1.0493  1.0030  1.3916
 8489TIP3    H246883   4.165   3.271   1.999  0.7310 -0.1468  0.9218
 8490TIP3   OH246884   1.401   5.821  16.902 -0.1408  0.2365 -0.2709
 8490TIP3    H146885   1.452   5.862  16.832 -0.3069  1.0860  0.1078
 8490TIP3    H246886   1.319   5.794  16.860 -0.1706  0.5910 -0.4395
 8491TIP3   OH246887   1.788   0.374   0.285  0.2041 -0.4426 -0.2951
 8491TIP3    H146888   1.790   0.448   0.346  1.0640  0.9337 -1.9613
 8491TIP3    H246889   1.862   0.319   0.312  2.4652  1.6982 -1.9279
 8492TIP3   OH246890   5.313   2.417  12.282 -0.0495  0.1070  0.5337
 8492TIP3    H146891   5.367   2.356  12.332  1.2119 -0.9904 -2.0674
 8492TIP3    H246892   5.349   2.504  12.301  1.1880 -0.4137  0.5602
 8493TIP3   OH246893   3.504   2.060   4.511  0.4084  0.3477 -0.0012
 8493TIP3    H146894   3.555   2.090   4.436  1.0647  0.1970  0.3868
 8493TIP3    H246895   3.414   2.055   4.478  0.6018  0.8443 -0.6144
 8494TIP3   OH246896   0.548   5.924  12.291 -0.0220  0.2427 -0.8468
 8494TIP3    H146897   0.543   5.873  12.210 -0.4305 -0.2235 -0.5303
 8494TIP3    H246898   0.641   5.949  12.298  0.3759 -1.2787 -0.4972
 8495TIP3   OH246899   4.476   6.384   0.794  0.1833 -0.3084 -0.2783
 8495TIP3    H146900   4.440   6.404   0.708  1.4685 -1.5036 -1.0943
 8495TIP3    H246901   4.553   6.440   0.802  0.9019 -1.2562 -0.5079
 8496TIP3   OH246902   6.169   3.257   0.451 -0.8794  0.1549 -0.1094
 8496TIP3    H146903   6.161   3.293   0.363  1.5162 -0.4068 -0.5920
 8496TIP3    H246904   6.237   3.311   0.492 -1.5143 -0.0133  1.1685
 8497TIP3   OH246905   0.400   0.115  10.346  0.2065 -0.2462  0.1783
 8497TIP3    H146906   0.403   0.190  10.287  2.5276 -0.7788 -0.4224
 8497TIP3    H246907   0.307   0.093  10.351 -0.4526  2.2824 -0.0955
 8498TIP3   OH246908   3.939   6.683   4.746  0.3315 -0.2252 -0.8475
 8498TIP3    H146909   3.850   6.647   4.741  0.1591 -0.0477  0.7915
 8498TIP3    H246910   3.994   6.609   4.772  0.2865  0.2204  0.5356
 8499TIP3   OH246911   5.536   0.146   0.319 -0.0175 -0.1468  0.2828
 8499TIP3    H146912   5.487   0.225   0.341 -1.8252 -1.4429  1.0353
 8499TIP3    H246913   5.469   0.081   0.297  1.4194 -1.5652 -0.0322
 8500TIP3   OH246914   6.266   4.645  14.771 -0.2678  0.8962 -0.3757
 8500TIP3    H146915   6.220   4.661  14.689 -0.5306  1.3825 -0.1360
 8500TIP3    H246916   6.285   4.732  14.806  1.5637  0.7013 -0.8625
 8501TIP3   OH246917   0.197   5.097  17.224  0.4778  0.8194 -0.4900
 8501TIP3    H146918   0.233   5.070  17.309 -3.6428 -0.0818  1.0901
 8501TIP3    H246919   0.186   5.192  17.231  1.0851  0.8811 -0.3908
 8502TIP3   OH246920   1.505   5.813   5.394  0.7613 -0.1054 -0.0923
 8502TIP3    H146921   1.506   5.762   5.475  2.9004  0.9694  0.5925
 8502TIP3    H246922   1.543   5.755   5.329 -0.0338 -0.6067 -0.1266
 8503TIP3   OH246923   0.287   5.393  15.986 -0.1606 -0.1844  0.5898
 8503TIP3    H146924   0.248   5.313  16.023 -1.4975  0.5946  0.8949
 8503TIP3    H246925   0.381   5.376  15.986 -0.3578 -1.3493  1.6370
 8504TIP3   OH246926   4.828   0.386  17.215  0.2802 -0.5644  0.6672
 8504TIP3    H146927   4.916   0.363  17.247  0.0222 -0.4556  1.4838
 8504TIP3    H246928   4.777   0.306  17.227  0.2864 -0.6519  0.1161
 8505TIP3   OH246929   2.507   1.186  10.456 -0.0703  0.1422 -0.6293
 8505TIP3    H146930   2.587   1.181  10.403 -0.4568  0.9935 -1.2887
 8505TIP3    H246931   2.497   1.097  10.491  1.6416  0.2376  0.1699
 8506TIP3   OH246932   4.282   5.497   2.474 -0.0777 -0.6776 -0.0024
 8506TIP3    H146933   4.368   5.465   2.500 -1.3925 -3.2673  1.4070
 8506TIP3    H246934   4.248   5.542   2.552 -0.4637 -0.6974 -0.1554
 8507TIP3   OH246935   2.371   1.201  12.575 -0.3546 -0.2013 -0.0176
 8507TIP3    H146936   2.389   1.274  12.634  0.0571 -0.0661 -0.3072
 8507TIP3    H246937   2.421   1.128  12.610  1.1086  0.2801 -1.0446
 8508TIP3   OH246938   1.732   3.694  16.445 -0.1331 -0.0195  0.1136
 8508TIP3    H146939   1.791   3.743  16.504 -0.8413 -0.0804  0.8830
 8508TIP3    H246940   1.676   3.643  16.504 -0.1265 -0.9272 -0.6516
 8509TIP3   OH246941   5.707   5.097   3.493 -0.1909  0.3767  0.0218
 8509TIP3    H146942   5.771   5.167   3.510 -0.3038  0.6605 -0.6902
 8509TIP3    H246943   5.630   5.144   3.462  0.0573 -0.1305 -1.3856
 8510TIP3   OH246944   1.285   2.810  15.814  0.3382 -0.9303 -0.1230
 8510TIP3    H146945   1.342   2.798  15.738  0.3228  1.4487 -0.5513
 8510TIP3    H246946   1.344   2.838  15.884  0.1384 -1.5689  0.2948
 8511TIP3   OH246947   3.212   0.148   4.047 -0.6875 -0.0790  0.1012
 8511TIP3    H146948   3.180   0.177   3.962 -0.1742  0.0440 -0.0544
 8511TIP3    H246949   3.307   0.138   4.035 -1.0040 -3.2836 -0.2782
 8512TIP3   OH246950   2.784   3.356  14.739  0.2317  0.3794 -0.1703
 8512TIP3    H146951   2.744   3.440  14.764  0.3247  0.9554 -1.8607
 8512TIP3    H246952   2.718   3.313  14.685  0.9648  0.2873 -1.0149
 8513TIP3   OH246953   0.336   3.757   5.593  0.2949  0.0610  0.3077
 8513TIP3    H146954   0.300   3.702   5.662  0.3759  1.0329  1.1503
 8513TIP3    H246955   0.268   3.822   5.576  0.0077 -0.5694 -1.0113
 8514TIP3   OH246956   1.671   6.147   3.884  0.2908  0.1883 -0.1941
 8514TIP3    H146957   1.757   6.145   3.924  0.4165 -0.8791 -0.4962
 8514TIP3    H246958   1.678   6.090   3.807 -0.2530  1.3216 -1.1114
 8515TIP3   OH246959   0.107   4.839  11.080 -0.0598  0.0519 -0.2754
 8515TIP3    H146960   0.110   4.766  11.018 -0.1154  1.1371 -1.5670
 8515TIP3    H246961   0.194   4.841  11.119  0.4931  0.3682 -1.5039
 8516TIP3   OH246962   4.992   1.156  16.575 -0.1752  0.1815 -0.0132
 8516TIP3    H146963   5.047   1.204  16.638 -1.4530  1.3587  0.2387
 8516TIP3    H246964   4.955   1.224  16.520 -0.0176 -0.7616 -1.2931
 8517TIP3   OH246965   1.170   5.893  11.507  0.3697 -0.2667 -0.4088
 8517TIP3    H146966   1.135   5.903  11.595 -1.9245 -2.0356 -1.0680
 8517TIP3    H246967   1.219   5.810  11.510 -0.6291 -0.8896 -1.0627
 8518TIP3   OH246968   1.006   4.960  12.288  0.0544  0.3384 -0.0406
 8518TIP3    H146969   0.916   4.966  12.255  0.0508 -1.3362 -0.3680
 8518TIP3    H246970   1.005   5.013  12.368 -0.6904  2.0115 -1.1494
 8519TIP3   OH246971   3.875   2.014  11.016  0.3109 -0.1969  0.6346
 8519TIP3    H146972   3.872   2.087  10.955  1.0023 -1.6374 -1.1828
 8519TIP3    H246973   3.829   2.045  11.094 -1.3741  1.3776 -0.9463
 8520TIP3   OH246974   3.230   0.367   0.928 -0.0209 -0.4607 -0.0524
 8520TIP3    H146975   3.252   0.341   0.839  0.1663 -2.1315  0.4651
 8520TIP3    H246976   3.279   0.447   0.943  0.2146 -0.3620 -1.3283
 8521TIP3   OH246977   6.555   5.351   6.654 -0.3524  0.4312  0.3883
 8521TIP3    H146978   6.472   5.330   6.612 -0.3658  0.0063  0.6268
 8521TIP3    H246979   6.608   5.272   6.644  0.1228  0.7950 -0.0054
 8522TIP3   OH246980   4.883   0.222   5.560 -0.1548 -0.3351  0.0802
 8522TIP3    H146981   4.816   0.192   5.622 -0.3429 -2.1878 -0.9815
 8522TIP3    H246982   4.840   0.290   5.510 -1.8158 -2.5526 -1.6262
 8523TIP3   OH246983   0.794   4.290   0.484  0.1767 -0.0485 -0.2338
 8523TIP3    H146984   0.735   4.232   0.437  1.5649 -0.0374 -2.0301
 8523TIP3    H246985   0.789   4.261   0.575 -0.7535 -1.5963 -0.7631
 8524TIP3   OH246986   0.732   2.504  13.328 -0.2019 -0.2628  0.0839
 8524TIP3    H146987   0.707   2.453  13.405 -0.5149  1.4903  1.1868
 8524TIP3    H246988   0.650   2.543  13.297  0.5417  2.5957  1.5451
 8525TIP3   OH246989   5.038   0.901   4.924  0.4269 -0.0698 -0.0139
 8525TIP3    H146990   5.058   0.992   4.904  0.1102 -0.1525 -0.6967
 8525TIP3    H246991   4.970   0.905   4.991 -0.2545  0.1878 -0.7248
 8526TIP3   OH246992   3.386   0.928   2.699 -0.0354 -0.2690  0.8316
 8526TIP3    H146993   3.319   0.956   2.636 -0.4003 -0.4060  1.1587
 8526TIP3    H246994   3.338   0.913   2.780  0.4581  0.0300  1.1787
 8527TIP3   OH246995   5.636   2.596   4.578 -0.2456  0.3915  0.1686
 8527TIP3    H146996   5.568   2.630   4.637  0.9283 -1.4395  2.6430
 8527TIP3    H246997   5.591   2.530   4.525 -0.7303  0.2516  0.7503
 8528TIP3   OH246998   1.509   5.196  14.057 -0.1725 -0.3557 -0.3487
 8528TIP3    H146999   1.470   5.152  14.132  0.6185  0.4466  0.5515
 8528TIP3    H247000   1.457   5.167  13.982 -0.7041 -1.4953  0.4476
 8529TIP3   OH247001   2.156   0.106   5.702  0.4508  0.0845 -0.1985
 8529TIP3    H147002   2.127   0.061   5.624 -0.8512  2.9476 -1.4240
 8529TIP3    H247003   2.121   0.054   5.775  1.4752 -2.4554 -1.4514
 8530TIP3   OH247004   5.117   2.677   2.663  0.0220 -0.3250 -0.0951
 8530TIP3    H147005   5.052   2.739   2.629 -0.9328 -0.3245  1.6544
 8530TIP3    H247006   5.150   2.718   2.743 -1.2822 -2.4288  1.5913
 8531TIP3   OH247007   1.397   0.690  11.324 -0.2910  0.5381 -0.1079
 8531TIP3    H147008   1.478   0.703  11.274 -0.8022  0.8508 -0.8594
 8531TIP3    H247009   1.425   0.639  11.400  0.4397 -0.2919 -0.8975
 8532TIP3   OH247010   0.274   0.637   2.244  0.2413  0.5940 -0.9542
 8532TIP3    H147011   0.317   0.699   2.184  1.3032 -0.0929 -0.9214
 8532TIP3    H247012   0.241   0.691   2.315  0.2584  1.2491 -1.4396
 8533TIP3   OH247013   0.180   3.526   4.046 -0.0508 -0.4295 -0.2850
 8533TIP3    H147014   0.092   3.493   4.030 -0.1817  0.2698 -1.0988
 8533TIP3    H247015   0.236   3.449   4.047 -0.6871 -0.8810  0.3069
 8534TIP3   OH247016   3.309   0.184   4.374  0.0170 -0.5431  0.6712
 8534TIP3    H147017   3.392   0.218   4.408 -0.8702 -0.6323  3.0061
 8534TIP3    H247018   3.309   0.091   4.399 -1.0028 -0.4258  1.1080
 8535TIP3   OH247019   5.619   0.212   4.787  0.0798 -0.0340  0.1444
 8535TIP3    H147020   5.709   0.234   4.764  0.2329 -1.2431 -0.4621
 8535TIP3    H247021   5.627   0.141   4.852 -0.4265 -0.5205 -0.3127
 8536TIP3   OH247022   5.796   2.228   5.177  0.8781 -0.3168 -0.4090
 8536TIP3    H147023   5.832   2.156   5.124  2.1122 -1.2734  1.6888
 8536TIP3    H247024   5.740   2.185   5.241  1.8065  0.5731  1.0099
 8537TIP3   OH247025   0.773   0.373  14.201  0.2621  0.6453  0.3319
 8537TIP3    H147026   0.740   0.300  14.149 -1.9265  1.0571  1.1122
 8537TIP3    H247027   0.748   0.451  14.153 -2.8170  1.0834  2.4615
 8538TIP3   OH247028   2.003   4.318  14.507  0.1276  0.0052  1.0353
 8538TIP3    H147029   1.933   4.378  14.481 -0.1713 -0.3024  1.1332
 8538TIP3    H247030   2.063   4.316  14.432 -1.0132 -1.3105  0.1431
 8539TIP3   OH247031   2.971   0.618   2.997  0.8607 -0.0317 -0.0808
 8539TIP3    H147032   2.999   0.652   3.082  0.0094 -0.5233  0.4064
 8539TIP3    H247033   2.972   0.523   3.008 -2.6795 -0.0633  0.5319
 8540TIP3   OH247034   2.444   1.772   4.553  0.2353  0.1053 -0.3491
 8540TIP3    H147035   2.475   1.762   4.643  1.0161 -0.6910 -0.6898
 8540TIP3    H247036   2.376   1.839   4.558  1.6115  1.4808  0.5197
 8541TIP3   OH247037   3.493   4.003  15.519  0.5068 -0.0544 -0.2438
 8541TIP3    H147038   3.521   3.913  15.505  1.0655  0.0869 -0.0576
 8541TIP3    H247039   3.518   4.049  15.439  0.2582 -0.0598 -0.3231
 8542TIP3   OH247040   6.020   2.331  13.916  0.7163  0.1280  0.1189
 8542TIP3    H147041   6.073   2.279  13.855  0.2473 -1.5322  1.1039
 8542TIP3    H247042   6.051   2.421  13.903  0.0704 -0.0469 -3.1266
 8543TIP3   OH247043   2.508   2.236  12.562  0.3327 -0.2592  0.0087
 8543TIP3    H147044   2.483   2.176  12.491  1.0525 -1.7078  0.9759
 8543TIP3    H247045   2.480   2.322  12.530 -0.8541 -1.1060 -1.3296
 8544TIP3   OH247046   4.662   4.948   3.127 -0.8214 -0.1890  0.1888
 8544TIP3    H147047   4.596   4.900   3.177  0.4106 -0.1921  1.8439
 8544TIP3    H247048   4.743   4.898   3.141 -0.0527  0.9638 -0.1386
 8545TIP3   OH247049   2.024   1.205   4.331  0.2469  0.0983 -0.3057
 8545TIP3    H147050   1.980   1.130   4.292  1.4543 -0.6853 -0.2024
 8545TIP3    H247051   1.957   1.247   4.385 -0.8050 -0.1098 -1.4387
 8546TIP3   OH247052   1.300   1.895   2.438  0.2082 -0.1216 -0.0264
 8546TIP3    H147053   1.358   1.968   2.458 -0.3181  0.1352  0.6005
 8546TIP3    H247054   1.350   1.817   2.463  0.8913 -0.0019 -1.0006
 8547TIP3   OH247055   4.319   0.457   2.784 -0.7152 -0.2494  0.1631
 8547TIP3    H147056   4.338   0.368   2.813 -0.3699  0.1462  1.1850
 8547TIP3    H247057   4.291   0.448   2.693 -0.1332 -1.3341  0.0890
 8548TIP3   OH247058   1.046   2.109   0.903  0.7750 -0.0957  0.0601
 8548TIP3    H147059   0.962   2.063   0.904  1.0429 -0.5793  0.3660
 8548TIP3    H247060   1.092   2.076   0.980  1.0736  0.4861  0.1312
 8549TIP3   OH247061   4.802   4.617  13.403 -0.1241 -0.4423 -0.5089
 8549TIP3    H147062   4.780   4.606  13.310 -1.3159 -1.2126 -0.1535
 8549TIP3    H247063   4.748   4.690  13.432  1.0460  0.4966 -0.6687
 8550TIP3   OH247064   4.023   3.670  17.057  0.0596 -0.7873 -0.2538
 8550TIP3    H147065   3.960   3.600  17.039 -1.1224  0.5162 -1.2605
 8550TIP3    H247066   4.063   3.690  16.972  0.3629 -0.2047  0.0159
 8551TIP3   OH247067   2.290   1.170   6.511  0.0583 -0.0034 -0.1974
 8551TIP3    H147068   2.339   1.143   6.433  2.1801  0.2775  0.9825
 8551TIP3    H247069   2.358   1.182   6.578 -1.7819 -0.9287  1.8863
 8552TIP3   OH247070   4.415   2.705  14.770 -0.1800  0.2279 -0.5424
 8552TIP3    H147071   4.344   2.754  14.730 -0.2686 -0.3328 -1.0904
 8552TIP3    H247072   4.468   2.771  14.815 -1.2188  0.6037  0.1386
 8553TIP3   OH247073   1.620   6.102  14.990  0.1159  0.1418  0.3775
 8553TIP3    H147074   1.568   6.108  15.070  1.3303 -0.5153  1.2279
 8553TIP3    H247075   1.609   6.012  14.961 -0.9158  0.5767 -0.6146
 8554TIP3   OH247076   1.007   2.866   4.644 -0.1084 -0.3014 -0.0904
 8554TIP3    H147077   1.061   2.945   4.635 -1.4716  0.3328 -3.8587
 8554TIP3    H247078   0.953   2.882   4.721 -0.7768  2.7937 -1.1008
 8555TIP3   OH247079   2.492   6.055  17.029  0.5275 -0.0468  0.3729
 8555TIP3    H147080   2.585   6.079  17.024  1.2895 -2.5834  1.5606
 8555TIP3    H247081   2.465   6.086  17.116  0.7505 -0.8661  0.7421
 8556TIP3   OH247082   0.143   2.837   5.168  0.4993  0.4846  0.6951
 8556TIP3    H147083   0.099   2.836   5.083  1.6890  0.7663  0.0739
 8556TIP3    H247084   0.184   2.751   5.175 -1.3793 -0.3590  1.9474
 8557TIP3   OH247085   4.518   5.919   3.237  0.1118 -0.2834  0.4135
 8557TIP3    H147086   4.562   5.903   3.320  0.9193  1.4658  0.3494
 8557TIP3    H247087   4.473   5.837   3.217  0.1937 -0.8329  2.3973
 8558TIP3   OH247088   1.434   6.547   4.126  0.0644  0.3678  0.5372
 8558TIP3    H147089   1.497   6.504   4.068  0.5696  2.9211 -0.8731
 8558TIP3    H247090   1.350   6.538   4.081  0.0331  0.1666  0.6350
 8559TIP3   OH247091   5.828   3.614   4.151  1.0031  0.1926 -0.2766
 8559TIP3    H147092   5.769   3.637   4.080 -0.6429  0.3515  1.1248
 8559TIP3    H247093   5.878   3.694   4.168 -1.2941  1.3428  1.3032
 8560TIP3   OH247094   6.129   3.542  13.918 -0.1728  0.0066 -0.3737
 8560TIP3    H147095   6.036   3.543  13.893 -0.0753 -0.3050 -0.7594
 8560TIP3    H247096   6.139   3.462  13.970  0.2034 -0.7755 -1.6202
 8561TIP3   OH247097   4.869   6.599   5.549  0.7656 -0.1162 -0.1417
 8561TIP3    H147098   4.877   6.656   5.472  1.5689  1.2226  0.9173
 8561TIP3    H247099   4.847   6.658   5.621  0.7646 -1.2633  0.8182
 8562TIP3   OH247100   2.632   1.475  12.716  0.5841  0.0448 -0.0345
 8562TIP3    H147101   2.639   1.418  12.793 -1.7320  0.0739  0.2355
 8562TIP3    H247102   2.720   1.511  12.705  0.1108  3.3829  5.2157
 8563TIP3   OH247103   5.852   2.243  14.801  0.4987 -0.1198 -0.2096
 8563TIP3    H147104   5.876   2.333  14.779 -0.9957  0.0614 -1.1176
 8563TIP3    H247105   5.920   2.215  14.862  0.9997  1.5999  0.0453
 8564TIP3   OH247106   2.502   4.515   5.896  0.2043 -0.0186  0.1253
 8564TIP3    H147107   2.509   4.492   5.804 -0.5101 -0.1121  0.0966
 8564TIP3    H247108   2.508   4.610   5.898 -1.5144  0.0943 -0.1705
 8565TIP3   OH247109   5.099   0.335  14.275  0.1017  0.0083 -0.0709
 8565TIP3    H147110   5.034   0.386  14.322  0.5711  2.5947 -2.1633
 8565TIP3    H247111   5.049   0.263  14.235 -1.0183  0.4716  0.4901
 8566TIP3   OH247112   1.262   0.675   3.927  0.5871 -0.3402 -0.0773
 8566TIP3    H147113   1.255   0.737   3.853 -0.8756 -0.8138 -0.3390
 8566TIP3    H247114   1.278   0.731   4.003 -1.4278  0.4239 -0.2017
 8567TIP3   OH247115   3.221   1.100   3.597  0.3040 -0.4395 -0.4186
 8567TIP3    H147116   3.127   1.109   3.579  0.0682 -2.3248 -0.2804
 8567TIP3    H247117   3.261   1.175   3.555 -1.4217  1.1878  0.7364
 8568TIP3   OH247118   4.156   5.137   1.311 -0.0372 -0.7290  0.3235
 8568TIP3    H147119   4.073   5.164   1.272  0.2386  1.1461  0.9846
 8568TIP3    H247120   4.155   5.175   1.399  2.7984  1.8881 -0.7069
 8569TIP3   OH247121   6.632   1.513   0.667 -0.0808  0.7771  0.2114
 8569TIP3    H147122   6.657   1.524   0.575 -2.4416  1.0763 -0.4123
 8569TIP3    H247123   6.712   1.480   0.709  0.4119 -1.6101 -2.3796
 8570TIP3   OH247124   0.238   2.805  16.361  0.0803  0.5178  0.6557
 8570TIP3    H147125   0.164   2.792  16.302  1.0054  0.2477 -0.4525
 8570TIP3    H247126   0.245   2.723  16.409  0.2134  0.2140  0.1234
 8571TIP3   OH247127   6.101   4.466  11.910 -0.5634  0.1134  0.1089
 8571TIP3    H147128   6.139   4.433  11.829  0.6041  1.2161  0.1873
 8571TIP3    H247129   6.168   4.449  11.976 -0.5251  1.3544  0.3982
 8572TIP3   OH247130   2.284   2.414  14.444 -0.1245  0.2583  0.5004
 8572TIP3    H147131   2.345   2.350  14.480 -2.4470 -3.1480 -1.3068
 8572TIP3    H247132   2.223   2.431  14.516 -0.1357 -0.4321  0.6629
 8573TIP3   OH247133   1.183   0.362   0.882  0.1141 -0.1748 -0.2295
 8573TIP3    H147134   1.206   0.429   0.947  1.4403  0.1383 -1.0125
 8573TIP3    H247135   1.134   0.409   0.815 -3.5296 -0.9552  1.7514
 8574TIP3   OH247136   2.892   5.699  11.651 -0.1488 -0.7463 -0.2670
 8574TIP3    H147137   2.912   5.606  11.663  3.1607  0.0380  0.6825
 8574TIP3    H247138   2.930   5.742  11.727 -1.2060  1.4816 -0.9537
 8575TIP3   OH247139   6.206   0.600   5.969  0.1839 -0.3363 -0.0042
 8575TIP3    H147140   6.218   0.660   5.896  2.0460  2.5732  2.5701
 8575TIP3    H247141   6.120   0.623   6.006  0.1597 -0.3994 -0.0208
 8576TIP3   OH247142   6.074   6.044  13.770  0.1391 -0.6736 -0.0593
 8576TIP3    H147143   6.162   6.066  13.737  0.1014 -1.9361 -1.0423
 8576TIP3    H247144   6.077   6.068  13.862 -0.2145  4.2951 -1.2382
 8577TIP3   OH247145   2.140   0.615  12.106 -0.0000  0.2383  0.0141
 8577TIP3    H147146   2.191   0.545  12.065  0.2050  1.0925 -1.2057
 8577TIP3    H247147   2.102   0.663  12.033  0.0084  1.5128  0.8396
 8578TIP3   OH247148   5.680   5.036   0.808 -0.5899  0.1421  0.2394
 8578TIP3    H147149   5.727   5.112   0.774 -1.8946  0.9589  0.2238
 8578TIP3    H247150   5.648   5.064   0.894 -1.0770 -0.3876  0.2376
 8579TIP3   OH247151   4.781   4.556  12.364  0.2148  0.0918  0.3134
 8579TIP3    H147152   4.823   4.539  12.448 -0.1910 -1.2743  0.2530
 8579TIP3    H247153   4.808   4.483  12.308 -1.6127 -0.4278  0.0538
 8580TIP3   OH247154   5.949   3.042   6.315  0.6642 -0.1833 -0.2261
 8580TIP3    H147155   6.042   3.033   6.331  1.2613  1.7003 -2.3835
 8580TIP3    H247156   5.930   3.133   6.337 -1.0154 -0.9201  1.6109
 8581TIP3   OH247157   6.255   2.525  16.899 -0.0502  0.2210 -0.1643
 8581TIP3    H147158   6.303   2.443  16.892 -1.2486 -0.6534  1.6066
 8581TIP3    H247159   6.282   2.563  16.983 -1.2822  0.4695  0.1369
 8582TIP3   OH247160   3.194   0.573  15.789 -0.3836  0.2236 -0.6300
 8582TIP3    H147161   3.132   0.630  15.836  1.5966  2.3444 -0.5215
 8582TIP3    H247162   3.256   0.546  15.856 -0.2692 -0.5873 -1.0670
 8583TIP3   OH247163   2.633   1.844   3.285 -0.2023 -0.1318  0.0230
 8583TIP3    H147164   2.684   1.910   3.239 -0.8015  1.1778  1.1868
 8583TIP3    H247165   2.560   1.893   3.324 -2.5382 -1.9790 -1.8316
 8584TIP3   OH247166   3.718   1.791  17.120 -0.5100 -0.0050 -0.0375
 8584TIP3    H147167   3.635   1.753  17.149 -0.6630 -0.4841 -1.0788
 8584TIP3    H247168   3.782   1.722  17.134 -0.3513  0.2259  0.3884
 8585TIP3   OH247169   5.501   2.558   1.274  0.2463 -0.7648 -0.5150
 8585TIP3    H147170   5.464   2.622   1.335  1.0970 -0.0351 -0.7433
 8585TIP3    H247171   5.465   2.474   1.302  0.7545 -0.4577  1.0992
 8586TIP3   OH247172   1.915   2.452   5.260 -0.3092 -0.3554  0.4089
 8586TIP3    H147173   1.935   2.366   5.298  2.5023  0.2122  0.3059
 8586TIP3    H247174   1.912   2.511   5.335 -1.6748 -0.4251  0.4204
 8587TIP3   OH247175   2.928   4.287   3.143 -0.6913  0.1909  0.2892
 8587TIP3    H147176   2.922   4.285   3.047 -2.4409  0.4079  0.3857
 8587TIP3    H247177   3.016   4.321   3.160 -0.4503  0.3842 -1.2383
 8588TIP3   OH247178   1.262   2.890   5.922  0.2569  0.3348 -0.2532
 8588TIP3    H147179   1.300   2.898   6.010 -1.0821 -1.7995  0.5721
 8588TIP3    H247180   1.338   2.883   5.864  1.1513  1.3850  0.7647
 8589TIP3   OH247181   2.919   4.713   1.102  0.1570 -0.1138  0.6085
 8589TIP3    H147182   2.984   4.778   1.128  0.0712  0.5928 -0.9000
 8589TIP3    H247183   2.875   4.752   1.027 -1.0404 -1.2061  0.7241
 8590TIP3   OH247184   6.049   1.289  17.043 -0.2672 -0.0502 -0.1819
 8590TIP3    H147185   5.984   1.321  16.981 -0.2645 -0.1245 -0.2257
 8590TIP3    H247186   6.025   1.197  17.057 -1.4673  0.5046  1.5044
 8591TIP3   OH247187   1.215   3.712  14.216  0.5765 -0.1448  0.1154
 8591TIP3    H147188   1.177   3.778  14.275  1.0408  0.3727 -0.1615
 8591TIP3    H247189   1.181   3.629  14.249 -1.2659  0.3474 -0.4696
 8592TIP3   OH247190   3.483   1.343   1.014  0.9597 -0.3208  0.6511
 8592TIP3    H147191   3.481   1.430   1.054 -1.5033 -0.6927  1.4587
 8592TIP3    H247192   3.528   1.356   0.931 -2.2479  2.4703 -0.8068
 8593TIP3   OH247193   3.995   4.182   1.057  0.5612  0.3607 -0.3341
 8593TIP3    H147194   3.914   4.179   1.006  2.2781  1.9687 -3.2863
 8593TIP3    H247195   4.058   4.130   1.007  1.9720  0.9790  0.7472
 8594TIP3   OH247196   6.136   6.528   2.882 -0.1083  0.5227  0.2137
 8594TIP3    H147197   6.124   6.476   2.803  3.0182 -1.6446  1.0805
 8594TIP3    H247198   6.181   6.607   2.851 -2.3463  1.4902 -0.6861
 8595TIP3   OH247199   3.174   5.598  11.737 -0.4134  0.2605 -0.3573
 8595TIP3    H147200   3.220   5.540  11.677  1.5692  1.3751  0.0194
 8595TIP3    H247201   3.223   5.591  11.819 -2.4313 -0.4082  0.8149
 8596TIP3   OH247202   6.224   0.972  16.061  0.5602  0.2380  0.1262
 8596TIP3    H147203   6.278   1.014  15.994  0.0424  0.7774  0.0459
 8596TIP3    H247204   6.197   0.889  16.022 -0.0134  0.6972 -0.4668
 8597TIP3   OH247205   5.563   0.800   0.406 -0.4827  0.0352  0.1860
 8597TIP3    H147206   5.557   0.824   0.313 -1.0621  0.2888  0.2839
 8597TIP3    H247207   5.591   0.709   0.405  0.3964  0.3081 -0.2207
 8598TIP3   OH247208   1.610   4.529   1.971  0.0769  0.1103 -0.0755
 8598TIP3    H147209   1.525   4.537   1.927 -0.0266 -1.5931 -0.2059
 8598TIP3    H247210   1.664   4.477   1.911  1.4414  1.7150 -0.2917
 8599TIP3   OH247211   4.568   2.737   1.317  0.0601  0.8160 -0.7970
 8599TIP3    H147212   4.525   2.779   1.391 -1.3393 -3.0901  0.7523
 8599TIP3    H247213   4.662   2.743   1.336 -0.2328  1.1150  0.5834
 8600TIP3   OH247214   1.546   4.219   1.862  0.3145 -0.6111 -0.5218
 8600TIP3    H147215   1.506   4.202   1.777 -0.7523 -0.4466 -0.0590
 8600TIP3    H247216   1.472   4.235   1.920  0.9641 -2.1244  0.7553
 8601TIP3   OH247217   3.025   3.955   2.467  0.2128 -0.0510  0.1737
 8601TIP3    H147218   3.029   3.871   2.514 -2.7936 -0.6143 -0.4676
 8601TIP3    H247219   3.090   3.947   2.397  2.0458 -0.6668  1.8897
 8602TIP3   OH247220   0.584   1.717   0.267  0.3418 -1.1184  0.3943
 8602TIP3    H147221   0.642   1.712   0.343  2.5321  0.8582 -1.0894
 8602TIP3    H247222   0.545   1.804   0.272  2.6892  0.1309 -2.2599
 8603TIP3   OH247223   2.816   0.284   0.965  0.5434  0.6109 -0.3342
 8603TIP3    H147224   2.903   0.252   0.941  1.1984  2.5100 -0.5339
 8603TIP3    H247225   2.829   0.376   0.986 -0.8531  0.1886  2.7119
 8604TIP3   OH247226   5.865   0.198   3.083  0.0560  0.4984  0.5071
 8604TIP3    H147227   5.835   0.120   3.037 -0.9410  0.7623  0.6979
 8604TIP3    H247228   5.834   0.186   3.173 -2.1762  2.1820  0.0161
 8605TIP3   OH247229   0.808   5.892  12.934 -0.5482 -0.1377  0.0089
 8605TIP3    H147230   0.791   5.876  13.027 -1.7791  2.2037  0.2529
 8605TIP3    H247231   0.869   5.966  12.933  0.2185 -0.7703 -1.0403
 8606TIP3   OH247232   4.181   6.036   4.530 -0.0370 -0.3061  0.2697
 8606TIP3    H147233   4.196   5.942   4.517 -0.7453 -0.3275 -0.4320
 8606TIP3    H247234   4.268   6.075   4.528  0.3715 -1.1043  1.8274
 8607TIP3   OH247235   5.514   5.655  14.401 -0.0116  0.1890  0.1601
 8607TIP3    H147236   5.431   5.654  14.449  0.6454  1.2000  1.3733
 8607TIP3    H247237   5.581   5.650  14.469  0.9378 -1.5108 -0.8547
 8608TIP3   OH247238   3.076   2.497  15.405 -0.2673 -0.3724 -0.2307
 8608TIP3    H147239   3.071   2.450  15.322 -0.6985  0.9092 -0.9507
 8608TIP3    H247240   3.030   2.579  15.388 -0.1337  0.0057  1.2071
 8609TIP3   OH247241   0.621   6.093   1.090  0.4334 -0.3292 -0.5341
 8609TIP3    H147242   0.694   6.034   1.073  0.7090  0.1552 -1.0836
 8609TIP3    H247243   0.661   6.180   1.099  0.0858 -0.2932  0.7748
 8610TIP3   OH247244   0.533   4.771   5.887  0.6362  0.6426  0.3355
 8610TIP3    H147245   0.532   4.732   5.975  1.9526  1.1244  0.5694
 8610TIP3    H247246   0.625   4.775   5.864  0.2556 -0.1358 -1.3788
 8611TIP3   OH247247   3.009   3.197  13.855  0.1279 -0.2289 -0.1713
 8611TIP3    H147248   3.057   3.242  13.924 -0.3824 -0.0046  0.0424
 8611TIP3    H247249   2.920   3.187  13.891 -0.0380 -0.4524 -0.6402
 8612TIP3   OH247250   3.533   5.051   4.190  0.1233 -0.6040 -0.4651
 8612TIP3    H147251   3.527   5.106   4.112  3.2656  0.1236 -0.2274
 8612TIP3    H247252   3.539   4.962   4.156 -1.9127 -0.6030 -0.9215
 8613TIP3   OH247253   6.060   0.773   1.610 -0.4670 -0.0945 -0.0923
 8613TIP3    H147254   6.154   0.778   1.627 -0.3489  0.2539 -0.8401
 8613TIP3    H247255   6.053   0.727   1.526 -1.0244 -1.3833  0.6444
 8614TIP3   OH247256   5.448   3.710   4.998  0.1874 -0.8867 -0.3339
 8614TIP3    H147257   5.478   3.673   5.081  0.6295 -0.2665 -0.2176
 8614TIP3    H247258   5.453   3.805   5.011 -0.7962 -0.7845 -0.6857
 8615TIP3   OH247259   5.646   3.497  14.582 -0.1134  0.4098 -0.7036
 8615TIP3    H147260   5.563   3.478  14.625 -0.0277  1.7803  0.0730
 8615TIP3    H247261   5.709   3.507  14.653  0.6236 -0.1394 -1.2712
 8616TIP3   OH247262   2.638   3.314  15.598 -0.3173  0.4110  0.1754
 8616TIP3    H147263   2.627   3.390  15.540 -1.0427  1.2012  1.3387
 8616TIP3    H247264   2.601   3.342  15.682 -0.3539 -1.1434  0.6898
 8617TIP3   OH247265   5.709   1.816   2.910  0.1667  0.6331 -0.8340
 8617TIP3    H147266   5.747   1.760   2.978  0.0688 -0.1049 -1.3806
 8617TIP3    H247267   5.741   1.778   2.828  0.0261  1.3289 -1.2108
 8618TIP3   OH247268   6.177   6.234  12.313 -0.2383  0.1744  0.0172
 8618TIP3    H147269   6.271   6.252  12.326 -0.0835 -2.0384  2.3692
 8618TIP3    H247270   6.172   6.197  12.225  1.4298 -1.4839  0.5701
 8619TIP3   OH247271   3.600   4.832   5.415 -0.6070  0.2090 -0.5730
 8619TIP3    H147272   3.612   4.737   5.412 -1.0465  0.1638 -1.1159
 8619TIP3    H247273   3.677   4.867   5.370  0.4258  0.1916  1.1731
 8620TIP3   OH247274   0.482   1.444  12.918  0.1390 -0.8613 -0.4907
 8620TIP3    H147275   0.565   1.418  12.959 -0.2910 -0.5477  0.5893
 8620TIP3    H247276   0.415   1.411  12.977 -0.5562 -2.4613 -2.1523
 8621TIP3   OH247277   3.839   6.501   3.317  0.6066  0.0592 -0.0778
 8621TIP3    H147278   3.836   6.450   3.236 -1.2292 -1.1342  0.7116
 8621TIP3    H247279   3.774   6.570   3.305  1.2725  0.6812 -0.1316
 8622TIP3   OH247280   3.826   0.385  13.750 -0.7654  0.4510 -0.4853
 8622TIP3    H147281   3.768   0.413  13.821  0.2999  0.3590  0.4368
 8622TIP3    H247282   3.799   0.295  13.731 -0.6392  0.2549  0.2405
 8623TIP3   OH247283   1.950   5.805   0.556  0.2919 -0.2774 -0.5349
 8623TIP3    H147284   2.045   5.810   0.547  0.5097 -0.0070  1.4901
 8623TIP3    H247285   1.935   5.728   0.611 -0.3329  1.8269  2.4306
 8624TIP3   OH247286   1.555   2.823  11.114  0.4443  0.1978 -0.6458
 8624TIP3    H147287   1.634   2.871  11.089 -0.4035  1.9184 -0.0940
 8624TIP3    H247288   1.523   2.785  11.033 -0.1072  2.4504 -1.5032
 8625TIP3   OH247289   0.395   1.350   3.215  0.9179  0.5381  0.0016
 8625TIP3    H147290   0.433   1.366   3.301  2.2295  1.9257 -0.8332
 8625TIP3    H247291   0.430   1.265   3.189 -1.6670 -1.2524  1.9924
 8626TIP3   OH247292   5.064   2.051  16.118  0.0601 -0.2483 -0.1703
 8626TIP3    H147293   5.030   1.991  16.052 -0.5467  0.7878 -0.8096
 8626TIP3    H247294   5.137   2.095  16.074 -1.4345  1.7126 -0.7815
 8627TIP3   OH247295   5.155   3.743  14.023 -0.0644 -0.1062 -0.1041
 8627TIP3    H147296   5.167   3.763  14.116 -1.1607 -0.8377  0.1960
 8627TIP3    H247297   5.245   3.740  13.988  0.3508  0.1897  0.9177
 8628TIP3   OH247298   1.416   0.705  13.722 -0.0804  0.4490 -0.1483
 8628TIP3    H147299   1.453   0.652  13.651 -1.0042 -1.4186  0.7420
 8628TIP3    H247300   1.493   0.740  13.767  0.5184  1.3376 -1.8212
 8629TIP3   OH247301   2.498   6.394  10.994  0.2393 -0.0222  0.5009
 8629TIP3    H147302   2.411   6.356  11.010  0.0021  0.6515  0.8213
 8629TIP3    H247303   2.499   6.412  10.900 -0.6751  1.6778  0.7975
 8630TIP3   OH247304   2.548   6.518   2.339  0.1006  0.4450 -0.0596
 8630TIP3    H147305   2.508   6.461   2.273 -0.7268  0.0522  0.7702
 8630TIP3    H247306   2.642   6.501   2.331 -0.1559 -1.3677  0.4479
 8631TIP3   OH247307   4.703   0.187  15.214  0.5176 -0.3628 -0.5294
 8631TIP3    H147308   4.656   0.130  15.275 -1.0172  1.0200 -0.3754
 8631TIP3    H247309   4.688   0.147  15.128 -0.0767 -0.5065 -0.3657
 8632TIP3   OH247310   1.931   2.871   3.919 -0.6029 -0.1316  0.6260
 8632TIP3    H147311   1.909   2.778   3.908 -0.3872  0.1510 -3.0148
 8632TIP3    H247312   2.027   2.872   3.926 -0.5014 -0.1532 -0.5261
 8633TIP3   OH247313   5.265   4.123  13.314  0.4893  0.3862  0.1740
 8633TIP3    H147314   5.233   4.190  13.253 -1.4457  1.3165  2.1654
 8633TIP3    H247315   5.301   4.173  13.387  1.2347 -0.7601  0.6019
 8634TIP3   OH247316   0.254   5.174  12.468 -0.4759 -0.3216 -0.5111
 8634TIP3    H147317   0.211   5.095  12.500  0.0292 -1.5717 -2.8295
 8634TIP3    H247318   0.185   5.225  12.427 -0.3686 -0.6838 -1.1396
 8635TIP3   OH247319   0.408   1.586  15.580 -0.4487  0.1702  0.1006
 8635TIP3    H147320   0.347   1.522  15.545  0.6450 -0.4823 -0.6516
 8635TIP3    H247321   0.360   1.631  15.650 -1.7007 -0.4645 -0.3559
 8636TIP3   OH247322   2.855   4.785  10.438  0.1899 -0.0652 -1.0013
 8636TIP3    H147323   2.790   4.715  10.432  0.1835 -0.1823  0.3265
 8636TIP3    H247324   2.807   4.859  10.474  0.4816  0.2541 -1.2725
 8637TIP3   OH247325   1.253   4.425   4.399  0.7990  0.1242  0.2639
 8637TIP3    H147326   1.205   4.495   4.355 -1.0609 -0.2471  1.6484
 8637TIP3    H247327   1.276   4.460   4.485 -2.6429 -1.8641  2.0933
 8638TIP3   OH247328   3.279   2.403   4.833 -0.0709  0.1760 -0.0559
 8638TIP3    H147329   3.351   2.345   4.807 -0.0775  0.6301 -1.1310
 8638TIP3    H247330   3.249   2.368   4.916  0.5205 -0.8270 -0.2514
 8639TIP3   OH247331   4.230   6.699  12.362 -0.1370  0.2496 -0.5314
 8639TIP3    H147332   4.150   6.683  12.311 -0.4860  1.7045 -0.4685
 8639TIP3    H247333   4.276   6.766  12.313  0.8446 -0.2611 -0.3179
 8640TIP3   OH247334   2.211   5.998  10.564 -0.1895  0.4765 -0.3467
 8640TIP3    H147335   2.284   6.051  10.595 -0.4259  0.7900 -0.3305
 8640TIP3    H247336   2.251   5.915  10.537  0.2305  0.8025 -0.7292
 8641TIP3   OH247337   0.057   2.452  13.158 -0.2110 -0.3597  0.1670
 8641TIP3    H147338  -0.004   2.384  13.188 -1.2586  0.3496 -0.3466
 8641TIP3    H247339   0.117   2.406  13.099 -0.3686 -1.0195  0.5195
 8642TIP3   OH247340   5.951   2.433  12.578  0.1105  0.3624 -0.6250
 8642TIP3    H147341   6.012   2.502  12.554  2.0190 -0.8246  0.6793
 8642TIP3    H247342   5.919   2.399  12.494  2.4206 -0.0242 -1.3790
 8643TIP3   OH247343   4.684   6.564  11.776 -0.6122 -0.3020  0.5905
 8643TIP3    H147344   4.595   6.590  11.753 -0.5826 -0.9699 -0.2990
 8643TIP3    H247345   4.676   6.534  11.867 -0.9474  1.2528  1.0894
 8644TIP3   OH247346   0.574   1.034   0.756  0.1052  0.0640 -0.1891
 8644TIP3    H147347   0.500   1.005   0.810 -1.4500  2.2976 -1.0196
 8644TIP3    H247348   0.539   1.036   0.667  1.0245  1.6069 -0.5260
 8645TIP3   OH247349   1.135   1.056   3.030 -0.2972 -0.0520 -0.1579
 8645TIP3    H147350   1.209   1.001   3.003  0.9982  1.2533  0.6539
 8645TIP3    H247351   1.137   1.129   2.968  0.1270  0.8212  0.8615
 8646TIP3   OH247352   2.508   5.494  11.593  0.1055 -0.0337  0.4989
 8646TIP3    H147353   2.413   5.500  11.597  0.0388  0.1592 -1.0567
 8646TIP3    H247354   2.525   5.402  11.571  0.1121  0.7683 -3.0950
 8647TIP3   OH247355   5.694   4.275   2.534 -0.0351 -0.3020 -0.4022
 8647TIP3    H147356   5.789   4.266   2.525 -0.2253 -1.8526 -1.0416
 8647TIP3    H247357   5.679   4.273   2.629  0.6837  1.4729 -0.2221
 8648TIP3   OH247358   0.787   1.663   0.480 -0.0289 -0.1431 -0.0015
 8648TIP3    H147359   0.825   1.728   0.539 -0.0487 -0.3759  0.2686
 8648TIP3    H247360   0.857   1.599   0.465  0.1468  0.2017 -0.6576
 8649TIP3   OH247361   2.445   1.649   3.810 -0.8996 -0.1576 -0.0013
 8649TIP3    H147362   2.461   1.679   3.720 -1.9532 -1.3551 -0.6015
 8649TIP3    H247363   2.441   1.729   3.862  1.0247  0.4970 -0.7922
 8650TIP3   OH247364   4.750   6.200   6.108 -0.5456  0.2565  0.7300
 8650TIP3    H147365   4.830   6.213   6.057 -0.2148 -0.0065  1.1769
 8650TIP3    H247366   4.743   6.105   6.119 -1.6932  0.1903 -0.5273
 8651TIP3   OH247367   4.082   0.544  15.450  0.0029  0.0363  0.6413
 8651TIP3    H147368   4.028   0.559  15.528 -0.4161 -1.3063  0.6230
 8651TIP3    H247369   4.164   0.508  15.484  0.0759  0.0789  0.5098
 8652TIP3   OH247370   5.963   3.462   2.191  0.3042 -0.1907  0.2328
 8652TIP3    H147371   5.899   3.451   2.262  0.3459  0.7234  0.4114
 8652TIP3    H247372   5.967   3.556   2.177  0.6954 -0.3398 -0.6285
 8653TIP3   OH247373   3.573   0.954   2.529 -0.3519  0.7032 -0.3018
 8653TIP3    H147374   3.647   0.918   2.577  0.2837  2.4426  0.0639
 8653TIP3    H247375   3.497   0.939   2.586 -0.4518 -1.8576 -1.0632
 8654TIP3   OH247376   4.145   2.968   4.565  0.3234 -0.7586  0.4193
 8654TIP3    H147377   4.084   2.942   4.634  0.2998 -2.7148 -0.3079
 8654TIP3    H247378   4.208   2.896   4.560  1.6859  0.4560 -0.0051
 8655TIP3   OH247379   1.279   1.979  13.244 -0.4598  0.2239  0.1390
 8655TIP3    H147380   1.194   1.986  13.288 -1.7687  2.0570 -2.5796
 8655TIP3    H247381   1.339   2.031  13.299 -0.8375 -1.7058  2.4890
 8656TIP3   OH247382   0.932   2.031   6.129 -0.0443 -0.1255 -0.1438
 8656TIP3    H147383   0.859   1.997   6.078  0.2587 -2.1804  0.7423
 8656TIP3    H247384   0.891   2.083   6.198 -0.6558 -0.9895  0.1466
 8657TIP3   OH247385   0.977   0.303  13.348 -0.5559 -0.6352  0.1186
 8657TIP3    H147386   0.895   0.254  13.346  0.2145 -1.8928 -1.7295
 8657TIP3    H247387   1.040   0.246  13.304  0.3469  2.0094 -2.1275
 8658TIP3   OH247388   1.092   0.976  14.914  0.6460 -0.1831  0.4586
 8658TIP3    H147389   1.103   1.056  14.863  0.1163 -0.1366  0.4160
 8658TIP3    H247390   1.176   0.932  14.908  1.4458  1.1014  1.7228
 8659TIP3   OH247391   6.384   1.449   5.024 -0.1247 -0.0265 -0.2339
 8659TIP3    H147392   6.295   1.417   5.010 -0.6928  1.3375  0.2366
 8659TIP3    H247393   6.373   1.539   5.052  1.4379  0.3302 -0.7224
 8660TIP3   OH247394   0.588   3.106   4.292 -0.7760 -0.2662  0.4497
 8660TIP3    H147395   0.634   3.101   4.376 -0.1851  1.2716  0.2503
 8660TIP3    H247396   0.500   3.136   4.315 -0.8711 -0.6731  0.6066
 8661TIP3   OH247397   4.384   2.415   1.373  0.2954  0.2726  0.2775
 8661TIP3    H147398   4.392   2.482   1.441 -0.1677 -1.0802  1.7307
 8661TIP3    H247399   4.447   2.347   1.399 -3.5110 -2.6971  2.4139
 8662TIP3   OH247400   6.665   0.195   0.415 -0.0254  0.8370  0.3004
 8662TIP3    H147401   6.695   0.180   0.326  5.9059  1.4540  1.9680
 8662TIP3    H247402   6.644   0.108   0.448  0.3482  0.2760 -0.9059
 8663TIP3   OH247403   1.357   5.281  16.549 -0.6439 -0.3657 -0.4527
 8663TIP3    H147404   1.389   5.336  16.478 -2.2989  0.9668 -0.2063
 8663TIP3    H247405   1.424   5.214  16.560  1.7060  1.9119 -0.3932
 8664TIP3   OH247406   0.649   0.576   4.123  0.5945 -0.1588 -0.1999
 8664TIP3    H147407   0.707   0.514   4.167  2.5731  1.8578  0.1185
 8664TIP3    H247408   0.579   0.522   4.087  1.8304 -2.4684  0.7713
 8665TIP3   OH247409   1.469   0.439  12.899  0.6983  0.5193  0.1747
 8665TIP3    H147410   1.524   0.478  12.968  0.6165 -0.9656  1.1063
 8665TIP3    H247411   1.524   0.371  12.860  0.7514  1.3866 -1.2692
 8666TIP3   OH247412   4.405   5.745   1.199 -0.3764  0.5164 -0.2003
 8666TIP3    H147413   4.315   5.775   1.186  0.2246  3.1388  1.4211
 8666TIP3    H247414   4.460   5.814   1.162  0.9888 -0.6283 -0.3604
 8667TIP3   OH247415   4.469   4.313  13.173 -0.2215 -0.0495  0.0502
 8667TIP3    H147416   4.403   4.271  13.228 -0.9539  0.9732 -0.0298
 8667TIP3    H247417   4.470   4.261  13.092  1.2964 -1.9257  1.2315
 8668TIP3   OH247418   5.826   2.610  16.788 -0.0313  0.2106  0.1885
 8668TIP3    H147419   5.909   2.658  16.789 -0.7747  1.5627 -0.2675
 8668TIP3    H247420   5.820   2.571  16.875  1.3393 -0.3668  0.0306
 8669TIP3   OH247421   6.001   4.973  11.785  0.1537  0.3770  0.1786
 8669TIP3    H147422   6.068   4.927  11.735 -1.5314 -0.9518 -0.8938
 8669TIP3    H247423   5.977   5.047  11.730  0.7314  0.8687  0.5758
 8670TIP3   OH247424   1.170   2.389   4.724 -0.6188  0.0077  0.2559
 8670TIP3    H147425   1.074   2.386   4.727 -0.6105 -1.4618 -0.4372
 8670TIP3    H247426   1.193   2.459   4.784 -2.1567  0.7713 -0.0099
 8671TIP3   OH247427   6.191   0.437  11.853  0.7928  0.3690 -0.1055
 8671TIP3    H147428   6.263   0.460  11.795  1.3404 -0.7434  0.1192
 8671TIP3    H247429   6.112   0.454  11.801  1.2694 -0.5048 -1.1320
 8672TIP3   OH247430   2.297   3.039   3.154 -0.0605  0.1179 -0.4187
 8672TIP3    H147431   2.273   3.009   3.242  0.6897  2.3313  0.5898
 8672TIP3    H247432   2.214   3.038   3.105 -0.3335 -1.9091  0.0686
 8673TIP3   OH247433   1.818   5.575   1.915  0.1869 -0.3122 -0.5999
 8673TIP3    H147434   1.845   5.546   1.829 -0.8226 -1.8533 -0.4144
 8673TIP3    H247435   1.827   5.498   1.971  1.0916  0.7303  0.7500
 8674TIP3   OH247436   5.461   1.967  15.222  0.5041  0.0153  0.4561
 8674TIP3    H147437   5.428   1.986  15.134  0.4562 -0.5507  0.3538
 8674TIP3    H247438   5.510   1.886  15.212 -0.5785 -0.7339  1.2272
 8675TIP3   OH247439   4.761   5.681   2.900  0.4171  0.1614  0.5278
 8675TIP3    H147440   4.735   5.651   2.812  0.0323 -0.2606  0.7823
 8675TIP3    H247441   4.689   5.737   2.928  1.0571  1.1939  0.1239
 8676TIP3   OH247442   6.720   6.171  14.131 -0.3338  0.0308  0.0155
 8676TIP3    H147443   6.745   6.123  14.052  2.2106 -0.9730  1.3879
 8676TIP3    H247444   6.669   6.108  14.183 -1.9222  0.6594 -0.7536
 8677TIP3   OH247445   6.119   3.437   6.189  0.2388 -0.2429 -0.1201
 8677TIP3    H147446   6.053   3.491   6.232 -0.1987 -1.1496  0.3550
 8677TIP3    H247447   6.201   3.462   6.231  0.0888  0.3130 -0.1587
 8678TIP3   OH247448   6.445   4.700  15.244 -0.1764 -0.7492 -0.1082
 8678TIP3    H147449   6.435   4.611  15.209  1.5118 -0.8049 -0.4940
 8678TIP3    H247450   6.375   4.750  15.203 -0.1295 -1.5289 -1.1718
 8679TIP3   OH247451   6.553   1.926  13.579  0.1669  0.1898 -0.0663
 8679TIP3    H147452   6.595   1.913  13.664 -0.8015 -1.7736  0.1298
 8679TIP3    H247453   6.477   1.981  13.598 -0.4088 -0.7800  0.4383
 8680TIP3   OH247454   3.645   5.992  11.631  0.0623  0.1798  0.5085
 8680TIP3    H147455   3.594   6.068  11.659  2.4997  1.5255  1.4921
 8680TIP3    H247456   3.591   5.949  11.565 -0.4739  3.9871 -1.6601
 8681TIP3   OH247457   1.254   2.335  12.267  0.1927 -0.0816 -0.0349
 8681TIP3    H147458   1.321   2.402  12.251 -0.0508  0.0829 -0.3538
 8681TIP3    H247459   1.185   2.381  12.314 -0.6008  0.2166 -1.4853
 8682TIP3   OH247460   5.294   6.221  16.595  0.1574 -0.4659  1.4910
 8682TIP3    H147461   5.309   6.130  16.619  0.4411 -1.1610 -1.2285
 8682TIP3    H247462   5.223   6.249  16.653 -0.7474 -2.7747  1.5537
 8683TIP3   OH247463   1.824   0.126  11.445  0.1484 -0.2858  0.6224
 8683TIP3    H147464   1.831   0.182  11.522  0.5060  0.6850 -0.1020
 8683TIP3    H247465   1.783   0.045  11.477  0.0172  0.2262  1.7602
 8684TIP3   OH247466   3.310   1.434  16.780 -0.1031  0.6623  0.7367
 8684TIP3    H147467   3.344   1.361  16.832 -0.3795 -0.7145 -0.9702
 8684TIP3    H247468   3.242   1.395  16.725 -1.0415  2.4389  0.5929
 8685TIP3   OH247469   1.086   5.320  14.847 -0.4258 -0.0284  0.0184
 8685TIP3    H147470   1.161   5.340  14.903  0.5567 -2.5169 -0.3405
 8685TIP3    H247471   1.073   5.226  14.858 -2.4396  0.0801 -1.2296
 8686TIP3   OH247472   6.472   3.920  13.448  0.0243 -0.5902 -0.1320
 8686TIP3    H147473   6.565   3.913  13.424  0.6120  1.8331  1.2655
 8686TIP3    H247474   6.463   3.860  13.523  0.7657  0.1281  0.5402
 8687TIP3   OH247475   5.018   0.656  14.687 -0.2406  0.0800 -0.3052
 8687TIP3    H147476   5.059   0.731  14.644 -0.2742 -0.2910 -0.9830
 8687TIP3    H247477   4.926   0.681  14.696 -0.2642  0.0971 -0.5872
 8688TIP3   OH247478   4.207   0.358  14.549 -0.0659 -0.0212  0.3035
 8688TIP3    H147479   4.115   0.358  14.574 -0.2511  2.1663 -0.3511
 8688TIP3    H247480   4.241   0.443  14.577  1.0750  0.2939 -1.8935
 8689TIP3   OH247481   2.427   5.589  15.142 -0.0232 -0.1417  0.2213
 8689TIP3    H147482   2.469   5.625  15.063 -1.7196 -0.4553 -0.8514
 8689TIP3    H247483   2.346   5.639  15.151  0.0805 -0.2224  1.6881
 8690TIP3   OH247484   2.081   6.677  16.431 -0.6376 -0.3407  0.1174
 8690TIP3    H147485   2.009   6.736  16.448  0.2331  0.7273  0.1595
 8690TIP3    H247486   2.054   6.593  16.469 -1.2536  0.4113  1.3458
 8691TIP3   OH247487   1.328   6.490   1.681  0.7774 -0.5968 -0.0902
 8691TIP3    H147488   1.414   6.518   1.650  0.7163  2.3002  2.1680
 8691TIP3    H247489   1.267   6.521   1.615  1.1961 -0.0364 -0.2107
 8692TIP3   OH247490   5.913   3.899   4.659 -0.3724 -0.3563  0.1719
 8692TIP3    H147491   5.910   3.993   4.647 -0.4637 -0.3218  0.4582
 8692TIP3    H247492   5.885   3.862   4.575  2.7276 -0.1628 -1.0208
 8693TIP3   OH247493   3.630   0.543  11.693 -0.6343  0.9273  0.4466
 8693TIP3    H147494   3.604   0.600  11.764 -1.1985  0.8273  0.3196
 8693TIP3    H247495   3.651   0.460  11.736  0.9857  1.4595  0.7320
 8694TIP3   OH247496   3.071   2.987  13.678  0.0145 -0.3806  0.4357
 8694TIP3    H147497   2.989   2.942  13.662  0.2168  0.2076 -2.5468
 8694TIP3    H247498   3.046   3.067  13.724 -1.2953  0.4518 -1.6222
 8695TIP3   OH247499   5.327   2.004  12.360 -0.2231 -0.3120  0.5559
 8695TIP3    H147500   5.236   1.980  12.341 -0.2308  0.7844 -0.9847
 8695TIP3    H247501   5.374   1.921  12.361 -0.5223 -0.6197 -2.9754
 8696TIP3   OH247502   4.142   0.063  12.683 -0.2360  0.5562 -0.2414
 8696TIP3    H147503   4.121   0.132  12.620 -0.8797 -1.3330 -2.1494
 8696TIP3    H247504   4.213   0.013  12.642  0.2876  0.1411  1.1531
 8697TIP3   OH247505   5.507   3.784   2.550 -0.0838  0.1708  0.2487
 8697TIP3    H147506   5.444   3.854   2.534  2.2903  1.9593 -1.5888
 8697TIP3    H247507   5.565   3.818   2.619  1.7028  0.4919 -1.3600
 8698TIP3   OH247508   4.352   0.187  17.235 -0.4305  0.5226 -0.0699
 8698TIP3    H147509   4.307   0.226  17.310  1.2608  0.4012  1.0298
 8698TIP3    H247510   4.283   0.139  17.189 -1.5973  1.0226  1.1054
 8699TIP3   OH247511   1.156   6.060  11.113 -0.0764  0.7527 -0.1480
 8699TIP3    H147512   1.127   5.976  11.079  0.2582  1.1112 -1.3594
 8699TIP3    H247513   1.171   6.114  11.035  1.1986  1.4364  0.5410
 8700TIP3   OH247514   5.031   5.367  11.003  0.3176 -0.1105 -0.1007
 8700TIP3    H147515   4.954   5.420  10.981  1.2290  1.6972  0.9253
 8700TIP3    H247516   5.054   5.322  10.922 -0.4954  1.0603 -0.9847
 8701TIP3   OH247517   2.830   3.887  17.162 -0.0653 -0.0846 -0.5096
 8701TIP3    H147518   2.779   3.961  17.194  1.2854 -0.2101  2.0139
 8701TIP3    H247519   2.861   3.843  17.241  3.1035 -0.6100 -1.9748
 8702TIP3   OH247520   2.717   2.296   1.461 -0.1718 -0.2858  0.0375
 8702TIP3    H147521   2.682   2.381   1.435  0.5869 -0.2910 -1.0155
 8702TIP3    H247522   2.691   2.236   1.391 -1.2917 -1.0744  1.1090
 8703TIP3   OH247523   5.979   2.926  16.534  0.1664  0.3657 -0.2833
 8703TIP3    H147524   6.003   2.841  16.498  0.9699  0.2044  0.6294
 8703TIP3    H247525   6.057   2.980  16.524  0.4052  0.3156  1.2228
 8704TIP3   OH247526   1.784   5.072  15.484 -0.0552  0.3575  0.1875
 8704TIP3    H147527   1.800   5.063  15.578 -0.4399  3.2689  0.5658
 8704TIP3    H247528   1.840   5.006  15.444  1.3562  0.1769  2.3626
 8705TIP3   OH247529   0.352   4.902  11.308 -0.3937  0.0250 -0.3043
 8705TIP3    H147530   0.416   4.871  11.244 -0.9560  0.1869 -0.9483
 8705TIP3    H247531   0.346   4.832  11.373 -1.0170 -0.8349 -1.2808
 8706TIP3   OH247532   0.034   1.372  11.152 -0.5832 -0.9258  0.1956
 8706TIP3    H147533  -0.039   1.344  11.208 -0.3779 -0.1866  0.8394
 8706TIP3    H247534   0.068   1.451  11.194 -1.0893  0.2619 -1.5241
 8707TIP3   OH247535   3.838   3.063   2.066 -0.5248  0.2474 -0.1390
 8707TIP3    H147536   3.824   3.116   1.988  1.5933 -0.2162 -0.8631
 8707TIP3    H247537   3.887   3.119   2.126 -1.2380  0.2502  0.4508
 8708TIP3   OH247538   3.706   2.269  13.741 -0.1234 -0.4289 -0.1455
 8708TIP3    H147539   3.794   2.274  13.779 -0.3853  1.9986  0.2168
 8708TIP3    H247540   3.660   2.205  13.795  0.7804 -0.1109  1.0336
 8709TIP3   OH247541   1.242   4.410   5.902 -0.4011  0.9711  0.3937
 8709TIP3    H147542   1.253   4.501   5.930 -1.5553  1.3019 -0.1835
 8709TIP3    H247543   1.266   4.410   5.810 -1.6889  0.9856  0.0432
 8710TIP3   OH247544   4.163   3.713  16.832  0.5588  0.1629  0.5626
 8710TIP3    H147545   4.113   3.728  16.752 -0.0238 -1.3771  0.6278
 8710TIP3    H247546   4.210   3.795  16.847 -1.3407  1.3539  0.0899
 8711TIP3   OH247547   5.262   6.658   4.764  0.2789 -0.2978  0.1974
 8711TIP3    H147548   5.196   6.603   4.721 -2.1957  2.3430  0.4997
 8711TIP3    H247549   5.335   6.661   4.701 -1.3483 -0.3774 -1.7383
 8712TIP3   OH247550   2.938   0.843   3.631  0.3991  0.3751 -0.1033
 8712TIP3    H147551   2.865   0.788   3.602  0.0654  1.4067 -1.2896
 8712TIP3    H247552   3.005   0.831   3.565  2.0469 -1.9294  1.9002
 8713TIP3   OH247553   4.448   3.167  11.560 -0.0764 -0.3427  0.3676
 8713TIP3    H147554   4.453   3.259  11.586 -1.7266  0.6247 -2.5263
 8713TIP3    H247555   4.502   3.162  11.481 -2.4844 -1.0928 -1.3046
 8714TIP3   OH247556   4.398   6.286  15.376 -0.3693  0.1786 -0.1200
 8714TIP3    H147557   4.409   6.199  15.338 -1.0012 -0.4570  1.1166
 8714TIP3    H247558   4.303   6.298  15.380 -0.2958  0.5584  0.5284
 8715TIP3   OH247559   3.669   0.902  12.191 -0.2990 -0.1961  0.5171
 8715TIP3    H147560   3.582   0.908  12.152 -1.3325  1.4203  2.9848
 8715TIP3    H247561   3.706   0.990  12.179 -0.3669  0.1240  2.5063
 8716TIP3   OH247562   6.252   5.458  12.438  0.0575 -0.1669 -0.2060
 8716TIP3    H147563   6.258   5.463  12.533  0.2037  0.4377 -0.2460
 8716TIP3    H247564   6.210   5.539  12.411 -0.6681 -0.6639 -0.6067
 8717TIP3   OH247565   1.032   6.071  12.846 -0.4383  0.0484  0.3896
 8717TIP3    H147566   1.059   6.150  12.894 -0.9725  1.1113 -1.0374
 8717TIP3    H247567   1.110   6.015  12.846 -0.0763  0.5424  1.4773
 8718TIP3   OH247568   1.155   2.867  13.750 -0.2826 -1.0395 -0.1545
 8718TIP3    H147569   1.115   2.879  13.836 -1.2084 -2.1691 -0.4227
 8718TIP3    H247570   1.172   2.956  13.719  0.2840 -0.6271  1.3002
 8719TIP3   OH247571   4.894   0.749   0.072  0.2090 -0.1179 -0.1276
 8719TIP3    H147572   4.882   0.728  -0.021 -2.2616  1.1833 -0.1242
 8719TIP3    H247573   4.893   0.844   0.076  0.6367 -0.1570  1.2145
 8720TIP3   OH247574   2.693   6.786   2.361 -0.0861  0.3699 -0.0475
 8720TIP3    H147575   2.764   6.779   2.425 -0.2734  0.2044  0.1429
 8720TIP3    H247576   2.631   6.719   2.387 -0.7996  1.1928  0.3971
 8721TIP3   OH247577   1.316   6.603   5.704  0.2914  0.5450  0.7637
 8721TIP3    H147578   1.366   6.628   5.626  0.7348  1.2974  1.2789
 8721TIP3    H247579   1.298   6.686   5.748 -2.8782  0.4702 -0.2864
 8722TIP3   OH247580   5.411   6.508  15.658 -0.4279 -0.2814  0.1628
 8722TIP3    H147581   5.436   6.440  15.721 -2.3727  0.2710  1.5710
 8722TIP3    H247582   5.410   6.589  15.709  1.8443  0.8448 -1.4963
 8723TIP3   OH247583   1.419   3.187   0.609  0.0847  0.7874 -0.4148
 8723TIP3    H147584   1.361   3.168   0.682 -1.1760 -0.9867 -1.8372
 8723TIP3    H247585   1.370   3.251   0.556  0.2359  0.7148 -0.6417
 8724TIP3   OH247586   6.048   1.676  14.372 -0.1026 -0.0903 -0.2855
 8724TIP3    H147587   6.034   1.761  14.414  1.0980 -1.0118  2.0932
 8724TIP3    H247588   5.970   1.662  14.319 -1.0055  1.8013  0.5006
 8725TIP3   OH247589   1.968   4.121   5.563 -0.0838  0.1207  0.0634
 8725TIP3    H147590   1.964   4.161   5.650  0.5867  1.6322 -0.5905
 8725TIP3    H247591   1.877   4.118   5.534 -0.3176 -0.4505  0.8414
 8726TIP3   OH247592   2.266   2.178   3.545  0.3717 -0.3363  0.0440
 8726TIP3    H147593   2.238   2.197   3.635  0.1819 -1.2605  0.1844
 8726TIP3    H247594   2.188   2.192   3.492  0.7393  1.2185 -0.1302
 8727TIP3   OH247595   3.063   1.818   2.323  0.1389  0.3569  0.4580
 8727TIP3    H147596   3.132   1.882   2.306 -0.1238  0.3023 -0.9096
 8727TIP3    H247597   3.106   1.747   2.371  0.9292  0.5597  0.0551
 8728TIP3   OH247598   2.308   0.092  15.013 -0.0661 -0.1985  0.3681
 8728TIP3    H147599   2.366   0.067  14.941 -0.7973 -0.3829 -0.1621
 8728TIP3    H247600   2.365   0.096  15.090 -0.1841 -5.5242  0.9390
 8729TIP3   OH247601   0.133   4.813  12.934  0.3740  0.0343 -0.0895
 8729TIP3    H147602   0.089   4.789  12.853 -0.4064  0.8053  0.1007
 8729TIP3    H247603   0.164   4.902  12.919  0.1813  0.1991  0.4734
 8730TIP3   OH247604   3.610   3.847   6.542 -0.7506  0.3290  0.1522
 8730TIP3    H147605   3.692   3.813   6.577  1.0984  2.9744 -1.4860
 8730TIP3    H247606   3.560   3.769   6.519  2.7307 -1.3412 -2.1023
 8731TIP3   OH247607   5.866   3.057  14.239 -0.2501 -0.2143  0.3148
 8731TIP3    H147608   5.957   3.065  14.268  0.3341  0.8923 -1.7629
 8731TIP3    H247609   5.823   3.134  14.275 -0.1528 -0.2409  0.4896
 8732TIP3   OH247610   0.942   5.305   3.861 -0.5258 -0.3435 -0.0206
 8732TIP3    H147611   0.934   5.210   3.860  0.0837 -0.4248  1.4393
 8732TIP3    H247612   0.993   5.324   3.940 -2.2033  1.3146  0.7066
 8733TIP3   OH247613   6.350   4.190  12.233  0.1924 -0.1958  0.0527
 8733TIP3    H147614   6.268   4.146  12.254 -0.1046 -0.3519 -1.3454
 8733TIP3    H247615   6.406   4.121  12.196  0.9815 -0.1033  1.0425
 8734TIP3   OH247616   1.606   5.356   5.260 -0.0455  0.4084 -0.3911
 8734TIP3    H147617   1.527   5.322   5.219 -1.0760  2.9081 -0.6038
 8734TIP3    H247618   1.674   5.291   5.242 -1.5105 -0.6433 -2.2328
 8735TIP3   OH247619   0.773   5.008  16.417 -0.6643  0.1506  0.6238
 8735TIP3    H147620   0.798   4.948  16.488 -1.9227 -1.9935 -0.7049
 8735TIP3    H247621   0.722   4.954  16.357 -1.5102  2.4906 -0.8070
 8736TIP3   OH247622   5.371   1.700  10.772 -0.0890  0.2031 -0.3897
 8736TIP3    H147623   5.395   1.739  10.688  0.0133  2.0240  0.4703
 8736TIP3    H247624   5.427   1.744  10.836 -1.3634  0.0330  0.8500
 8737TIP3   OH247625   1.981   2.105  16.611 -0.8352  0.8411  0.1947
 8737TIP3    H147626   2.070   2.132  16.586 -2.2575  3.8652 -1.8782
 8737TIP3    H247627   1.962   2.029  16.556  0.4699  0.0996  0.7378
 8738TIP3   OH247628   3.257   2.775  15.184 -0.0527  0.1547 -0.4542
 8738TIP3    H147629   3.235   2.847  15.126 -3.1752  0.2674  0.7789
 8738TIP3    H247630   3.257   2.697  15.127 -2.0105  0.4076 -0.8389
 8739TIP3   OH247631   6.607   2.806   2.656  0.5609 -0.3440  0.1029
 8739TIP3    H147632   6.545   2.855   2.602  0.5595  1.2781  1.5387
 8739TIP3    H247633   6.594   2.715   2.631  0.2858  0.3318 -2.3561
 8740TIP3   OH247634   2.294   4.286  14.417 -0.2098 -0.0049  0.2126
 8740TIP3    H147635   2.384   4.265  14.443 -0.0479 -1.5768 -1.5270
 8740TIP3    H247636   2.273   4.365  14.467  1.9488  0.1052  1.0281
 8741TIP3   OH247637   3.414   0.988  12.138  0.1444  1.1631 -0.0829
 8741TIP3    H147638   3.415   1.076  12.174  0.7835  1.0982  0.0640
 8741TIP3    H247639   3.377   0.934  12.207 -1.4554  1.5193 -0.6526
 8742TIP3   OH247640   5.915   0.241  14.611 -0.1873  0.4101 -0.1706
 8742TIP3    H147641   5.963   0.231  14.528  2.1868  0.7705  1.1279
 8742TIP3    H247642   5.978   0.279  14.671 -2.4117  1.8159  1.3523
 8743TIP3   OH247643   6.409   4.187   0.267 -0.0676 -0.1145  0.0686
 8743TIP3    H147644   6.458   4.108   0.243 -0.7124 -0.3852 -0.3655
 8743TIP3    H247645   6.318   4.157   0.277 -0.1276  0.3597  0.9947
 8744TIP3   OH247646   3.800   2.780  12.207  0.3174  0.4551 -0.2226
 8744TIP3    H147647   3.891   2.754  12.191 -0.4640 -1.8448 -1.1401
 8744TIP3    H247648   3.760   2.782  12.120 -0.2485  2.4884  0.0742
 8745TIP3   OH247649   1.549   3.695   4.991 -0.0101  0.2559 -0.0882
 8745TIP3    H147650   1.544   3.663   5.081 -2.0226  1.0732  0.0975
 8745TIP3    H247651   1.636   3.666   4.961  0.4213 -0.5899  1.8760
 8746TIP3   OH247652   3.661   4.405   0.437 -0.2925  0.6443 -0.3713
 8746TIP3    H147653   3.651   4.487   0.390 -2.2482  1.8845  2.1038
 8746TIP3    H247654   3.730   4.421   0.501 -0.8909  0.4597  0.3262
 8747TIP3   OH247655   1.934   5.766  11.739 -0.1310  0.3889 -0.3081
 8747TIP3    H147656   1.986   5.689  11.713  0.1547  0.8845 -1.2494
 8747TIP3    H247657   1.851   5.730  11.769  0.1669 -0.3185 -0.3118
 8748TIP3   OH247658   4.185   0.704  15.886 -0.8115 -0.2594  0.1186
 8748TIP3    H147659   4.127   0.634  15.857  0.9517 -1.6657 -0.0955
 8748TIP3    H247660   4.239   0.664  15.954  2.7794 -0.2719 -2.5645
 8749TIP3   OH247661   1.937   0.377  13.299  0.0773  0.1292 -0.0867
 8749TIP3    H147662   2.008   0.321  13.268 -0.1092  0.1897 -0.6210
 8749TIP3    H247663   1.867   0.366  13.234  0.2377  1.3854 -0.4907
 8750TIP3   OH247664   3.391   6.201  15.546 -0.1335 -0.2392  0.0664
 8750TIP3    H147665   3.367   6.203  15.453  0.4494  1.9343 -0.0619
 8750TIP3    H247666   3.349   6.121  15.580 -1.2702 -0.4650 -1.8089
 8751TIP3   OH247667   4.468   5.569   5.085 -0.0220 -0.6287  0.0088
 8751TIP3    H147668   4.459   5.586   4.992 -0.3318  1.7238  0.4400
 8751TIP3    H247669   4.561   5.551   5.098  0.2828  0.5166 -0.5360
 8752TIP3   OH247670   1.109   4.928  11.168  0.1209  0.3728  0.1210
 8752TIP3    H147671   1.189   4.971  11.197 -0.3259  2.5419 -1.7034
 8752TIP3    H247672   1.136   4.838  11.150  2.0427  0.9192  0.1112
 8753TIP3   OH247673   5.444   0.417   3.121 -0.6321  0.0261 -0.3310
 8753TIP3    H147674   5.414   0.467   3.045 -1.9658 -0.9518 -0.4700
 8753TIP3    H247675   5.373   0.356   3.139  0.5991 -1.2587  0.3341
 8754TIP3   OH247676   5.295   1.599  14.948 -0.0898 -0.2441 -0.4922
 8754TIP3    H147677   5.256   1.667  15.003 -0.5732 -1.1540  0.3163
 8754TIP3    H247678   5.292   1.635  14.859 -1.0583  0.4696 -0.1839
 8755TIP3   OH247679   0.943   0.873  15.139 -0.3647 -0.2703  0.4630
 8755TIP3    H147680   0.985   0.929  15.074  0.7370 -1.2180  0.3402
 8755TIP3    H247681   0.996   0.886  15.218 -1.0133  0.0115  0.8512
 8756TIP3   OH247682   6.244   3.454  15.951 -0.0784 -0.1782 -0.5082
 8756TIP3    H147683   6.203   3.409  16.024  0.2381  2.9807  1.7057
 8756TIP3    H247684   6.171   3.481  15.895 -0.4432 -1.1390 -0.4970
 8757TIP3   OH247685   2.757   3.180   3.435 -0.2873  0.5627 -0.1614
 8757TIP3    H147686   2.817   3.135   3.375 -0.0426  1.9327 -0.9527
 8757TIP3    H247687   2.730   3.111   3.496  1.0619 -0.3811 -0.5833
 8758TIP3   OH247688   0.421   1.683   1.327  0.0912  0.1451 -0.0818
 8758TIP3    H147689   0.343   1.630   1.341  0.9254 -1.5991 -1.7764
 8758TIP3    H247690   0.434   1.682   1.232  1.5246  1.3748  0.0793
 8759TIP3   OH247691   1.752   1.894   0.725  0.6416  0.1993 -0.2052
 8759TIP3    H147692   1.743   1.823   0.661 -0.3344 -0.2627  0.4265
 8759TIP3    H247693   1.787   1.852   0.803 -1.1779  0.1272  0.6142
 8760TIP3   OH247694   4.155   1.117  14.167 -0.0057 -0.0076 -0.2747
 8760TIP3    H147695   4.159   1.088  14.258  0.8117 -1.0337 -0.6373
 8760TIP3    H247696   4.123   1.041  14.118 -0.7933  0.6507 -0.7979
 8761TIP3   OH247697   2.204   6.224  16.201 -0.3039 -0.5717 -0.0417
 8761TIP3    H147698   2.280   6.182  16.160 -0.2815 -1.1749  0.6188
 8761TIP3    H247699   2.240   6.297  16.250 -0.2771 -0.1550 -0.6729
 8762TIP3   OH247700   0.103   0.575   1.034  0.1478  0.2590  0.2900
 8762TIP3    H147701   0.032   0.511   1.038  1.3495 -1.0657  1.7309
 8762TIP3    H247702   0.151   0.553   0.954 -0.6410  0.6778 -0.2939
 8763TIP3   OH247703   1.689   3.873  15.647  0.5029 -0.5069  0.2859
 8763TIP3    H147704   1.635   3.857  15.724 -1.6479 -0.0949 -1.1233
 8763TIP3    H247705   1.679   3.967  15.630  0.9844 -0.5983 -0.5176
 8764TIP3   OH247706   2.484   5.143  10.850  0.6472  0.2840 -0.0101
 8764TIP3    H147707   2.546   5.216  10.855 -0.1934  1.1628 -1.8033
 8764TIP3    H247708   2.526   5.081  10.791  0.4231  0.2768 -0.1628
 8765TIP3   OH247709   3.457   1.994   3.000  0.9905 -0.7907 -0.7465
 8765TIP3    H147710   3.522   2.054   2.962  4.2545 -2.5156  1.8519
 8765TIP3    H247711   3.401   2.051   3.053  0.7544  0.6609 -2.5171
 8766TIP3   OH247712   0.108   4.085  16.769 -0.3931  0.5043 -0.6450
 8766TIP3    H147713   0.067   4.073  16.855  1.2433 -0.1264  0.0667
 8766TIP3    H247714   0.084   4.005  16.721  2.7344 -1.4837  0.9279
 8767TIP3   OH247715   0.785   6.290  16.315 -0.6060 -0.0762  0.1739
 8767TIP3    H147716   0.783   6.375  16.359  0.4562  0.5753 -0.9682
 8767TIP3    H247717   0.877   6.264  16.318 -0.8251 -0.8944 -0.0415
 8768TIP3   OH247718   3.197   5.172  16.302  0.4376  0.2482 -0.4089
 8768TIP3    H147719   3.266   5.177  16.368  0.2571  1.1975 -0.2891
 8768TIP3    H247720   3.244   5.178  16.218  0.5462  0.2883 -0.3458
 8769TIP3   OH247721   4.203   0.695  15.212  0.4947  0.8791 -0.8889
 8769TIP3    H147722   4.160   0.618  15.251  0.1400  1.1456 -0.7462
 8769TIP3    H247723   4.131   0.744  15.172  0.2884  2.6649  1.5814
 8770TIP3   OH247724   0.509   1.969   0.322 -0.1383  0.1461  0.0634
 8770TIP3    H147725   0.552   1.985   0.405  2.3966  2.7077 -1.6654
 8770TIP3    H247726   0.433   2.028   0.323  1.3216  2.0720 -0.4621
 8771TIP3   OH247727   4.009   6.236  14.288 -0.3895 -0.0674 -0.0538
 8771TIP3    H147728   4.003   6.170  14.218 -1.1886 -0.6536  0.5539
 8771TIP3    H247729   4.071   6.200  14.350  0.7087  0.6876 -0.6928
 8772TIP3   OH247730   2.607   6.058   3.796  0.4287 -0.1121  0.1271
 8772TIP3    H147731   2.673   6.112   3.840 -1.1371  0.3445  1.9837
 8772TIP3    H247732   2.657   6.006   3.733  2.5842  0.2363  1.4834
 8773TIP3   OH247733   4.645   4.336  13.477 -0.0047 -0.3484 -0.2434
 8773TIP3    H147734   4.723   4.326  13.423  1.0535  1.6526  0.8566
 8773TIP3    H247735   4.600   4.412  13.440  0.6593  0.9539  1.5388
 8774TIP3   OH247736   2.436   2.973  16.856 -0.1277  0.7918 -0.2112
 8774TIP3    H147737   2.373   2.990  16.786 -2.1951 -1.5506  1.0291
 8774TIP3    H247738   2.390   2.994  16.937  0.4933 -1.3895  0.7473
 8775TIP3   OH247739   0.476   0.806  14.343 -0.1287  0.0564 -0.0156
 8775TIP3    H147740   0.491   0.713  14.328  0.7857  0.3356 -0.9025
 8775TIP3    H247741   0.560   0.847  14.325 -0.5732  1.0772  0.1957
 8776TIP3   OH247742   0.913   6.745  13.772 -0.0174 -0.7889 -0.1058
 8776TIP3    H147743   0.958   6.795  13.704 -0.5375 -1.6092 -1.0565
 8776TIP3    H247744   0.827   6.785  13.779  0.3871 -0.0498  0.8052
 8777TIP3   OH247745   0.937   3.793  16.071  0.0456  0.6994  0.6609
 8777TIP3    H147746   0.989   3.804  16.150  1.8863  0.5381 -0.5215
 8777TIP3    H247747   0.995   3.749  16.009 -1.3589  0.8763 -0.8205
 8778TIP3   OH247748   2.947   3.249  16.271  0.0757 -0.4779 -0.1036
 8778TIP3    H147749   2.898   3.247  16.189 -0.0976  0.8005 -0.0528
 8778TIP3    H247750   2.934   3.163  16.310  1.5048 -1.6930 -2.1839
 8779TIP3   OH247751   5.308   4.976  15.169  0.2740 -0.6056  0.8570
 8779TIP3    H147752   5.381   4.937  15.122  0.5867 -1.8415  2.3216
 8779TIP3    H247753   5.246   5.003  15.101  0.7120 -2.3325 -0.2369
 8780TIP3   OH247754   3.685   2.098   0.483  0.3704  0.4296 -0.1441
 8780TIP3    H147755   3.591   2.103   0.502  0.0817 -0.8487 -1.1479
 8780TIP3    H247756   3.726   2.091   0.569 -0.4909  0.5350  0.2873
 8781TIP3   OH247757   1.545   0.524   0.230 -0.3721  0.0244  0.4213
 8781TIP3    H147758   1.492   0.505   0.153 -0.0417 -0.6694  0.3605
 8781TIP3    H247759   1.597   0.445   0.243  3.4178  2.0038 -1.7361
 8782TIP3   OH247760   5.095   6.408   5.568  0.2479 -0.4715 -0.4976
 8782TIP3    H147761   5.063   6.351   5.499 -2.4514 -1.4408  1.4989
 8782TIP3    H247762   5.027   6.475   5.578  0.9954  0.1417  0.6695
 8783TIP3   OH247763   0.768   1.961   3.081  0.8851  0.6178  0.4246
 8783TIP3    H147764   0.852   1.988   3.045  0.8439 -0.2919 -0.3904
 8783TIP3    H247765   0.735   1.896   3.018  0.2458 -0.0940  1.4741
 8784TIP3   OH247766   4.970   4.062  15.606 -0.2574  0.0779  0.4712
 8784TIP3    H147767   5.022   4.039  15.683 -0.0030 -3.4733 -0.6834
 8784TIP3    H247768   5.033   4.070  15.535 -0.7816  0.6840  0.0624
 8785TIP3   OH247769   1.811   1.230  13.061 -0.4691  0.1107  0.5392
 8785TIP3    H147770   1.758   1.271  13.130 -0.3278  2.2366 -0.5564
 8785TIP3    H247771   1.771   1.144  13.048 -0.0090 -0.6629  3.8019
 8786TIP3   OH247772   3.177   3.237   5.129 -0.2582 -0.1564 -0.1715
 8786TIP3    H147773   3.272   3.240   5.116  0.1610  1.5590  2.7964
 8786TIP3    H247774   3.160   3.148   5.159  0.4064 -0.4948 -0.7817
 8787TIP3   OH247775   4.375   3.162  15.091 -0.0385  0.2055  0.2177
 8787TIP3    H147776   4.407   3.199  15.173 -0.2141 -0.7513  0.7176
 8787TIP3    H247777   4.289   3.126  15.113 -1.1396  2.0138 -0.9218
 8788TIP3   OH247778   6.032   2.383   4.566  0.0032  0.2846 -0.5833
 8788TIP3    H147779   6.037   2.478   4.560 -0.3567  0.3459  0.0429
 8788TIP3    H247780   6.074   2.363   4.650  0.7768 -0.1710 -1.0714
 8789TIP3   OH247781   5.804   1.341   4.675 -0.2681  0.4140 -0.4449
 8789TIP3    H147782   5.874   1.321   4.613 -0.8171 -0.7826 -0.6744
 8789TIP3    H247783   5.829   1.427   4.711  1.3927 -0.0479 -0.4265
 8790TIP3   OH247784   0.678   3.865  15.896 -0.3405  0.4688  0.0972
 8790TIP3    H147785   0.662   3.956  15.921  1.6503  1.0392 -0.5958
 8790TIP3    H247786   0.749   3.836  15.953 -0.9245 -0.6524  0.2803
 8791TIP3   OH247787   0.086   0.445  16.697 -0.4090  0.4887  0.0071
 8791TIP3    H147788   0.032   0.515  16.734  1.1405  1.4738  0.4522
 8791TIP3    H247789   0.124   0.401  16.773  1.1152  1.1781 -0.3435
 8792TIP3   OH247790   1.633   5.351  15.575 -0.1591  0.1338 -0.3264
 8792TIP3    H147791   1.662   5.437  15.545  1.8604  0.2872  1.9330
 8792TIP3    H247792   1.713   5.302  15.593 -1.2532 -1.0852  1.5251
 8793TIP3   OH247793   1.125   5.396   3.637  0.0666 -0.0099  0.5614
 8793TIP3    H147794   1.044   5.379   3.685  0.5141 -2.5022  0.5455
 8793TIP3    H247795   1.098   5.408   3.546 -0.4889  1.4732  0.9200
 8794TIP3   OH247796   1.005   4.514   3.908  0.0437 -0.5545  0.5652
 8794TIP3    H147797   1.057   4.545   3.833  0.8965 -0.7013  1.0909
 8794TIP3    H247798   1.058   4.444   3.946 -1.5833 -2.2740 -0.2550
 8795TIP3   OH247799   4.803   5.774  13.518  0.2088 -0.0045 -0.9351
 8795TIP3    H147800   4.727   5.718  13.533  0.5391 -0.5861 -1.4429
 8795TIP3    H247801   4.866   5.748  13.585 -1.1852  2.6161  1.5419
 8796TIP3   OH247802   5.357   6.512   3.112 -0.4477  0.2594 -0.3777
 8796TIP3    H147803   5.386   6.421   3.120  1.6120  0.9741  0.6448
 8796TIP3    H247804   5.298   6.525   3.186 -0.2355 -0.0626 -0.1511
 8797TIP3   OH247805   4.753   2.513  11.248  0.2355 -0.2168 -0.4617
 8797TIP3    H147806   4.734   2.605  11.234  2.2502  0.4580  1.0518
 8797TIP3    H247807   4.691   2.486  11.317  0.7316  0.4312  0.2426
 8798TIP3   OH247808   5.976   2.483  11.848 -0.4178  0.0204 -0.3936
 8798TIP3    H147809   5.897   2.457  11.800 -1.8174  1.1350  1.2540
 8798TIP3    H247810   5.953   2.565  11.890  1.8073  0.6212 -0.2861
 8799TIP3   OH247811   0.219   4.537   4.084  0.7339 -0.6754  0.2637
 8799TIP3    H147812   0.246   4.617   4.129  0.9209 -0.6394  0.0879
 8799TIP3    H247813   0.257   4.466   4.136  0.3406 -0.6603  0.5728
 8800TIP3   OH247814   4.506   0.544   2.516  0.2066  0.2674  0.6679
 8800TIP3    H147815   4.595   0.513   2.534  0.9078  0.1441 -2.7055
 8800TIP3    H247816   4.451   0.466   2.525  1.1809 -0.8205 -2.0490
 8801TIP3   OH247817   0.753   4.991  16.758 -0.7317 -0.2672 -0.1742
 8801TIP3    H147818   0.824   5.039  16.714 -0.8700 -2.0351 -2.4622
 8801TIP3    H247819   0.791   4.962  16.840 -0.1340  2.3247  0.5161
 8802TIP3   OH247820   3.599   3.269   0.407 -0.0226 -0.0153 -0.3950
 8802TIP3    H147821   3.565   3.259   0.318  0.6256  0.0647 -0.6525
 8802TIP3    H247822   3.536   3.222   0.462 -0.5448  0.1280 -0.8673
 8803TIP3   OH247823   0.388   0.063   5.563  0.7328 -0.2736 -0.2826
 8803TIP3    H147824   0.309   0.031   5.608  0.7375 -0.8600 -0.6830
 8803TIP3    H247825   0.430  -0.017   5.531  2.2237 -0.0745  1.1380
 8804TIP3   OH247826   5.751   6.481   1.859  0.1181 -0.4043 -0.0687
 8804TIP3    H147827   5.826   6.423   1.850  1.4604  1.2017  0.5749
 8804TIP3    H247828   5.785   6.569   1.842 -1.5986  0.3547  0.2407
 8805TIP3   OH247829   5.479   2.950   2.786  0.2029 -0.2149  0.1195
 8805TIP3    H147830   5.471   3.027   2.843  0.9663 -1.1619  1.5476
 8805TIP3    H247831   5.390   2.934   2.756 -0.0467  0.9399  0.2011
 8806TIP3   OH247832   5.635   3.965   6.609  0.5333 -0.2999  0.1639
 8806TIP3    H147833   5.677   3.942   6.526  0.5134  1.4042 -0.3222
 8806TIP3    H247834   5.708   3.991   6.666  0.2786  1.4148 -0.2752
 8807TIP3   OH247835   5.165   5.995  16.714  0.3714 -0.1203 -0.1072
 8807TIP3    H147836   5.082   6.043  16.705 -0.1426 -0.8281  0.7426
 8807TIP3    H247837   5.196   6.018  16.801  0.3229 -1.0100  0.1490
 8808TIP3   OH247838   1.756   3.721   6.462 -0.0836  0.8068 -0.3067
 8808TIP3    H147839   1.665   3.743   6.483 -0.3039 -1.0161  0.7441
 8808TIP3    H247840   1.752   3.634   6.424  1.4617 -0.4104  2.1405
 8809TIP3   OH247841   2.771   1.910  12.723 -0.5206  0.6830  0.2983
 8809TIP3    H147842   2.691   1.908  12.670  0.6776  2.3919 -1.6177
 8809TIP3    H247843   2.740   1.924  12.813 -2.3000  2.7167 -0.6101
 8810TIP3   OH247844   5.117   5.953   3.438  0.6184 -0.3221  0.5926
 8810TIP3    H147845   5.074   5.940   3.522 -1.2398  1.2043 -0.0645
 8810TIP3    H247846   5.166   5.873   3.423 -0.1033 -1.1506  2.5094
 8811TIP3   OH247847   1.214   2.922   5.316 -0.3082  0.2684 -0.1643
 8811TIP3    H147848   1.230   2.842   5.266 -0.6161  1.0439 -1.5175
 8811TIP3    H247849   1.223   2.993   5.252 -0.6889  1.2786  0.8785
 8812TIP3   OH247850   4.455   3.198   0.751 -0.3994 -0.0552  0.0180
 8812TIP3    H147851   4.365   3.167   0.742 -0.3067 -0.4408  0.4216
 8812TIP3    H247852   4.501   3.126   0.794  0.0798  0.1808 -0.0958
 8813TIP3   OH247853   1.836   4.283   1.198  0.2389 -0.2588  0.5563
 8813TIP3    H147854   1.927   4.284   1.229  1.4005 -0.5524 -2.6232
 8813TIP3    H247855   1.828   4.363   1.146 -0.9598 -0.8130 -0.1211
 8814TIP3   OH247856   1.691   6.676   3.145  0.3918 -0.4271 -0.1154
 8814TIP3    H147857   1.658   6.739   3.209  0.4049 -0.2305 -0.3009
 8814TIP3    H247858   1.667   6.713   3.060 -2.1768 -2.0865 -0.1715
 8815TIP3   OH247859   0.818   2.929   5.306 -0.2704  0.2098 -0.1658
 8815TIP3    H147860   0.729   2.917   5.340 -0.1397 -1.4082 -0.3469
 8815TIP3    H247861   0.869   2.862   5.350  0.9775  1.4285  0.2856
 8816TIP3   OH247862   0.373   0.263  14.277 -0.0084  0.3305 -0.3418
 8816TIP3    H147863   0.450   0.300  14.320  0.7493  1.2696 -2.4130
 8816TIP3    H247864   0.392   0.170  14.269  0.5799  0.4302 -0.1410
 8817TIP3   OH247865   2.528   1.462   2.265  0.1326  0.3580  0.3620
 8817TIP3    H147866   2.461   1.489   2.327 -0.3142  0.7433 -0.2822
 8817TIP3    H247867   2.486   1.471   2.179  1.5177  2.1266 -0.1527
 8818TIP3   OH247868   5.197   2.141   6.120  0.4879 -0.0839  0.0406
 8818TIP3    H147869   5.130   2.114   6.184  0.2628 -1.2827 -0.6704
 8818TIP3    H247870   5.194   2.237   6.121 -1.0284 -0.1090  0.2654
 8819TIP3   OH247871   2.377   3.652   0.846 -0.2089 -0.4376 -0.2768
 8819TIP3    H147872   2.342   3.733   0.809  2.1848  1.1030  0.6751
 8819TIP3    H247873   2.335   3.645   0.931 -0.9183 -0.5669 -0.6303
 8820TIP3   OH247874   5.372   2.668  12.030 -0.4100 -0.2005 -0.0359
 8820TIP3    H147875   5.344   2.760  12.032 -2.3654 -0.7910  1.7003
 8820TIP3    H247876   5.293   2.620  12.006  0.1809 -1.5641  0.7239
 8821TIP3   OH247877   6.376   1.823  13.895 -0.0906 -0.0206  0.1150
 8821TIP3    H147878   6.468   1.849  13.895 -0.1571  0.2170 -0.1294
 8821TIP3    H247879   6.365   1.775  13.978 -0.3081  1.9491  1.2574
 8822TIP3   OH247880   2.757   1.901  11.907 -0.5023  0.4430  0.4170
 8822TIP3    H147881   2.735   1.927  11.997 -0.0198 -0.7204  0.8854
 8822TIP3    H247882   2.852   1.890  11.908 -0.3252  1.7765 -0.6096
 8823TIP3   OH247883   2.423   3.434   1.911  0.0296  0.3588 -0.5110
 8823TIP3    H147884   2.507   3.467   1.880  0.4008  0.2297  0.3478
 8823TIP3    H247885   2.360   3.462   1.845  0.6460  1.0313 -0.8162
 8824TIP3   OH247886   3.415   0.938   3.725  0.3814  0.1767  0.4074
 8824TIP3    H147887   3.353   1.004   3.694 -1.3181 -0.9491  1.3740
 8824TIP3    H247888   3.396   0.860   3.672  2.3062  0.3925 -0.6550
 8825TIP3   OH247889   4.040   1.241  15.610 -0.2129  0.1229 -0.5385
 8825TIP3    H147890   4.111   1.240  15.675 -0.2103  1.3007 -0.5137
 8825TIP3    H247891   4.078   1.283  15.533 -0.9559  0.9778 -0.4398
 8826TIP3   OH247892   2.905   3.109  14.831 -0.8020 -0.2346  0.5211
 8826TIP3    H147893   2.882   3.065  14.749  2.1138  0.1270 -0.5216
 8826TIP3    H247894   2.879   3.200  14.818  0.1882 -0.0552 -0.2404
 8827TIP3   OH247895   3.143   6.671  15.886  0.1349  0.0707  0.3445
 8827TIP3    H147896   3.186   6.713  15.961 -0.6683 -0.9005  1.3594
 8827TIP3    H247897   3.152   6.577  15.903  0.9117 -0.1781 -1.3404
 8828TIP3   OH247898   2.594   5.647  12.531 -0.5238 -0.0463 -0.0963
 8828TIP3    H147899   2.689   5.644  12.547 -0.8121  0.7605  1.9676
 8828TIP3    H247900   2.576   5.571  12.477  1.0642 -1.2361  1.0002
 8829TIP3   OH247901   5.853   1.259  11.015 -0.1982  0.1623  0.4908
 8829TIP3    H147902   5.758   1.255  11.027 -0.2756  2.6452  0.9458
 8829TIP3    H247903   5.864   1.309  10.934  0.7266  1.2354  1.2582
 8830TIP3   OH247904   5.648   6.510  13.036 -0.0033  0.1740  0.5304
 8830TIP3    H147905   5.646   6.443  12.967 -0.1157 -1.3745  1.9944
 8830TIP3    H247906   5.723   6.485  13.091  0.0068  1.3152  1.0407
 8831TIP3   OH247907   3.202   3.957   1.797  0.1633  0.0138  0.1624
 8831TIP3    H147908   3.140   4.010   1.847  0.1186  0.3106 -0.2050
 8831TIP3    H247909   3.172   3.867   1.809 -0.6585  0.1972 -0.4442
 8832TIP3   OH247910   1.419   1.195  16.802 -0.4131 -0.0807 -0.1588
 8832TIP3    H147911   1.453   1.250  16.873  1.2299  0.4894 -1.3407
 8832TIP3    H247912   1.338   1.237  16.774 -0.7852 -0.0116  1.0142
 8833TIP3   OH247913   0.015   4.311   0.818  0.1438 -0.6391 -0.1846
 8833TIP3    H147914   0.031   4.241   0.754  0.5113  0.4605 -1.3161
 8833TIP3    H247915  -0.023   4.382   0.766 -1.5275 -0.5022  1.1945
 8834TIP3   OH247916   5.083   0.243  11.106  0.0140  0.2538  0.0660
 8834TIP3    H147917   5.099   0.317  11.164  0.7438  0.5897 -0.5511
 8834TIP3    H247918   5.021   0.277  11.041  0.1011  0.2265 -0.0310
 8835TIP3   OH247919   4.683   5.985  15.981 -0.2779  0.4328  0.3446
 8835TIP3    H147920   4.613   6.012  16.041 -1.7525  0.1631 -1.2202
 8835TIP3    H247921   4.734   5.921  16.031 -1.9539 -0.3938  1.0423
 8836TIP3   OH247922   1.928   3.565   4.332 -0.7258  0.0242 -1.0418
 8836TIP3    H147923   1.907   3.526   4.417 -0.6545 -0.3083 -1.1751
 8836TIP3    H247924   1.898   3.500   4.269  0.5797 -0.3940 -1.2371
 8837TIP3   OH247925   2.101   2.335  15.213 -0.9351 -0.1941 -0.3847
 8837TIP3    H147926   2.054   2.299  15.288 -1.0990 -0.5078 -0.6363
 8837TIP3    H247927   2.117   2.260  15.156  0.8752 -0.2977  0.2249
 8838TIP3   OH247928   2.171   1.858  15.372 -0.4172 -0.3126  0.0266
 8838TIP3    H147929   2.134   1.788  15.318 -0.6623  0.0953 -0.3380
 8838TIP3    H247930   2.187   1.817  15.457 -1.1088 -0.6522 -0.0068
 8839TIP3   OH247931   5.366   5.463  13.268  0.2555  0.1400  0.0164
 8839TIP3    H147932   5.316   5.510  13.336 -0.0501 -0.6066  0.3122
 8839TIP3    H247933   5.428   5.528  13.236  0.1441  0.6218  0.7432
 8840TIP3   OH247934   5.866   1.181   4.931  0.3794 -0.2870 -0.1037
 8840TIP3    H147935   5.824   1.226   4.858  2.1410  1.5088 -0.0513
 8840TIP3    H247936   5.800   1.180   5.000  0.0786  1.7061 -0.3246
 8841TIP3   OH247937   3.591   6.661  16.585 -0.5676  0.7636 -0.0509
 8841TIP3    H147938   3.662   6.615  16.629  0.0182  1.2668 -0.4596
 8841TIP3    H247939   3.512   6.627  16.626 -0.0560  0.8677  1.0580
 8842TIP3   OH247940   2.204   3.508  12.025  0.3245 -0.5784 -0.0316
 8842TIP3    H147941   2.220   3.580  12.087 -0.9578 -1.5041  1.4111
 8842TIP3    H247942   2.197   3.551  11.940  1.8289  0.7525  0.4990
 8843TIP3   OH247943   4.175   0.027  15.257  0.6941 -0.0773 -0.1478
 8843TIP3    H147944   4.207  -0.063  15.255  2.0352  0.3585  0.4250
 8843TIP3    H247945   4.080   0.020  15.248  0.7509 -1.5721  0.3288
 8844TIP3   OH247946   1.809   5.557  12.335 -0.6628  0.3184 -0.0176
 8844TIP3    H147947   1.763   5.563  12.251  0.4843  0.4285 -0.6393
 8844TIP3    H247948   1.902   5.565  12.313 -0.3934  1.2555  1.3524
 8845TIP3   OH247949   2.555   3.539  12.244 -0.0476  0.1499  0.0190
 8845TIP3    H147950   2.551   3.603  12.172  3.0456  0.2675 -0.1443
 8845TIP3    H247951   2.492   3.571  12.308  0.1689  2.4053 -0.8330
 8846TIP3   OH247952   1.866   2.055  14.081  0.6876  0.0897  0.0511
 8846TIP3    H147953   1.897   2.094  14.163  1.0827  0.3408 -0.2127
 8846TIP3    H247954   1.934   2.078  14.017  1.5942 -2.1805  0.1687
 8847TIP3   OH247955   1.703   0.519  12.121  0.3166  0.5167  0.3933
 8847TIP3    H147956   1.742   0.432  12.122 -0.7287  0.0211 -0.3310
 8847TIP3    H247957   1.637   0.517  12.190 -0.7061  0.2404 -0.5697
 8848TIP3   OH247958   5.162   3.805  14.901 -0.1731 -0.0829  0.2320
 8848TIP3    H147959   5.229   3.762  14.953 -1.3808  0.8947  2.6557
 8848TIP3    H247960   5.146   3.888  14.946 -1.7084  0.4992 -1.3374
 8849TIP3   OH247961   1.154   6.362   3.449  0.1946  0.0087 -0.8705
 8849TIP3    H147962   1.095   6.326   3.383 -0.1345 -0.4079 -0.3539
 8849TIP3    H247963   1.219   6.411   3.399  0.3665 -0.9065 -1.5649
 8850TIP3   OH247964   3.911   5.558  12.703 -0.0307  0.0882 -0.0496
 8850TIP3    H147965   3.888   5.542  12.795 -1.1399 -0.4670 -0.4217
 8850TIP3    H247966   3.866   5.639  12.680  0.1919  0.1908 -0.1264
 8851TIP3   OH247967   5.821   0.696   0.190 -0.0928 -0.3443 -0.0113
 8851TIP3    H147968   5.780   0.736   0.267  0.9019  0.8568 -0.0920
 8851TIP3    H247969   5.863   0.617   0.223 -0.2063 -0.1694  0.5537
 8852TIP3   OH247970   4.697   4.241  12.267 -0.2201  0.4810  0.0711
 8852TIP3    H147971   4.694   4.225  12.361  2.1051 -1.9439 -0.2213
 8852TIP3    H247972   4.775   4.296  12.254  0.6225 -0.8754 -0.6449
 8853TIP3   OH247973   5.520   2.617   4.975  0.0175 -0.4604  0.0387
 8853TIP3    H147974   5.610   2.589   4.961 -0.0088 -0.4095 -0.2275
 8853TIP3    H247975   5.491   2.648   4.890 -0.1683 -0.2340  0.1847
 8854TIP3   OH247976   4.189   2.453  16.502 -0.4001 -0.3361  0.4286
 8854TIP3    H147977   4.251   2.399  16.453 -0.7132  0.7629 -1.2365
 8854TIP3    H247978   4.140   2.500  16.434  0.2928  2.5049  1.8126
 8855TIP3   OH247979   1.126   5.062  14.212 -0.6792 -0.4055  0.0970
 8855TIP3    H147980   1.080   5.141  14.182 -0.1572 -0.4806 -0.9313
 8855TIP3    H247981   1.218   5.089  14.218 -0.7009 -0.5360  1.1636
 8856TIP3   OH247982   0.187   6.436   2.629  0.1280 -0.0521  0.0452
 8856TIP3    H147983   0.260   6.481   2.587  0.1943 -0.3861 -0.2005
 8856TIP3    H247984   0.204   6.444   2.723  0.8867 -0.8093 -0.0247
 8857TIP3   OH247985   5.792   2.177  13.877 -0.4326  0.0372  0.2635
 8857TIP3    H147986   5.875   2.222  13.890 -1.6344  1.8139  1.9616
 8857TIP3    H247987   5.807   2.088  13.909  0.6070  0.5566  1.2174
 8858TIP3   OH247988   5.846   3.632   6.081  0.1696  0.2768  0.3787
 8858TIP3    H147989   5.864   3.608   6.172  0.1351 -0.3398  0.2245
 8858TIP3    H247990   5.765   3.587   6.060  2.1836 -2.8283 -1.1850
 8859TIP3   OH247991   4.676   4.854   1.504  0.0300 -0.9698 -0.3725
 8859TIP3    H147992   4.718   4.784   1.454 -1.3871 -1.9013 -0.2941
 8859TIP3    H247993   4.670   4.819   1.593 -1.3780 -1.0682 -0.5017
 8860TIP3   OH247994   3.749   6.779   5.514  0.5681  0.3954  0.6112
 8860TIP3    H147995   3.800   6.700   5.536  2.3012  0.5362 -2.4691
 8860TIP3    H247996   3.660   6.747   5.499  1.0984 -0.9006  0.1222
 8861TIP3   OH247997   5.680   4.143   1.193  0.1384 -0.0429 -0.2839
 8861TIP3    H147998   5.662   4.150   1.287 -1.2683  0.8362 -0.6048
 8861TIP3    H247999   5.775   4.144   1.186  0.2517 -0.3539  1.1556
 8862TIP3   OH248000   2.406   0.226   3.328 -0.1435  0.0485  0.2600
 8862TIP3    H148001   2.429   0.319   3.337 -1.7948  0.5436 -0.4458
 8862TIP3    H248002   2.360   0.221   3.244 -0.1714 -1.3955  0.3497
 8863TIP3   OH248003   4.270   4.190   3.704  0.4123  0.1367  0.3561
 8863TIP3    H148004   4.326   4.241   3.645 -1.6737  0.4329 -1.4428
 8863TIP3    H248005   4.232   4.122   3.648 -2.1613  0.8552  1.1619
 8864TIP3   OH248006   6.465   0.638   3.952  0.1956 -0.3414  0.5816
 8864TIP3    H148007   6.375   0.640   3.985  0.8653  0.6636  2.4185
 8864TIP3    H248008   6.509   0.572   4.005  0.8134 -0.0529  0.4347
 8865TIP3   OH248009   4.059   3.420  15.569  0.2534  0.6414  0.7219
 8865TIP3    H148010   4.141   3.377  15.594  0.3099  1.0352  1.2298
 8865TIP3    H248011   4.081   3.513  15.562 -0.7596  1.1489  3.6412
 8866TIP3   OH248012   4.716   2.034  15.342 -0.0959 -0.4461 -0.0480
 8866TIP3    H148013   4.624   2.010  15.347 -0.2326 -0.0029 -0.4247
 8866TIP3    H248014   4.716   2.123  15.309  0.4608 -0.3557  0.1887
 8867TIP3   OH248015   1.998   2.845   1.334  0.8849 -0.2046 -0.1449
 8867TIP3    H148016   2.082   2.854   1.379  0.1034  1.3718  1.0492
 8867TIP3    H248017   1.950   2.781   1.386  1.5804 -1.6348 -1.2241
 8868TIP3   OH248018   1.321   2.312   2.033  0.1006 -0.0074  0.2909
 8868TIP3    H148019   1.372   2.299   2.113 -0.1446 -0.7240  0.3285
 8868TIP3    H248020   1.315   2.226   1.994  0.2223  0.3452 -0.5088
 8869TIP3   OH248021   3.103   3.302   1.989 -0.0931 -0.4573 -0.0343
 8869TIP3    H148022   3.086   3.314   1.895 -0.5698 -0.4546  0.0501
 8869TIP3    H248023   3.017   3.310   2.030  0.1865  0.0662  0.4597
 8870TIP3   OH248024   5.736   4.768   0.764  0.2339 -0.1758  0.1920
 8870TIP3    H148025   5.718   4.739   0.854 -2.6117 -0.6236 -0.4513
 8870TIP3    H248026   5.695   4.854   0.758 -1.0749 -0.8769 -1.1485
 8871TIP3   OH248027   4.276   6.181   1.180 -0.3638  0.3588  0.2253
 8871TIP3    H148028   4.242   6.221   1.100 -1.0187  0.8590  0.7523
 8871TIP3    H248029   4.316   6.099   1.150 -1.9690 -0.2217 -0.4172
 8872TIP3   OH248030   3.221   0.581  11.870 -0.4145  0.0030  0.4660
 8872TIP3    H148031   3.135   0.619  11.856 -1.0140 -0.5696  2.5417
 8872TIP3    H248032   3.208   0.487  11.862  0.1263 -0.0573  0.2400
 8873TIP3   OH248033   4.259   4.696  13.884  0.0699  0.9348 -0.2135
 8873TIP3    H148034   4.169   4.725  13.867 -0.5635 -0.9595 -0.2026
 8873TIP3    H248035   4.310   4.734  13.813 -0.9438  1.0603 -0.8876
 8874TIP3   OH248036   5.616   5.493  15.462  0.1882  0.0078  0.3060
 8874TIP3    H148037   5.539   5.529  15.419  1.2263  0.5441 -1.1416
 8874TIP3    H248038   5.605   5.398  15.455 -0.1296  0.0869 -0.2991
 8875TIP3   OH248039   2.071   3.119   1.203  0.0897  0.3741 -0.6469
 8875TIP3    H148040   2.154   3.085   1.236  0.2739  0.1981 -1.2841
 8875TIP3    H248041   2.047   3.188   1.265  0.0892 -0.4037  0.2367
 8876TIP3   OH248042   5.047   4.726   2.648  0.2314  0.0911  0.1967
 8876TIP3    H148043   5.123   4.672   2.669  0.8360  0.7026 -0.4305
 8876TIP3    H248044   5.065   4.761   2.561 -0.3809  0.9081  0.3923
 8877TIP3   OH248045   6.588   4.018   2.130 -0.3470  0.1290 -0.0599
 8877TIP3    H148046   6.652   4.019   2.201 -0.8409  0.2679  0.3787
 8877TIP3    H248047   6.538   4.099   2.141  0.8162  1.1155 -1.6858
 8878TIP3   OH248048   6.691   4.603  11.365 -0.3637 -0.3057 -0.0283
 8878TIP3    H148049   6.640   4.664  11.312 -0.5037 -0.5474 -0.1730
 8878TIP3    H248050   6.642   4.596  11.447  0.4258  0.8949  0.5464
 8879TIP3   OH248051   2.811   4.232  11.550 -0.4598 -0.4919 -0.0383
 8879TIP3    H148052   2.717   4.227  11.570  0.0154  1.7519  3.0081
 8879TIP3    H248053   2.817   4.304  11.487 -0.6506  0.1114  0.6313
 8880TIP3   OH248054   2.941   0.767  10.800 -0.3070 -0.3637  0.6950
 8880TIP3    H148055   2.937   0.807  10.713 -1.8634  1.2509  1.4877
 8880TIP3    H248056   3.033   0.775  10.826 -0.2279  0.9727  0.0451
 8881TIP3   OH248057   4.344   2.564  14.983  0.0200 -0.3904  0.1491
 8881TIP3    H148058   4.256   2.593  14.958 -0.5027 -0.9884  1.2670
 8881TIP3    H248059   4.400   2.593  14.911 -0.9244  0.9300 -0.0671
 8882TIP3   OH248060   3.540   5.789  16.045 -0.9517 -0.0301  0.0526
 8882TIP3    H148061   3.582   5.703  16.041 -0.4378  0.1820  0.7620
 8882TIP3    H248062   3.457   5.773  16.090 -0.8383 -0.1476  0.2198
 8883TIP3   OH248063   1.386   1.088   2.193 -0.0851 -0.3340  0.7739
 8883TIP3    H148064   1.347   1.035   2.263 -1.6088  2.0286  1.8008
 8883TIP3    H248065   1.479   1.068   2.196 -0.2070 -0.7530  3.1146
 8884TIP3   OH248066   3.490   2.250   4.698 -0.1464  0.1340 -0.2299
 8884TIP3    H148067   3.567   2.306   4.683  0.8407 -0.6490  1.6891
 8884TIP3    H248068   3.487   2.193   4.622  1.2347  0.1280 -0.3076
 8885TIP3   OH248069   5.337   0.608  13.126  0.9422 -0.0634  0.1843
 8885TIP3    H148070   5.367   0.635  13.213 -0.4732  1.4263  0.2451
 8885TIP3    H248071   5.355   0.683  13.070  0.3024 -0.3675 -0.4362
 8886TIP3   OH248072   0.173   6.244  12.550  0.1195 -0.1025  0.3683
 8886TIP3    H148073   0.096   6.300  12.550  0.3352  0.2032  1.4418
 8886TIP3    H248074   0.236   6.291  12.495  0.0049  0.2928  0.5741
 8887TIP3   OH248075   5.975   1.489  12.400 -0.1303 -0.3415  0.6519
 8887TIP3    H148076   6.061   1.503  12.440 -0.2269 -1.7940  1.3916
 8887TIP3    H248077   5.913   1.528  12.462 -0.0081  1.0297 -0.0515
 8888TIP3   OH248078   5.598   1.355  14.427  0.2161 -0.0818 -0.4068
 8888TIP3    H148079   5.639   1.386  14.346  0.6727  0.2513 -0.0501
 8888TIP3    H248080   5.520   1.409  14.436  0.7627  0.6579 -0.0324
 8889TIP3   OH248081   5.718   0.190   3.725  0.5652  0.4451 -0.7028
 8889TIP3    H148082   5.774   0.128   3.678  0.8706  2.4999 -3.1543
 8889TIP3    H248083   5.678   0.244   3.657 -1.2774  1.6644  1.2405
 8890TIP3   OH248084   3.644   1.081   3.127 -0.4404  0.3189 -0.0555
 8890TIP3    H148085   3.704   1.109   3.057  1.0600  0.5539  1.2925
 8890TIP3    H248086   3.559   1.117   3.102  0.2433  1.0822 -1.3383
 8891TIP3   OH248087   4.298   2.335  12.792  0.0335 -0.2550  0.4136
 8891TIP3    H148088   4.267   2.323  12.881  0.5236 -1.5811  0.4188
 8891TIP3    H248089   4.287   2.249  12.751  0.4897  0.1529 -0.5862
 8892TIP3   OH248090   0.312   2.389  16.145  0.1941  0.3892  0.9803
 8892TIP3    H148091   0.285   2.369  16.234 -2.2803 -1.4265 -0.1157
 8892TIP3    H248092   0.398   2.349  16.135 -0.2384 -0.8104  2.0331
 8893TIP3   OH248093   0.101   5.324   2.957  0.5226 -0.0560  0.4923
 8893TIP3    H148094   0.078   5.264   3.028  1.4394 -1.8098 -0.6581
 8893TIP3    H248095   0.017   5.356   2.924  0.0569 -0.0059  1.7045
 8894TIP3   OH248096   6.463   3.563   3.090 -0.2339 -0.4199 -0.0063
 8894TIP3    H148097   6.524   3.607   3.031 -0.8448  1.2986  0.6135
 8894TIP3    H248098   6.501   3.578   3.177 -1.4631  0.5462  0.3680
 8895TIP3   OH248099   5.503   1.089   2.105 -0.2654 -0.4863  0.0730
 8895TIP3    H148100   5.408   1.092   2.109 -0.2088  0.7265  0.4050
 8895TIP3    H248101   5.528   1.020   2.167 -0.8225  0.4532  1.3541
 8896TIP3   OH248102   4.112   2.013   5.818  0.0239  0.3948 -0.0026
 8896TIP3    H148103   4.160   1.951   5.873  0.4170  1.3738  0.7898
 8896TIP3    H248104   4.045   2.050   5.876  0.7633  1.8071 -0.0069
 8897TIP3   OH248105   0.079   3.274  16.124 -0.0226 -0.6404  0.6784
 8897TIP3    H148106   0.093   3.180  16.112 -0.2301 -0.4998 -0.7551
 8897TIP3    H248107   0.149   3.315  16.074  0.0382 -0.0180  1.2626
 8898TIP3   OH248108   5.349   3.481   1.905  0.2513  0.3385  0.2390
 8898TIP3    H148109   5.271   3.525   1.939 -0.6684 -0.4189 -0.8551
 8898TIP3    H248110   5.397   3.551   1.860 -0.9034  0.3722 -0.9718
 8899TIP3   OH248111   2.663   3.456  16.830  0.5021 -0.3815 -0.1900
 8899TIP3    H148112   2.698   3.397  16.896 -2.2913 -1.7463  0.1402
 8899TIP3    H248113   2.638   3.535  16.879  1.8604  0.0898 -0.2349
 8900TIP3   OH248114   3.714   2.677  11.957 -0.1264 -0.1470  0.3383
 8900TIP3    H148115   3.738   2.744  11.893  0.0024 -1.4431 -0.9875
 8900TIP3    H248116   3.651   2.622  11.911  0.6492 -1.6226  1.0225
 8901TIP3   OH248117   3.845   5.481  13.417  0.5335  0.3863  0.2764
 8901TIP3    H148118   3.934   5.496  13.385  0.0659  0.3709 -1.0645
 8901TIP3    H248119   3.821   5.396  13.380  0.4774 -0.2758  1.8073
 8902TIP3   OH248120   3.028   2.784  15.858  0.0402 -0.5559  0.2466
 8902TIP3    H148121   3.121   2.806  15.868  0.4515 -2.7760  1.6059
 8902TIP3    H248122   2.999   2.763  15.947 -1.3029 -1.6233 -0.4394
 8903TIP3   OH248123   3.852   4.409   5.930  0.0899  0.2572 -0.0143
 8903TIP3    H148124   3.866   4.398   6.024 -0.4551 -1.2336 -0.0965
 8903TIP3    H248125   3.855   4.320   5.895  0.8645  0.8493 -1.4982
 8904TIP3   OH248126   4.198   5.166  13.061  0.6871  0.0451  0.0999
 8904TIP3    H148127   4.219   5.259  13.053  1.1708  0.1931  2.6175
 8904TIP3    H248128   4.269   5.121  13.015  2.3395  0.8426  1.7569
 8905TIP3   OH248129   2.327   2.855  15.454  0.7433 -0.1886  0.1873
 8905TIP3    H148130   2.402   2.820  15.405  0.9557 -1.1347  1.1699
 8905TIP3    H248131   2.342   2.949  15.455  1.0262 -0.2131 -1.0903
 8906TIP3   OH248132   6.713   0.908  13.626  0.1249  0.5546 -0.4376
 8906TIP3    H148133   6.739   0.965  13.699 -0.0217  1.6079 -1.1919
 8906TIP3    H248134   6.643   0.854  13.661  2.1590 -1.1582  1.1387
 8907TIP3   OH248135   5.438   3.922  11.920  0.0063 -0.2168 -0.6190
 8907TIP3    H148136   5.435   3.946  11.827 -0.7688  0.1550 -0.4978
 8907TIP3    H248137   5.508   3.975  11.956 -0.6924  0.7511 -0.6744
 8908TIP3   OH248138   1.535   0.984   4.156 -0.2228  0.0141  0.0037
 8908TIP3    H148139   1.532   0.998   4.250 -2.0471  1.5862 -0.2451
 8908TIP3    H248140   1.521   1.071   4.118 -1.7883 -0.9211 -1.6967
 8909TIP3   OH248141   5.257   4.546   5.293  0.0869 -0.2487  0.0216
 8909TIP3    H148142   5.297   4.459   5.296  2.9009  1.0480  3.2545
 8909TIP3    H248143   5.313   4.596   5.233 -0.9366 -0.3248 -1.0324
 8910TIP3   OH248144   3.637   5.089  16.120 -0.4106  0.1569 -0.3965
 8910TIP3    H148145   3.615   5.008  16.075  1.0775 -0.7722  0.5266
 8910TIP3    H248146   3.608   5.076  16.210  0.9201  0.1809  0.0419
 8911TIP3   OH248147   5.600   3.048  12.383 -0.8448 -0.3578  0.2387
 8911TIP3    H148148   5.603   3.143  12.382 -0.9009 -0.3477  0.7661
 8911TIP3    H248149   5.552   3.026  12.463 -0.5958 -0.8317  0.2629
 8912TIP3   OH248150   4.680   6.675   2.639 -0.2313 -0.0586  0.1418
 8912TIP3    H148151   4.751   6.739   2.646  0.2448 -0.5530 -0.1430
 8912TIP3    H248152   4.681   6.628   2.723  0.3050 -0.6129 -0.1749
 8913TIP3   OH248153   4.670   0.783   2.094  0.0867 -0.3992 -0.7056
 8913TIP3    H148154   4.580   0.807   2.118  1.2115  0.9374  2.3564
 8913TIP3    H248155   4.682   0.821   2.007 -1.1881  2.4515  0.3158
 8914TIP3   OH248156   4.711   5.099  16.215 -0.1039 -0.6942  0.9663
 8914TIP3    H148157   4.627   5.073  16.251  0.6082 -2.2906  1.5523
 8914TIP3    H248158   4.761   5.132  16.290  0.5345 -1.7610  1.0232
 8915TIP3   OH248159   0.635   4.546   2.357 -0.2536 -1.0346  0.3322
 8915TIP3    H148160   0.617   4.508   2.443 -1.0113 -0.0890  0.5927
 8915TIP3    H248161   0.551   4.542   2.311 -1.2352  3.4092  1.5534
 8916TIP3   OH248162   6.673   3.008  14.389 -0.1128 -0.0439 -0.1755
 8916TIP3    H148163   6.593   3.050  14.357 -0.9303 -0.6798  1.0154
 8916TIP3    H248164   6.681   2.928  14.337  0.4909  0.6912 -1.2289
 8917TIP3   OH248165   0.672   3.307  12.710 -0.0253  0.2335 -0.0470
 8917TIP3    H148166   0.590   3.338  12.672 -1.1403 -0.2474  1.9502
 8917TIP3    H248167   0.738   3.368  12.676 -0.9139 -0.3642 -2.9993
 8918TIP3   OH248168   4.318   6.304   4.258  0.6796 -0.4992 -0.5986
 8918TIP3    H148169   4.399   6.353   4.275  0.8133  0.0354 -2.6233
 8918TIP3    H248170   4.249   6.357   4.299  1.0938  0.2754 -0.8823
 8919TIP3   OH248171   0.121   5.742   4.323  0.4659 -0.6895  0.5586
 8919TIP3    H148172   0.118   5.838   4.324 -3.8953 -0.7437  1.4319
 8919TIP3    H248173   0.121   5.717   4.415  0.8539 -1.5773  0.3264
 8920TIP3   OH248174   4.055   6.495   5.078  0.9568  0.0542  0.0213
 8920TIP3    H148175   3.966   6.473   5.106  1.4598 -0.4781  1.2368
 8920TIP3    H248176   4.081   6.423   5.020  1.4941 -1.0609  1.6213
 8921TIP3   OH248177   6.640   4.640  12.154 -0.0915 -0.3790 -0.3710
 8921TIP3    H148178   6.699   4.571  12.126 -2.0220 -2.7632  1.2537
 8921TIP3    H248179   6.596   4.669  12.074  0.3265 -1.4484 -0.9910
 8922TIP3   OH248180   1.095   2.272   3.373 -0.5495 -0.1525 -0.1432
 8922TIP3    H148181   1.025   2.214   3.343 -1.3170  0.5103  0.3400
 8922TIP3    H248182   1.151   2.284   3.296 -0.9571 -0.7083 -0.5258
 8923TIP3   OH248183   1.425   6.170   4.022  0.3554  0.3416  0.3770
 8923TIP3    H148184   1.514   6.162   3.987  0.5578  0.8301  0.7731
 8923TIP3    H248185   1.436   6.216   4.105 -0.3349  0.8991  0.1600
 8924TIP3   OH248186   4.170   0.717  12.266 -0.2184 -0.1232 -0.1945
 8924TIP3    H148187   4.237   0.759  12.321  1.0520 -0.3903 -1.5069
 8924TIP3    H248188   4.218   0.649  12.218 -1.7115 -1.2463 -0.1465
 8925TIP3   OH248189   0.173   4.366  13.301  0.0982  0.5659 -0.0302
 8925TIP3    H148190   0.165   4.301  13.371 -1.5815 -0.1235 -0.8324
 8925TIP3    H248191   0.141   4.447  13.339 -2.0720 -0.1022 -0.3711
 8926TIP3   OH248192   6.564   3.606  16.110 -0.3307 -0.1275  0.6381
 8926TIP3    H148193   6.652   3.624  16.079 -0.5839 -0.4715 -0.3067
 8926TIP3    H248194   6.515   3.582  16.031 -1.0311 -0.8508  1.2825
 8927TIP3   OH248195   6.178   0.741   4.505 -0.2793  0.0639  0.0895
 8927TIP3    H148196   6.165   0.747   4.410 -0.2497  0.2201  0.0947
 8927TIP3    H248197   6.208   0.828   4.530 -2.0361  0.5654  0.5100
 8928TIP3   OH248198   1.097   5.005   4.235  0.4007  0.5269 -0.1925
 8928TIP3    H148199   1.113   4.961   4.152  0.8642  1.8763 -0.8281
 8928TIP3    H248200   1.004   5.028   4.233  0.0592 -0.7801  0.3225
 8929TIP3   OH248201   5.096   6.741  14.310  0.2998  0.6762 -0.0891
 8929TIP3    H148202   5.009   6.747  14.270  0.0544 -0.9348  0.1802
 8929TIP3    H248203   5.113   6.830  14.341 -1.7149  0.7793  0.8235
 8930TIP3   OH248204   4.449   0.522  13.971 -0.2607  0.5287 -0.4531
 8930TIP3    H148205   4.487   0.586  13.911  0.2512  0.2462 -0.4351
 8930TIP3    H248206   4.522   0.463  13.992 -0.3856  0.7537  0.6167
 8931TIP3   OH248207   0.834   5.351  12.624 -0.5267  0.7096 -0.6918
 8931TIP3    H148208   0.904   5.413  12.643 -0.8526  0.6897  0.6201
 8931TIP3    H248209   0.755   5.394  12.657 -0.5547 -0.9950  1.6063
 8932TIP3   OH248210   4.972   6.066   2.229  0.0440 -0.1872  0.2347
 8932TIP3    H148211   4.979   6.014   2.148 -2.1071 -0.1103 -0.0441
 8932TIP3    H248212   5.036   6.027   2.288  0.0476 -1.7174 -0.7361
 8933TIP3   OH248213   4.876   3.736   3.875 -0.2745  0.1703  0.2727
 8933TIP3    H148214   4.788   3.713   3.847 -0.3577  0.6574  0.1387
 8933TIP3    H248215   4.930   3.726   3.796 -0.2880  0.3188  0.2453
 8934TIP3   OH248216   3.380   3.939  14.998 -0.1424  0.4371 -0.6365
 8934TIP3    H148217   3.296   3.894  14.997 -0.6402  1.2935 -3.4640
 8934TIP3    H248218   3.443   3.872  15.025 -1.5927 -0.4544  0.5841
 8935TIP3   OH248219   4.713   2.075  16.867  0.9532  0.0084  0.5100
 8935TIP3    H148220   4.709   2.015  16.792  1.3785 -0.3672  0.7851
 8935TIP3    H248221   4.759   2.152  16.834  0.1601  0.3052  0.0767
 8936TIP3   OH248222   3.453   2.017   6.041  0.9674  0.3159 -0.6457
 8936TIP3    H148223   3.479   1.935   6.084  1.6994  1.1919  0.6218
 8936TIP3    H248224   3.363   2.032   6.071  1.2908  0.6469  0.1924
 8937TIP3   OH248225   2.121   5.433  15.352  0.0806 -0.4201 -0.3624
 8937TIP3    H148226   2.078   5.487  15.418  1.8425 -0.0639  0.5308
 8937TIP3    H248227   2.189   5.386  15.400  1.1881 -0.3911 -1.8714
 8938TIP3   OH248228   0.054   1.292   1.484  0.5707 -0.3345 -0.1392
 8938TIP3    H148229   0.124   1.344   1.524  0.8039 -0.8754  0.1653
 8938TIP3    H248230   0.065   1.305   1.390 -0.3852  1.4733 -0.0241
 8939TIP3   OH248231   0.803   1.740  15.024  0.2936 -0.1761 -0.0800
 8939TIP3    H148232   0.847   1.786  14.953 -1.5043  0.0885 -1.0558
 8939TIP3    H248233   0.746   1.677  14.981  0.8771 -1.6049  1.1959
 8940TIP3   OH248234   2.865   5.639  15.636  0.0680 -0.1879  0.1950
 8940TIP3    H148235   2.903   5.622  15.550  2.1695 -1.2118  1.2886
 8940TIP3    H248236   2.827   5.555  15.662 -0.0755 -0.0265  0.5087
 8941TIP3   OH248237   2.852   2.408   5.571 -0.2894  0.1276 -0.4748
 8941TIP3    H148238   2.904   2.342   5.525 -0.5185 -0.6396  0.3423
 8941TIP3    H248239   2.850   2.377   5.662  1.1865  2.2463  0.3011
 8942TIP3   OH248240   3.445   6.032   5.063 -0.2880 -0.2810 -0.5099
 8942TIP3    H148241   3.425   5.947   5.103 -0.8800  0.3932  0.6224
 8942TIP3    H248242   3.541   6.036   5.061 -0.2303 -1.6925 -2.1088
 8943TIP3   OH248243   3.311   1.847  11.746  0.5993  0.2684 -0.4851
 8943TIP3    H148244   3.362   1.895  11.682  1.4257  0.5645  0.3901
 8943TIP3    H248245   3.260   1.784  11.694  0.8607  0.8594 -1.4636
 8944TIP3   OH248246   5.183   3.712  16.657 -0.1933  0.4673  0.2022
 8944TIP3    H148247   5.106   3.658  16.639  0.1278  0.3348 -0.7761
 8944TIP3    H248248   5.151   3.781  16.715 -0.4216 -1.2807  2.2366
 8945TIP3   OH248249   1.573   4.202  13.911 -0.3269  0.1841  0.1747
 8945TIP3    H148250   1.512   4.154  13.856  0.0291  0.3859 -0.3988
 8945TIP3    H248251   1.657   4.194  13.867 -0.0822  0.5349  0.5698
 8946TIP3   OH248252   6.180   2.903  13.401  0.1528  0.6080 -0.2433
 8946TIP3    H148253   6.255   2.844  13.390  0.1263 -0.1842  3.0780
 8946TIP3    H248254   6.213   2.988  13.373  2.0914  0.1183  0.4100
 8947TIP3   OH248255   2.420   1.165   0.645  0.4201 -0.1012  0.5751
 8947TIP3    H148256   2.485   1.235   0.648 -0.6996  0.9505  0.9877
 8947TIP3    H248257   2.454   1.103   0.580  0.8330  1.4364 -0.7121
 8948TIP3   OH248258   1.155   2.921  16.775 -0.0377  0.1890  0.0936
 8948TIP3    H148259   1.067   2.956  16.756  0.0649 -0.3716 -1.4862
 8948TIP3    H248260   1.214   2.990  16.745  0.0715  1.1082  2.2982
 8949TIP3   OH248261   4.985   0.260  16.420  0.5684 -0.2551  0.0355
 8949TIP3    H148262   5.000   0.229  16.509  2.0619 -0.3099 -0.2194
 8949TIP3    H248263   4.894   0.237  16.401  0.7704 -1.8356  0.9038
 8950TIP3   OH248264   6.564   4.174  15.526 -0.2363 -0.0184 -0.2907
 8950TIP3    H148265   6.608   4.089  15.525 -0.4826 -0.1699  0.8503
 8950TIP3    H248266   6.475   4.154  15.554  0.3060  0.8791  2.2177
 8951TIP3   OH248267   6.499   4.561  14.951  0.1335  0.2518 -0.4223
 8951TIP3    H148268   6.588   4.585  14.979 -0.8457  2.4753  0.8548
 8951TIP3    H248269   6.486   4.610  14.870 -0.8049  1.8189  0.6644
 8952TIP3   OH248270   2.477   6.398   5.668 -0.1861 -0.3875  0.4541
 8952TIP3    H148271   2.571   6.379   5.673 -0.4393 -1.4593  1.5584
 8952TIP3    H248272   2.472   6.493   5.666  0.9389 -0.3250  0.1741
 8953TIP3   OH248273   2.060   4.218  15.960  0.0229 -0.1542  0.1186
 8953TIP3    H148274   2.034   4.296  15.912  0.0767 -2.0913 -3.2597
 8953TIP3    H248275   2.156   4.222  15.961  0.0365 -0.3347 -0.3515
 8954TIP3   OH248276   5.266   2.071  11.504  0.0158 -0.2925  0.0423
 8954TIP3    H148277   5.337   2.009  11.521 -0.6508 -1.0993 -0.1392
 8954TIP3    H248278   5.186   2.025  11.530 -0.5596  0.1752 -0.8794
 8955TIP3   OH248279   2.727   2.107   1.639  0.2732 -0.6933 -0.5794
 8955TIP3    H148280   2.648   2.071   1.680  0.2362 -0.8709 -0.8056
 8955TIP3    H248281   2.693   2.160   1.567  0.2883  0.3663  0.1750
 8956TIP3   OH248282   3.819   1.341  12.940 -0.1873 -0.0545  0.0758
 8956TIP3    H148283   3.884   1.333  13.010  0.7403  1.8794 -0.5448
 8956TIP3    H248284   3.814   1.253  12.902 -0.0898 -0.9253  2.0068
 8957TIP3   OH248285   5.844   6.617  15.602 -0.5054  0.2010 -0.4740
 8957TIP3    H148286   5.800   6.702  15.612  0.5390  0.7209 -0.2851
 8957TIP3    H248287   5.800   6.560  15.667 -0.4093  0.9116  0.2221
 8958TIP3   OH248288   0.211   0.003  13.207 -0.5223  0.4609  0.5009
 8958TIP3    H148289   0.237   0.007  13.299  0.9067 -0.5304  0.1600
 8958TIP3    H248290   0.273   0.061  13.162  0.6664 -1.3278 -0.2175
 8959TIP3   OH248291   2.961   1.773   5.142  0.3496 -0.1209 -0.6007
 8959TIP3    H148292   2.891   1.837   5.153  2.1106  1.6855  0.2771
 8959TIP3    H248293   2.966   1.728   5.226  1.7210  1.2827  0.0785
 8960TIP3   OH248294   0.646   1.954  12.354  0.0890 -0.0358  0.0182
 8960TIP3    H148295   0.615   1.864  12.358 -0.6621  0.1210 -1.7104
 8960TIP3    H248296   0.602   1.998  12.426  0.6469 -1.0938  1.0214
 8961TIP3   OH248297   5.871   1.653  15.066  0.1151  0.1318 -0.3323
 8961TIP3    H148298   5.816   1.651  14.988 -1.8616 -0.2715  1.0191
 8961TIP3    H248299   5.960   1.655  15.033 -0.6996  4.7589 -2.6812
 8962TIP3   OH248300   2.070   3.069  12.377 -0.3740 -0.1997  0.0658
 8962TIP3    H148301   2.141   3.080  12.313  0.4126 -1.9430  0.6130
 8962TIP3    H248302   2.056   3.157  12.412  1.6977  0.1434  0.1203
 8963TIP3   OH248303   0.513   1.675   3.337  0.1436  1.0408 -0.2514
 8963TIP3    H148304   0.420   1.666   3.355  0.4179  1.2124  1.3720
 8963TIP3    H248305   0.535   1.598   3.284 -0.6183  0.2387  0.5857
 8964TIP3   OH248306   2.682   0.681   0.934 -0.0516  0.2233  0.0974
 8964TIP3    H148307   2.665   0.659   0.842 -0.8785 -0.2234  0.3503
 8964TIP3    H248308   2.684   0.597   0.979 -0.6868  0.4987  0.6572
 8965TIP3   OH248309   3.756   4.343  11.945 -0.0506  0.4236  0.0150
 8965TIP3    H148310   3.817   4.278  11.979  0.7464  0.5169 -1.2080
 8965TIP3    H248311   3.766   4.418  12.004 -0.4079 -0.2596  0.9691
 8966TIP3   OH248312   2.582   4.516   2.258  0.0054  0.1018 -0.1641
 8966TIP3    H148313   2.552   4.443   2.311  0.9905 -0.4879 -0.4048
 8966TIP3    H248314   2.657   4.551   2.305 -2.2378  2.8714  1.5085
 8967TIP3   OH248315   6.670   2.215   5.648  0.5503  0.0772 -0.4810
 8967TIP3    H148316   6.710   2.200   5.563 -0.4646  0.4855 -1.0339
 8967TIP3    H248317   6.583   2.250   5.629  0.4849  0.6112  0.7255
 8968TIP3   OH248318   5.977   2.656  14.192  0.2789 -0.5538 -0.4727
 8968TIP3    H148319   5.949   2.702  14.271  0.3833  1.3798 -1.5362
 8968TIP3    H248320   6.065   2.624  14.214 -0.7593 -2.4642  1.1492
 8969TIP3   OH248321   1.176   2.060   3.150 -0.7372 -0.6494  0.3239
 8969TIP3    H148322   1.138   2.087   3.065  0.6934 -0.7906 -0.3661
 8969TIP3    H248323   1.227   2.136   3.178 -2.2050 -0.1355  1.6847
 8970TIP3   OH248324   2.775   4.985  11.293 -0.4139  0.3553 -0.0942
 8970TIP3    H148325   2.764   5.022  11.205 -2.6474 -0.1602 -0.0543
 8970TIP3    H248326   2.729   5.046  11.350 -1.5200 -0.8851  0.3437
 8971TIP3   OH248327   6.705   3.755   6.497 -0.3502  0.4784  0.2506
 8971TIP3    H148328   6.679   3.836   6.452  1.4867  0.9967  0.0394
 8971TIP3    H248329   6.773   3.718   6.440 -0.8164 -0.9408  0.6207
 8972TIP3   OH248330   0.424   6.226   4.278 -0.3214 -0.0414 -0.0142
 8972TIP3    H148331   0.466   6.169   4.343 -1.6261 -1.1082 -0.0824
 8972TIP3    H248332   0.361   6.277   4.328  0.0563  0.5400 -0.1337
 8973TIP3   OH248333   4.941   1.598  14.197 -0.4491  1.1430 -0.5732
 8973TIP3    H148334   4.943   1.633  14.286  1.9961  1.2822 -0.6500
 8973TIP3    H248335   4.875   1.529  14.200 -0.8024  1.5198  1.1949
 8974TIP3   OH248336   5.864   2.816   0.503  0.2689 -0.2111 -0.0634
 8974TIP3    H148337   5.770   2.834   0.506  0.2124 -0.5041 -0.1188
 8974TIP3    H248338   5.898   2.876   0.437  0.1431  0.0016  0.0663
 8975TIP3   OH248339   0.997   6.609  13.999  0.3282  0.1469  0.3260
 8975TIP3    H148340   0.930   6.637  13.936  0.5447 -0.1351 -0.0334
 8975TIP3    H248341   1.061   6.681  13.999 -1.3582  1.6980  2.7517
 8976TIP3   OH248342   1.075   4.527   3.022 -0.1939 -0.1167  0.7142
 8976TIP3    H148343   0.998   4.525   2.965  0.2399 -0.2144  0.1265
 8976TIP3    H248344   1.063   4.606   3.075 -0.4744  0.1162  0.3115
 8977TIP3   OH248345   1.468   0.756   4.353  0.4212  0.0192  0.1048
 8977TIP3    H148346   1.498   0.753   4.262  1.7824  1.0774  0.5068
 8977TIP3    H248347   1.547   0.770   4.404 -0.6936  2.6800  1.1905
 8978TIP3   OH248348   2.423   0.370   4.522 -0.3954 -0.0104  0.6921
 8978TIP3    H148349   2.432   0.384   4.616 -0.5529 -0.2618  0.7440
 8978TIP3    H248350   2.497   0.416   4.483  0.1710 -0.6566  1.0031
 8979TIP3   OH248351   5.569   6.427   2.922  0.5283 -0.1825  0.0593
 8979TIP3    H148352   5.529   6.343   2.945 -1.4462  0.7546  0.1629
 8979TIP3    H248353   5.593   6.418   2.830  1.5792 -1.3271  0.4336
 8980TIP3   OH248354   4.424   2.015   5.300 -0.4378 -0.5382 -0.2569
 8980TIP3    H148355   4.330   1.998   5.297 -0.2120 -1.5868 -1.9545
 8980TIP3    H248356   4.437   2.066   5.380 -2.4243 -0.5070  0.0571
 8981TIP3   OH248357   0.708   0.194   3.057  0.4529 -0.0853  0.1784
 8981TIP3    H148358   0.645   0.266   3.054 -0.0704 -0.5716 -0.5910
 8981TIP3    H248359   0.679   0.140   3.131  1.1802  0.7792  1.1211
 8982TIP3   OH248360   3.621   1.937   4.018  0.1180  0.5888 -0.6906
 8982TIP3    H148361   3.577   2.021   4.006 -0.5093  0.6301  1.6131
 8982TIP3    H248362   3.602   1.913   4.109  1.0376 -1.6176 -1.0521
 8983TIP3   OH248363   0.103   6.640   1.495 -0.8618  0.0881 -0.1121
 8983TIP3    H148364   0.081   6.692   1.572 -0.5420  0.4667 -0.2775
 8983TIP3    H248365   0.043   6.566   1.499 -0.6863 -0.0237  0.6351
 8984TIP3   OH248366   1.651   5.543  14.783 -0.1283 -0.3467 -0.5792
 8984TIP3    H148367   1.743   5.521  14.796 -0.2283 -0.2333  0.3848
 8984TIP3    H248368   1.651   5.606  14.712  0.4557 -1.0457 -1.2015
 8985TIP3   OH248369   3.251   2.725   2.329 -0.2566  0.0016  0.1435
 8985TIP3    H148370   3.289   2.746   2.244 -1.4492  0.3281 -0.3231
 8985TIP3    H248371   3.158   2.709   2.311 -0.7292  1.0645  1.5317
 8986TIP3   OH248372   5.728   0.024  11.182  0.6641 -0.0766  0.1275
 8986TIP3    H148373   5.647   0.075  11.186  0.5839  0.0139 -2.2965
 8986TIP3    H248374   5.798   0.089  11.186  0.6140 -0.0732  1.0519
 8987TIP3   OH248375   4.354   0.805  12.454 -0.4025  0.5805 -0.6461
 8987TIP3    H148376   4.331   0.805  12.547  0.0948 -1.5426 -0.4917
 8987TIP3    H248377   4.450   0.805  12.453 -0.3705 -2.0537 -1.0839
 8988TIP3   OH248378   5.789   3.957   6.118 -0.2812 -0.5818  0.7286
 8988TIP3    H148379   5.770   3.872   6.078  2.1467 -1.1283  0.6347
 8988TIP3    H248380   5.837   3.936   6.198 -1.0486  0.6711  1.5469
 8989TIP3   OH248381   0.691   1.445  16.172 -0.0601  0.4140  0.1856
 8989TIP3    H148382   0.659   1.435  16.262  1.0734 -3.1746  0.2721
 8989TIP3    H248383   0.633   1.389  16.120  1.9806 -1.0321 -0.6089
 8990TIP3   OH248384   0.137   3.592  14.264  0.3013  0.0145  0.3216
 8990TIP3    H148385   0.108   3.660  14.324 -3.7933  0.8031 -2.3250
 8990TIP3    H248386   0.157   3.638  14.182  0.6371 -1.6053 -0.5445
 8991TIP3   OH248387   4.387   6.123   2.916  0.1504  0.2558  0.1051
 8991TIP3    H148388   4.361   6.212   2.895 -0.1746 -0.2232 -1.5992
 8991TIP3    H248389   4.451   6.099   2.848 -0.2261 -1.0078  0.1723
 8992TIP3   OH248390   3.315   2.204   3.095  0.4378  0.3300  0.6352
 8992TIP3    H148391   3.327   2.298   3.100 -1.6278  0.6259  0.5115
 8992TIP3    H248392   3.267   2.181   3.175 -1.1671 -0.2211 -0.4432
 8993TIP3   OH248393   0.166   6.585   0.300 -0.1784  0.3146  0.2033
 8993TIP3    H148394   0.083   6.575   0.347  0.5956 -3.8878  0.9007
 8993TIP3    H248395   0.170   6.508   0.243  2.4542  1.3669 -1.0887
 8994TIP3   OH248396   0.432   0.260  14.764 -0.4738 -0.8652  0.0631
 8994TIP3    H148397   0.432   0.184  14.707  1.4356 -1.5158  0.8660
 8994TIP3    H248398   0.395   0.228  14.846 -0.8229 -0.6161  0.0004
 8995TIP3   OH248399   0.098   4.663  16.024 -0.0054  0.3230 -0.4358
 8995TIP3    H148400   0.104   4.593  16.088 -0.9906 -0.8326 -1.5768
 8995TIP3    H248401   0.099   4.743  16.076 -3.5128 -0.6518  1.2723
 8996TIP3   OH248402   6.212   2.245   0.514 -0.9899  0.4601  0.0231
 8996TIP3    H148403   6.193   2.151   0.526  1.3499  0.0062  0.3473
 8996TIP3    H248404   6.263   2.249   0.433 -0.3192  1.3665  0.4902
 8997TIP3   OH248405   3.477   2.822   4.424  0.1056  0.3951  0.6613
 8997TIP3    H148406   3.391   2.866   4.419 -0.6807 -0.9186  2.1163
 8997TIP3    H248407   3.457   2.730   4.409  1.5282  0.3098 -0.7647
 8998TIP3   OH248408   0.022   4.854  13.580  0.3037 -0.6283  0.3673
 8998TIP3    H148409  -0.002   4.827  13.669 -1.0782  3.1925  1.2572
 8998TIP3    H248410  -0.059   4.844  13.530  0.1559  0.3548  0.3869
 8999TIP3   OH248411   2.098   2.095   5.856  0.3165 -0.5228 -0.2423
 8999TIP3    H148412   2.020   2.150   5.852  0.0899 -0.8078  0.2808
 8999TIP3    H248413   2.152   2.133   5.924  0.0904 -1.0367  0.2268
 9000TIP3   OH248414   0.700   3.235  16.319  0.3248 -0.2265 -0.2178
 9000TIP3    H148415   0.744   3.300  16.264  0.4461 -0.6556 -0.6299
 9000TIP3    H248416   0.607   3.245  16.298  0.1517  1.0938  1.0891
 9001TIP3   OH248417   4.329   6.616  16.190 -0.4990  0.3283 -0.5361
 9001TIP3    H148418   4.343   6.523  16.177 -1.2438  0.1012  0.2435
 9001TIP3    H248419   4.237   6.630  16.167 -0.6351  0.7042  0.1995
 9002TIP3   OH248420   2.743   4.856  17.146 -0.0342 -0.1503  0.3677
 9002TIP3    H148421   2.758   4.914  17.071  1.6460 -1.2628 -0.1613
 9002TIP3    H248422   2.648   4.840  17.145 -0.2729  1.2606 -0.4555
 9003TIP3   OH248423   4.019   1.591  10.925 -0.1205  0.1419 -0.0811
 9003TIP3    H148424   4.009   1.588  10.830 -1.9139  0.0817  0.1042
 9003TIP3    H248425   4.113   1.576  10.939  0.4247  1.5270 -1.9046
 9004TIP3   OH248426   0.607   5.530   4.975 -0.3139 -0.0679 -0.2393
 9004TIP3    H148427   0.575   5.614   4.940 -0.1421  0.5849  1.1394
 9004TIP3    H248428   0.665   5.555   5.047  0.4860 -1.3556 -0.4279
 9005TIP3   OH248429   5.978   0.515  14.740  0.8491 -0.7629  0.5143
 9005TIP3    H148430   5.972   0.575  14.814 -0.5890 -0.6066  0.2935
 9005TIP3    H248431   5.887   0.500  14.715  1.3240 -0.8290 -1.2038
 9006TIP3   OH248432   0.042   4.360  16.457  0.7423 -0.7188  0.0861
 9006TIP3    H148433   0.096   4.414  16.514 -0.4913 -0.1769  0.7411
 9006TIP3    H248434  -0.032   4.334  16.511 -0.1010 -0.7440 -1.0675
 9007TIP3   OH248435   4.834   5.019  12.526  0.5196  0.5378  0.4041
 9007TIP3    H148436   4.807   4.986  12.440 -4.0144  0.4668  1.7463
 9007TIP3    H248437   4.801   5.109  12.528 -1.0455 -0.0482  2.6939
 9008TIP3   OH248438   5.959   3.438  14.582  0.1058  0.0540  0.2921
 9008TIP3    H148439   6.006   3.354  14.584  0.9000  0.5110  1.4198
 9008TIP3    H248440   5.887   3.426  14.643 -0.5988 -0.2578 -0.5816
 9009TIP3   OH248441   3.260   2.609   1.023  0.3884  0.6347  0.5931
 9009TIP3    H148442   3.217   2.575   1.101  1.5865 -1.7512  0.2603
 9009TIP3    H248443   3.352   2.618   1.048  0.2669  2.8776  0.3900
 9010TIP3   OH248444   1.069   3.488  12.896 -0.2824 -0.0278 -0.5789
 9010TIP3    H148445   1.075   3.534  12.979 -1.2645  1.2645 -1.2101
 9010TIP3    H248446   1.151   3.438  12.890 -0.0506  0.1612  0.9808
 9011TIP3   OH248447   6.673   5.732   3.361  0.0248  0.8128  0.0299
 9011TIP3    H148448   6.580   5.746   3.344 -0.2417 -0.1921  0.6020
 9011TIP3    H248449   6.698   5.664   3.298 -0.1508 -0.4654  1.3056
 9012TIP3   OH248450   5.242   6.285  16.092  0.0345  0.2797 -0.3396
 9012TIP3    H148451   5.205   6.370  16.072  1.3144  0.5122 -1.8053
 9012TIP3    H248452   5.257   6.244  16.007  1.2480 -0.6074  0.2775
 9013TIP3   OH248453   4.732   5.916  13.106  0.5390 -0.1959  0.0270
 9013TIP3    H148454   4.678   5.843  13.076 -1.5055  1.1077  0.4292
 9013TIP3    H248455   4.691   5.994  13.068  1.2896  0.9462  1.5008
 9014TIP3   OH248456   6.336   0.200  15.704 -0.8188 -0.1897  0.1836
 9014TIP3    H148457   6.420   0.232  15.739 -0.6894 -0.3206 -0.0105
 9014TIP3    H248458   6.360   0.147  15.629 -0.9513 -1.8965  1.3276
 9015TIP3   OH248459   0.454   4.745  12.883  0.0796  0.1802 -0.3533
 9015TIP3    H148460   0.445   4.770  12.791 -0.2177  1.5869  0.0538
 9015TIP3    H248461   0.375   4.694  12.902  0.8771 -1.4321 -1.2874
 9016TIP3   OH248462   0.605   1.353   0.414 -0.3775 -1.0710  0.0690
 9016TIP3    H148463   0.621   1.365   0.508  3.4546  1.2618 -0.7517
 9016TIP3    H248464   0.608   1.258   0.401 -2.0279 -1.4945  2.4240
 9017TIP3   OH248465   4.242   6.086  16.103 -0.0668 -0.1228  0.1686
 9017TIP3    H148466   4.276   6.069  16.015  1.2176  0.4925  0.5474
 9017TIP3    H248467   4.149   6.064  16.097  0.1968 -0.9268 -1.1124
 9018TIP3   OH248468   5.524   0.194   1.905  0.2047 -0.3132  0.3352
 9018TIP3    H148469   5.535   0.251   1.982  0.9407 -0.2323  0.1718
 9018TIP3    H248470   5.458   0.238   1.852  0.2072 -0.0036  0.5867
 9019TIP3   OH248471   4.563   4.324   3.640  0.0983 -0.1113 -0.0502
 9019TIP3    H148472   4.544   4.404   3.590 -0.8697 -0.2146  0.1461
 9019TIP3    H248473   4.569   4.255   3.574 -1.7518 -0.3507  0.0111
 9020TIP3   OH248474   1.490   6.598   4.471 -0.1042 -0.7052  0.1734
 9020TIP3    H148475   1.445   6.516   4.492  1.3468 -1.8134 -0.9599
 9020TIP3    H248476   1.569   6.596   4.525  0.3593 -0.4557 -0.4996
 9021TIP3   OH248477   2.801   5.690   5.427  0.4214 -0.0146 -0.3387
 9021TIP3    H148478   2.832   5.747   5.498 -1.8901  0.6638  0.1730
 9021TIP3    H248479   2.867   5.700   5.359  1.5901  0.9834  0.8980
 9022TIP3   OH248480   0.465   5.534   4.556  0.0632 -0.4436 -0.2230
 9022TIP3    H148481   0.427   5.448   4.540  3.2644 -1.3790 -3.5873
 9022TIP3    H248482   0.457   5.580   4.472  0.0260  1.9116  1.0094
 9023TIP3   OH248483   4.582   3.305  13.562  0.4811 -0.1536 -0.3459
 9023TIP3    H148484   4.503   3.257  13.585  2.0514 -3.7475 -1.9366
 9023TIP3    H248485   4.643   3.286  13.634 -0.3882  3.5955  1.5001
 9024TIP3   OH248486   3.804   5.865  15.236 -0.4525 -0.4645  0.4045
 9024TIP3    H148487   3.886   5.913  15.246 -1.0329  0.1731  2.2708
 9024TIP3    H248488   3.806   5.832  15.146  1.3402  0.4744  0.0869
 9025TIP3   OH248489   6.620   5.551  15.773  0.4456  0.3098  0.2628
 9025TIP3    H148490   6.546   5.498  15.743  2.4642 -0.8425 -2.9154
 9025TIP3    H248491   6.595   5.641  15.749 -1.6634  0.4949  2.9399
 9026TIP3   OH248492   1.506   6.516   6.367  0.5537  0.4051 -0.1131
 9026TIP3    H148493   1.593   6.554   6.383  1.5799 -2.2752  0.9728
 9026TIP3    H248494   1.524   6.425   6.345 -2.0045 -0.2222  0.2834
 9027TIP3   OH248495   1.649   1.088  15.558 -0.0928  0.5397 -0.3518
 9027TIP3    H148496   1.728   1.065  15.607 -0.3030  0.2477 -0.1459
 9027TIP3    H248497   1.634   1.013  15.501 -1.7877 -0.6385  1.5842
 9028TIP3   OH248498   4.573   6.505  14.714 -0.0801 -0.2378 -0.9203
 9028TIP3    H148499   4.576   6.449  14.637  0.2528 -1.0671 -0.3057
 9028TIP3    H248500   4.514   6.577  14.689  2.0026  0.8600 -2.8455
 9029TIP3   OH248501   3.158   3.112   5.525 -0.1022  0.1501 -0.5950
 9029TIP3    H148502   3.157   3.208   5.524  0.1993  0.1515 -0.7283
 9029TIP3    H248503   3.109   3.089   5.604  2.1327  0.4546  0.9403
 9030TIP3   OH248504   0.030   6.216   2.558  0.4689 -0.3567 -0.0352
 9030TIP3    H148505   0.077   6.295   2.582  0.5249 -0.6317  0.7777
 9030TIP3    H248506  -0.046   6.247   2.509  0.6166  0.1790  0.0720
 9031TIP3   OH248507   5.140   5.684   5.842  0.3634 -0.3766 -0.0603
 9031TIP3    H148508   5.165   5.776   5.840 -1.4394  0.1305 -0.0428
 9031TIP3    H248509   5.185   5.648   5.919  0.8529  0.5456  0.0837
 9032TIP3   OH248510   3.392   5.133  11.961 -0.6831 -0.0598  0.6487
 9032TIP3    H148511   3.461   5.097  12.016 -0.6881 -0.0299  0.6755
 9032TIP3    H248512   3.433   5.144  11.875 -0.1651  1.5081  1.0702
 9033TIP3   OH248513   3.724   4.910   0.451  0.1407  0.6889 -0.0469
 9033TIP3    H148514   3.705   4.981   0.512  2.1181 -0.0262  1.4524
 9033TIP3    H248515   3.816   4.890   0.466  1.2144  1.6803 -4.5331
 9034TIP3   OH248516   0.401   2.171  15.364  0.0961  0.1940  0.1582
 9034TIP3    H148517   0.405   2.076  15.378 -0.8833  0.0802 -0.2728
 9034TIP3    H248518   0.446   2.208  15.439 -0.3965 -0.5943  0.8560
 9035TIP3   OH248519   1.354   4.258   3.837 -0.3527 -0.1975  0.0325
 9035TIP3    H148520   1.290   4.242   3.767 -0.5631  0.5224  0.0516
 9035TIP3    H248521   1.421   4.312   3.796  0.5271 -1.4030 -0.1271
 9036TIP3   OH248522   1.475   5.210   2.331 -0.0553  0.1006  0.5149
 9036TIP3    H148523   1.397   5.176   2.375  0.1586 -0.2108  0.6541
 9036TIP3    H248524   1.506   5.137   2.278 -0.3066  0.4733 -0.1493
 9037TIP3   OH248525   2.203   6.668  15.339 -0.1508  0.2246 -0.5083
 9037TIP3    H148526   2.133   6.615  15.378 -0.2004  0.8173  0.2392
 9037TIP3    H248527   2.162   6.710  15.263  0.1830 -1.6040 -1.7170
 9038TIP3   OH248528   3.235   4.393   3.129  0.2108  0.0258 -0.1872
 9038TIP3    H148529   3.242   4.334   3.205  2.7678  1.0095  0.3771
 9038TIP3    H248530   3.325   4.406   3.101 -0.6680  0.1748 -3.0530
 9039TIP3   OH248531   3.541   6.173   3.698  0.1404 -0.0529  0.4265
 9039TIP3    H148532   3.522   6.251   3.646  1.7112  1.0328  1.4446
 9039TIP3    H248533   3.632   6.152   3.677 -0.3857 -1.8841 -0.1467
 9040TIP3   OH248534   1.139   0.437  12.478 -0.2420  0.2162  0.0121
 9040TIP3    H148535   1.147   0.499  12.551 -0.7535 -0.3017  0.5122
 9040TIP3    H248536   1.056   0.459  12.437 -0.5832 -0.3585  0.3952
 9041TIP3   OH248537   6.598   3.328   3.604 -0.2939 -0.0143 -0.2723
 9041TIP3    H148538   6.572   3.310   3.514  2.9841 -2.4724 -0.8280
 9041TIP3    H248539   6.610   3.422   3.608  2.1007 -0.1491 -3.1841
 9042TIP3   OH248540   1.294   4.070  11.495 -0.5532  0.3988  0.4599
 9042TIP3    H148541   1.380   4.064  11.453 -0.7641  0.5170  0.0049
 9042TIP3    H248542   1.301   4.013  11.571 -0.2201  0.0285  0.1597
 9043TIP3   OH248543   3.419   2.086  11.604 -0.1862  0.6162  0.2561
 9043TIP3    H148544   3.368   2.161  11.637 -1.1125  0.0595  0.1010
 9043TIP3    H248545   3.406   2.089  11.509  2.0306  1.8888 -0.0492
 9044TIP3   OH248546   1.725   3.025   1.256 -0.0914 -0.3768  0.6262
 9044TIP3    H148547   1.699   3.115   1.234  0.7533 -0.1987  0.3580
 9044TIP3    H248548   1.761   3.031   1.344  1.2102 -0.2157  0.0904
 9045TIP3   OH248549   4.798   4.277  11.922  0.2343 -0.2800  0.6929
 9045TIP3    H148550   4.833   4.212  11.861 -0.2030  0.1248  0.0012
 9045TIP3    H248551   4.856   4.272  11.998 -0.2488 -2.0160  0.9668
 9046TIP3   OH248552   5.080   0.570  16.508 -0.5548 -0.6836 -0.6390
 9046TIP3    H148553   5.157   0.522  16.539  1.2666  3.3431  1.4275
 9046TIP3    H248554   5.018   0.565  16.581  0.1953  1.2315  0.1477
 9047TIP3   OH248555   3.346   0.123  12.703  0.0292  0.1229  0.1876
 9047TIP3    H148556   3.305   0.187  12.645  1.2977  0.9958  0.2272
 9047TIP3    H248557   3.369   0.049  12.646  0.4664  0.5975 -0.2545
 9048TIP3   OH248558   1.090   0.196  11.497 -0.6405 -0.4516 -0.0825
 9048TIP3    H148559   1.139   0.119  11.527  1.0300  0.8243  0.4967
 9048TIP3    H248560   1.140   0.229  11.422 -0.1943  1.2822  0.9595
 9049TIP3   OH248561   0.503   3.380   6.792 -0.5339 -0.4871  1.3322
 9049TIP3    H148562   0.431   3.379   6.855 -1.0637  0.8213  0.7689
 9049TIP3    H248563   0.574   3.332   6.835 -1.6132 -1.4910  2.0379
 9050TIP3   OH248564   2.327   0.260   5.573 -0.3803 -0.2406 -0.3546
 9050TIP3    H148565   2.382   0.207   5.516  0.8489  0.7469 -0.1044
 9050TIP3    H248566   2.277   0.196   5.624 -0.1856 -1.1356 -1.2606
 9051TIP3   OH248567   2.458   4.785   2.739  0.1323  0.4006  0.1600
 9051TIP3    H148568   2.488   4.721   2.803  0.6791 -2.1726 -2.5453
 9051TIP3    H248569   2.368   4.759   2.720 -0.3232  1.6864  0.4803
 9052TIP3   OH248570   2.620   6.661   2.662  0.1515 -0.4598 -0.5065
 9052TIP3    H148571   2.583   6.653   2.750  0.6412 -1.1393 -0.3569
 9052TIP3    H248572   2.603   6.752   2.637 -0.6228 -0.4604  0.0023
 9053TIP3   OH248573   4.156   1.517   1.910 -0.0641  0.0461 -0.0238
 9053TIP3    H148574   4.200   1.454   1.968 -0.8737  0.0303  0.5874
 9053TIP3    H248575   4.199   1.506   1.825  0.1681 -0.9501  0.2137
 9054TIP3   OH248576   1.136   3.101   0.645  0.3762 -0.1789 -0.5691
 9054TIP3    H148577   1.054   3.150   0.633 -0.2521 -1.3327 -1.0409
 9054TIP3    H248578   1.172   3.136   0.727  0.8377  2.3109 -1.7958
 9055TIP3   OH248579   1.175   1.314  14.315  0.4743 -0.3668  0.2911
 9055TIP3    H148580   1.260   1.321  14.271  0.3327 -0.5504 -0.0156
 9055TIP3    H248581   1.187   1.360  14.398  0.6721  0.1832 -0.0400
 9056TIP3   OH248582   4.851   5.684  14.192 -0.0848 -0.1429 -0.1540
 9056TIP3    H148583   4.769   5.730  14.211 -0.5925 -0.5985 -1.2223
 9056TIP3    H248584   4.919   5.735  14.237 -0.8232  0.8308 -0.1536
 9057TIP3   OH248585   5.754   4.799   4.384 -0.4413 -0.0014  0.5668
 9057TIP3    H148586   5.845   4.771   4.391  0.0187  0.8992 -1.5825
 9057TIP3    H248587   5.708   4.724   4.346  0.2501  1.0722 -2.4779
 9058TIP3   OH248588   6.397   6.009   0.658  0.0348 -0.0193 -0.3858
 9058TIP3    H148589   6.386   6.013   0.563  0.4930 -1.1757 -0.4915
 9058TIP3    H248590   6.398   5.915   0.678  1.3886  0.1945  0.5946
 9059TIP3   OH248591   6.771   3.859   3.297 -0.6245 -0.4785  0.8761
 9059TIP3    H148592   6.828   3.796   3.252 -1.9558 -0.9173 -0.2433
 9059TIP3    H248593   6.768   3.935   3.239 -1.5596 -0.6510  0.6972
 9060TIP3   OH248594   0.267   4.913  15.573 -0.2376  0.0021  0.1456
 9060TIP3    H148595   0.222   4.949  15.650  2.3482  1.8862  0.8387
 9060TIP3    H248596   0.292   4.990  15.522 -0.5815 -1.1738 -1.8502
 9061TIP3   OH248597   1.191   3.355   3.708  0.3331 -0.1662  0.1996
 9061TIP3    H148598   1.139   3.416   3.760  0.6907  1.3619 -1.1840
 9061TIP3    H248599   1.234   3.298   3.773 -1.0618  0.1743  1.4472
 9062TIP3   OH248600   3.806   6.095   3.323 -0.3361  0.4705 -0.1726
 9062TIP3    H148601   3.881   6.107   3.265 -0.1746 -0.0459 -0.0726
 9062TIP3    H248602   3.823   6.154   3.396  0.4610 -0.3508  0.3193
 9063TIP3   OH248603   4.114   6.035   5.668 -0.2017 -0.0080 -0.2741
 9063TIP3    H148604   4.143   6.098   5.602 -0.9755  1.7538  1.0411
 9063TIP3    H248605   4.108   5.952   5.621 -0.8851  1.2505 -2.4456
 9064TIP3   OH248606   2.315   0.467   1.054 -0.2882 -0.6024 -0.0077
 9064TIP3    H148607   2.372   0.518   1.111 -1.0483  1.4413 -1.0409
 9064TIP3    H248608   2.229   0.473   1.094 -0.7628  0.5780 -1.1841
 9065TIP3   OH248609   4.587   3.517  13.929 -0.7999  0.0951  0.0721
 9065TIP3    H148610   4.669   3.534  13.884 -0.4073 -0.9041  0.4159
 9065TIP3    H248611   4.527   3.489  13.859 -0.7107  0.3303 -0.0996
 9066TIP3   OH248612   3.720   3.674  14.344  0.6514 -0.7116  0.0470
 9066TIP3    H148613   3.723   3.647  14.252 -2.6745  0.4053 -0.4722
 9066TIP3    H248614   3.632   3.712  14.354  1.7561  1.1551  3.1437
 9067TIP3   OH248615   3.125   0.732   1.169  0.2567 -0.3103  0.3874
 9067TIP3    H148616   3.171   0.648   1.167  0.7447 -0.0181 -1.2278
 9067TIP3    H248617   3.192   0.797   1.148 -0.4710  0.3098 -0.0792
 9068TIP3   OH248618   5.387   5.885   1.123 -0.9397  0.1826 -0.2542
 9068TIP3    H148619   5.480   5.866   1.132 -0.6823  1.4449 -0.1916
 9068TIP3    H248620   5.383   5.963   1.068 -2.0621 -1.2199 -2.2440
 9069TIP3   OH248621   0.486   5.280   6.641  0.5846  0.0463 -0.1188
 9069TIP3    H148622   0.579   5.280   6.619  0.5255  0.0116 -0.3609
 9069TIP3    H248623   0.443   5.236   6.568  0.3312  0.4240 -0.2002
 9070TIP3   OH248624   0.803   2.373  12.340 -0.0738  0.1917 -0.5235
 9070TIP3    H148625   0.821   2.307  12.273  0.7815  1.3606 -1.4653
 9070TIP3    H248626   0.727   2.421  12.307 -1.3700 -0.9973  0.6771
 9071TIP3   OH248627   5.211   3.476  10.776 -0.1298  0.5919 -0.1982
 9071TIP3    H148628   5.252   3.562  10.765  2.6270 -0.5375  0.9570
 9071TIP3    H248629   5.274   3.414  10.741 -1.6158 -1.0767  0.0140
 9072TIP3   OH248630   5.807   1.526  13.167  0.0320  0.6226  0.1507
 9072TIP3    H148631   5.901   1.537  13.175  0.0034  1.4013 -0.5078
 9072TIP3    H248632   5.776   1.610  13.134 -0.9422  0.5078  0.7487
 9073TIP3   OH248633   5.989   3.095   5.041  0.3591 -0.1535  0.1398
 9073TIP3    H148634   5.996   3.179   4.995  0.5011 -0.9151 -1.2628
 9073TIP3    H248635   6.020   3.031   4.977 -0.5790 -1.3689  0.8879
 9074TIP3   OH248636   5.661   2.195   2.780 -0.0229  0.1517 -0.1075
 9074TIP3    H148637   5.663   2.159   2.869  0.1159  2.5928  0.9298
 9074TIP3    H248638   5.576   2.167   2.745  0.3568 -1.7069  0.3927
 9075TIP3   OH248639   4.824   6.483   1.399  0.0038 -0.8604  0.7187
 9075TIP3    H148640   4.892   6.532   1.444  0.6620 -0.7993 -0.3116
 9075TIP3    H248641   4.871   6.434   1.331 -1.0337 -0.4044 -0.3595
 9076TIP3   OH248642   3.551   3.014  13.452  0.2492  0.3321  0.0841
 9076TIP3    H148643   3.528   2.982  13.364 -1.9082  2.1105 -0.0237
 9076TIP3    H248644   3.491   2.968  13.510  0.3575  0.6186  0.4208
 9077TIP3   OH248645   1.708   1.420  14.847  0.2627 -0.3095  0.0620
 9077TIP3    H148646   1.752   1.337  14.829  1.0917  0.6542 -2.6298
 9077TIP3    H248647   1.750   1.453  14.926  0.9510 -1.7362  0.3053
 9078TIP3   OH248648   4.584   2.934   0.814 -0.1409 -0.4482 -0.4960
 9078TIP3    H148649   4.546   2.876   0.881  0.7468  1.7440  2.0191
 9078TIP3    H248650   4.677   2.913   0.813 -0.3288 -1.2393 -1.8600
 9079TIP3   OH248651   3.273   2.701  14.100  0.2057 -0.1613  0.7264
 9079TIP3    H148652   3.206   2.770  14.097 -0.4864 -0.7319  2.2777
 9079TIP3    H248653   3.334   2.730  14.168 -0.5572 -1.4805  1.9825
 9080TIP3   OH248654   6.367   5.559   5.829 -0.3627 -0.3609 -0.3308
 9080TIP3    H148655   6.329   5.524   5.748 -0.7280  0.5276 -0.5481
 9080TIP3    H248656   6.369   5.484   5.889  1.1567 -1.3685 -1.5876
 9081TIP3   OH248657   5.436   3.289  13.364  0.5948  0.3290  0.1637
 9081TIP3    H148658   5.410   3.247  13.446 -1.9385 -1.7075 -1.6096
 9081TIP3    H248659   5.524   3.323  13.381  0.0072  0.2369  3.7972
 9082TIP3   OH248660   0.666   3.774   6.419 -0.1393  0.5439  0.0495
 9082TIP3    H148661   0.644   3.852   6.470 -1.6091 -0.5631  1.1807
 9082TIP3    H248662   0.759   3.761   6.433 -0.0218  1.6983  0.3926
 9083TIP3   OH248663   3.662   1.837   4.479  0.5566  1.0720 -0.2692
 9083TIP3    H148664   3.595   1.851   4.412 -1.9459 -3.6254  0.9894
 9083TIP3    H248665   3.633   1.892   4.552 -0.0429  1.6657 -0.9387
 9084TIP3   OH248666   6.425   6.743   5.184  0.3013  0.5273  0.1921
 9084TIP3    H148667   6.365   6.669   5.174  0.8565 -0.0953  1.2942
 9084TIP3    H248668   6.388   6.812   5.129 -0.9114 -0.1583  0.1225
 9085TIP3   OH248669   5.420   3.896  15.578  0.5189 -0.2247  0.0694
 9085TIP3    H148670   5.408   3.816  15.629 -0.8222 -0.0899 -0.0235
 9085TIP3    H248671   5.364   3.961  15.621 -0.0306  0.0919 -1.1014
 9086TIP3   OH248672   4.901   1.508  11.939  0.3301 -0.2875  0.0722
 9086TIP3    H148673   4.900   1.597  11.973  0.6963 -0.9501  1.8574
 9086TIP3    H248674   4.887   1.452  12.016 -0.7492 -1.7388 -1.1412
 9087TIP3   OH248675   1.386   2.258  14.931  0.0876  0.1382 -0.9180
 9087TIP3    H148676   1.345   2.221  14.854 -0.3428 -0.8315 -0.2390
 9087TIP3    H248677   1.313   2.288  14.986  0.2560 -1.8191  0.4050
 9088TIP3   OH248678   1.484   3.542  15.740  0.2582 -0.0495  0.6322
 9088TIP3    H148679   1.471   3.623  15.690 -0.5266 -1.2501 -1.1592
 9088TIP3    H248680   1.403   3.493  15.728  0.4966 -0.8692  2.1925
 9089TIP3   OH248681   2.248   1.096   1.901 -0.9159 -0.5310  0.2227
 9089TIP3    H148682   2.220   1.174   1.950 -1.4686 -0.2045 -0.6082
 9089TIP3    H248683   2.272   1.129   1.814 -1.7406 -1.3738 -0.3299
 9090TIP3   OH248684   1.248   2.054   3.981  0.0736 -0.1858  0.1611
 9090TIP3    H148685   1.301   2.093   3.911  0.3134  0.0366  0.4643
 9090TIP3    H248686   1.177   2.116   3.994 -0.9083 -1.0430 -1.0379
 9091TIP3   OH248687   6.212   4.228   5.662  0.3935  0.6195 -0.4199
 9091TIP3    H148688   6.307   4.218   5.667  0.2595 -0.7718 -0.5026
 9091TIP3    H248689   6.178   4.139   5.659 -1.0581  1.0391  1.8731
 9092TIP3   OH248690   5.990   4.529  14.890  0.1583  0.3692  0.5367
 9092TIP3    H148691   5.984   4.590  14.816 -1.7939 -0.5214 -0.0686
 9092TIP3    H248692   5.951   4.448  14.857  0.0594 -0.3031  2.2845
 9093TIP3   OH248693   1.075   3.787   1.043  0.0474  0.4599  0.0746
 9093TIP3    H148694   1.102   3.725   0.975 -0.4459  0.7220 -0.3579
 9093TIP3    H248695   1.117   3.869   1.018  1.2592  0.1413  1.0192
 9094TIP3   OH248696   4.779   2.673  16.593 -0.2009 -0.8072 -0.3093
 9094TIP3    H148697   4.713   2.679  16.662  1.5423  1.0449  1.2338
 9094TIP3    H248698   4.740   2.719  16.519 -0.6496  0.2636  0.5785
 9095TIP3   OH248699   0.809   0.729  14.431 -0.2573 -0.7003 -0.0087
 9095TIP3    H148700   0.844   0.643  14.405 -0.8538 -0.5753 -1.3067
 9095TIP3    H248701   0.884   0.788  14.424  0.2174 -1.1612  1.1364
 9096TIP3   OH248702   6.074   1.391   3.011  0.2440  0.3703  0.4441
 9096TIP3    H148703   6.062   1.296   3.011 -1.9583  0.5502 -3.3867
 9096TIP3    H248704   6.061   1.417   3.102 -1.1661 -2.7898  1.2071
 9097TIP3   OH248705   3.710   4.048  16.543 -0.3234 -0.0862  0.7824
 9097TIP3    H148706   3.787   4.008  16.584  1.0895  0.6504 -1.0822
 9097TIP3    H248707   3.636   3.997  16.576  0.9298 -0.6044  2.8558
 9098TIP3   OH248708   4.817   2.438   3.261  0.0065  0.2779 -0.3651
 9098TIP3    H148709   4.885   2.421   3.327 -1.8948 -0.5685  1.4167
 9098TIP3    H248710   4.813   2.358   3.209 -0.4039 -0.0964  0.2405
 9099TIP3   OH248711   3.164   5.604  12.904  0.1679  0.0790  0.0467
 9099TIP3    H148712   3.237   5.665  12.903 -0.2309  0.5928  1.1791
 9099TIP3    H248713   3.141   5.592  12.812  0.1082  1.8251 -0.1829
 9100TIP3   OH248714   0.961   1.268  15.319 -0.1668  0.3213  0.5299
 9100TIP3    H148715   0.977   1.315  15.237 -1.9593 -1.0561 -0.6365
 9100TIP3    H248716   0.922   1.334  15.377  0.5781  1.1558  0.0981
 9101TIP3   OH248717   5.980   5.623  11.227  0.1552 -0.4224 -0.4583
 9101TIP3    H148718   5.945   5.565  11.159 -0.4072 -0.5046 -0.1046
 9101TIP3    H248719   5.908   5.633  11.289 -0.0192  1.2739 -0.9209
 9102TIP3   OH248720   4.501   6.468   1.686  0.1493 -0.8443  0.0640
 9102TIP3    H148721   4.518   6.421   1.768 -3.0311 -1.4414  0.4213
 9102TIP3    H248722   4.521   6.405   1.618  1.2447 -0.8782  0.4063
 9103TIP3   OH248723   3.895   0.661   0.168 -0.1277 -0.9722  0.2708
 9103TIP3    H148724   3.931   0.715   0.098 -0.9473 -0.2539  0.4038
 9103TIP3    H248725   3.970   0.641   0.224 -0.1091  1.3995  1.1317
 9104TIP3   OH248726   2.544   1.727   2.152  0.3184 -0.3770  0.3145
 9104TIP3    H148727   2.492   1.804   2.127  1.2992  0.0182 -0.5291
 9104TIP3    H248728   2.511   1.657   2.097  1.8135  0.2679 -1.4269
 9105TIP3   OH248729   1.457   6.183  15.495 -0.4117 -0.3749  0.4152
 9105TIP3    H148730   1.468   6.273  15.525  1.6775 -0.1839 -0.8358
 9105TIP3    H248731   1.469   6.130  15.574 -1.3151  0.3920  1.0885
 9106TIP3   OH248732   5.127   2.679  15.243 -0.1226 -0.0514  0.1305
 9106TIP3    H148733   5.102   2.759  15.197  0.0262  0.7410  1.4242
 9106TIP3    H248734   5.167   2.624  15.175  0.1383  1.1182 -0.6745
 9107TIP3   OH248735   0.595   6.757   4.343  0.0089 -0.1378 -0.0049
 9107TIP3    H148736   0.509   6.797   4.353 -0.2814 -0.5412 -0.8760
 9107TIP3    H248737   0.637   6.768   4.429 -0.5284  0.9504  0.1253
 9108TIP3   OH248738   4.929   1.720  13.953 -0.0059  0.2912  0.3410
 9108TIP3    H148739   4.893   1.672  14.028 -0.8689 -0.2061 -0.3813
 9108TIP3    H248740   5.024   1.705  13.959 -0.0116  0.6531  1.6006
 9109TIP3   OH248741   0.026   1.991  11.407  1.1304 -1.2540 -0.0709
 9109TIP3    H148742   0.008   1.945  11.488  1.4078  0.3261  0.9113
 9109TIP3    H248743  -0.057   1.989  11.359  0.6517 -1.2083  0.7553
 9110TIP3   OH248744   0.236   0.945   6.001 -0.1662  0.2922 -0.3621
 9110TIP3    H148745   0.142   0.964   6.003 -0.2261  0.1697 -1.3697
 9110TIP3    H248746   0.278   1.030   6.008 -0.3409  0.2782  0.8742
 9111TIP3   OH248747   4.396   0.643   4.645  0.3217  0.1825  0.2886
 9111TIP3    H148748   4.330   0.674   4.708  0.6239  1.3384  0.0578
 9111TIP3    H248749   4.447   0.579   4.693 -0.3757 -0.0249  0.7706
 9112TIP3   OH248750   1.792   3.351  12.111  0.4930 -0.1181  0.2247
 9112TIP3    H148751   1.846   3.351  12.032  1.2635  1.4423  0.7346
 9112TIP3    H248752   1.702   3.351  12.077  0.8104 -0.7070 -0.6394
 9113TIP3   OH248753   0.567   3.417  13.447 -0.2061  0.0702 -0.1938
 9113TIP3    H148754   0.518   3.375  13.517 -1.6101  1.7911 -0.0911
 9113TIP3    H248755   0.592   3.345  13.388 -0.3992 -1.1774  1.2295
 9114TIP3   OH248756   2.664   1.651   5.481  0.0423  0.0473 -0.5075
 9114TIP3    H148757   2.705   1.589   5.541  1.1237  0.8674 -0.3749
 9114TIP3    H248758   2.608   1.706   5.537  0.0873  0.0170 -0.4341
 9115TIP3   OH248759   3.259   0.083  12.218 -0.0885 -0.4146  0.6856
 9115TIP3    H148760   3.208   0.024  12.273  0.5437 -0.8178  0.8395
 9115TIP3    H248761   3.269   0.163  12.271  1.4941 -1.2203  1.6098
 9116TIP3   OH248762   1.667   4.002   2.788  0.4522  0.6673  0.6890
 9116TIP3    H148763   1.587   3.976   2.742  0.4575  1.4304  0.2416
 9116TIP3    H248764   1.729   4.021   2.717  0.9278  0.3880  1.0329
 9117TIP3   OH248765   0.940   5.978   5.686  0.6315  0.1183 -0.0141
 9117TIP3    H148766   0.860   5.927   5.675  0.5458  0.5927 -1.6644
 9117TIP3    H248767   0.994   5.925   5.744 -0.4574 -0.6852  0.2914
 9118TIP3   OH248768   5.944   5.173   1.226  0.0818 -0.1258 -0.0943
 9118TIP3    H148769   5.922   5.233   1.298  0.3468  1.0393 -0.9721
 9118TIP3    H248770   6.039   5.176   1.221  0.1413 -1.1841  0.3221
 9119TIP3   OH248771   5.704   0.038  15.798 -0.5745 -0.5849 -0.4172
 9119TIP3    H148772   5.622  -0.003  15.825 -2.0925  0.5210 -3.2272
 9119TIP3    H248773   5.721   0.104  15.866 -2.3469 -0.4105 -0.1228
 9120TIP3   OH248774   3.202   2.526   0.757  0.0488  0.1983 -0.0245
 9120TIP3    H148775   3.279   2.573   0.727  0.7607 -1.4345 -0.8309
 9120TIP3    H248776   3.200   2.541   0.852 -0.4413  2.8105 -0.4030
 9121TIP3   OH248777   6.048   0.896   2.475 -0.2450  0.1010  0.3513
 9121TIP3    H148778   6.085   0.898   2.387  1.0893 -0.6202  0.8777
 9121TIP3    H248779   6.049   0.987   2.503 -1.1259  0.3972 -0.5562
 9122TIP3   OH248780   0.028   4.915  13.287  0.1121 -0.0347  0.4348
 9122TIP3    H148781   0.114   4.956  13.278 -0.1420  0.7897  1.6367
 9122TIP3    H248782  -0.034   4.988  13.283 -0.4315 -0.4487  1.1336
 9123TIP3   OH248783   6.503   1.284   4.402  0.1888  0.0988 -0.2724
 9123TIP3    H148784   6.462   1.216   4.349 -2.1034  1.1836  0.0505
 9123TIP3    H248785   6.592   1.291   4.366 -0.1971 -1.5864 -1.6757
 9124TIP3   OH248786   5.881   4.363  16.931 -0.0447 -0.3299  0.0679
 9124TIP3    H148787   5.861   4.286  16.984  0.0488 -0.4584 -0.0782
 9124TIP3    H248788   5.813   4.364  16.864 -0.1520 -0.1786  0.1827
 9125TIP3   OH248789   4.176   4.478  10.660  0.2866  0.0621  0.0395
 9125TIP3    H148790   4.095   4.449  10.703 -0.7016 -1.1343 -2.5402
 9125TIP3    H248791   4.197   4.561  10.702 -1.6281 -0.1996  1.5758
 9126TIP3   OH248792   0.219   2.902   0.884 -0.3064 -0.3740 -0.2420
 9126TIP3    H148793   0.225   2.820   0.835 -1.6664 -1.8839  2.0066
 9126TIP3    H248794   0.162   2.882   0.958 -0.4245  2.5367  0.5378
 9127TIP3   OH248795   5.478   6.444   6.155  0.4163 -0.6162  0.1241
 9127TIP3    H148796   5.549   6.470   6.213 -0.2313  0.5624  0.4056
 9127TIP3    H248797   5.405   6.423   6.213  0.4147 -1.4650 -0.1772
 9128TIP3   OH248798   4.641   3.412  11.107  0.3687  0.2672 -0.3489
 9128TIP3    H148799   4.705   3.427  11.037  0.7342 -0.2039 -0.1161
 9128TIP3    H248800   4.599   3.497  11.120  2.0145  0.9592  0.5683
 9129TIP3   OH248801   3.160   4.252   4.946 -0.3466 -0.0096  0.0087
 9129TIP3    H148802   3.183   4.328   4.891  0.2326  0.0583  0.3428
 9129TIP3    H248803   3.238   4.236   4.998 -0.1645 -1.3642 -0.6590
 9130TIP3   OH248804   2.099   6.283   1.741  0.4526 -0.1440 -0.2583
 9130TIP3    H148805   2.041   6.358   1.757  1.1305  0.8172 -2.1629
 9130TIP3    H248806   2.082   6.258   1.650  1.4669 -1.2393 -0.1626
 9131TIP3   OH248807   0.245   5.917   4.595  0.0165 -0.3222 -0.1219
 9131TIP3    H148808   0.207   5.829   4.600 -0.1872 -0.2211  0.1761
 9131TIP3    H248809   0.170   5.973   4.575  0.2579 -0.2943 -0.9868
 9132TIP3   OH248810   2.440   2.104  14.582 -0.3202 -0.1584 -0.3073
 9132TIP3    H148811   2.520   2.149  14.555 -0.6853 -0.0226 -1.1610
 9132TIP3    H248812   2.456   2.080  14.674 -0.0439  1.5364  0.1101
 9133TIP3   OH248813   5.305   6.774  12.762 -0.4671 -0.3711 -0.1991
 9133TIP3    H148814   5.335   6.684  12.777 -0.1046 -0.4934 -1.5791
 9133TIP3    H248815   5.248   6.793  12.837 -1.8123 -2.3067 -0.6930
 9134TIP3   OH248816   4.082   0.545  12.557 -0.1279 -0.3137 -0.1173
 9134TIP3    H148817   4.124   0.612  12.612 -2.1856  0.7889  0.1549
 9134TIP3    H248818   4.140   0.537  12.482 -0.4153  2.6781 -0.7395
 9135TIP3   OH248819   6.596   1.126  15.833  0.0030  0.0826  0.5203
 9135TIP3    H148820   6.599   1.074  15.914 -3.6073 -1.6168 -0.3532
 9135TIP3    H248821   6.681   1.171  15.831  0.8180 -1.0537  4.4249
 9136TIP3   OH248822   5.301   4.572  14.447 -0.7895 -0.0840  0.0010
 9136TIP3    H148823   5.213   4.534  14.444 -0.8446  0.0717 -0.3191
 9136TIP3    H248824   5.348   4.517  14.509 -1.2323  0.0795  0.4946
 9137TIP3   OH248825   0.228   6.515  14.978 -0.4746  0.2168  0.0021
 9137TIP3    H148826   0.225   6.441  14.917 -0.0160  0.3307 -0.1543
 9137TIP3    H248827   0.162   6.494  15.044 -1.0814  0.1626 -0.6136
 9138TIP3   OH248828   3.997   6.097  13.319  0.2860  0.0927 -0.2043
 9138TIP3    H148829   4.033   6.101  13.231 -1.3297  0.1004 -0.8951
 9138TIP3    H248830   3.993   6.004  13.340  0.5156  0.0841 -0.1996
 9139TIP3   OH248831   2.512   5.631   4.148 -0.1263 -0.2643 -0.2554
 9139TIP3    H148832   2.427   5.647   4.187  0.0254  0.3836 -0.1882
 9139TIP3    H248833   2.514   5.687   4.070  0.4011  0.0505 -0.0202
 9140TIP3   OH248834   0.486   5.894  13.337 -0.4027  0.0791 -0.0557
 9140TIP3    H148835   0.490   5.908  13.243 -0.4584  0.1920 -0.0423
 9140TIP3    H248836   0.552   5.953  13.373  0.3582 -0.7297 -0.0975
 9141TIP3   OH248837   0.404   6.616  15.178 -0.1580 -0.3294  0.4033
 9141TIP3    H148838   0.497   6.594  15.171 -0.4627 -1.6966  0.4770
 9141TIP3    H248839   0.361   6.558  15.115 -0.6914  2.1754 -1.5919
 9142TIP3   OH248840   6.778   2.838   0.572 -0.1685  0.1818 -0.1956
 9142TIP3    H148841   6.689   2.831   0.605 -0.1978  0.1824 -0.2743
 9142TIP3    H248842   6.795   2.754   0.530  0.3358 -0.2971  0.9505
 9143TIP3   OH248843   4.466   3.431   3.699 -0.0461  0.3157 -0.1373
 9143TIP3    H148844   4.544   3.389   3.735 -0.1163  2.3382  2.5985
 9143TIP3    H248845   4.499   3.486   3.628  0.6833 -0.6298 -0.5394
 9144TIP3   OH248846   1.731   2.239  12.346  0.4682  0.1579 -0.7128
 9144TIP3    H148847   1.679   2.248  12.267 -1.5062 -1.2850  0.3906
 9144TIP3    H248848   1.675   2.270  12.417  1.6132 -0.0695  0.3266
 9145TIP3   OH248849   2.214   4.528  11.750  0.4612  0.0389  0.4235
 9145TIP3    H148850   2.163   4.551  11.673  1.7203  1.1420 -0.1014
 9145TIP3    H248851   2.149   4.510  11.818 -0.6325  0.1178 -0.5934
 9146TIP3   OH248852   2.857   0.297  15.717  0.7768 -0.1854  0.2154
 9146TIP3    H148853   2.785   0.350  15.681 -0.2970 -1.4045  0.5528
 9146TIP3    H248854   2.819   0.211  15.733  1.9533 -0.4634  1.7038
 9147TIP3   OH248855   4.382   4.012  15.061 -0.0275 -0.2366  0.4011
 9147TIP3    H148856   4.433   4.081  15.017  2.4676 -1.5797  1.1222
 9147TIP3    H248857   4.365   3.948  14.992  2.6041 -1.6216  0.9725
 9148TIP3   OH248858   5.981   4.397   5.758 -0.1932  0.1967 -0.1146
 9148TIP3    H148859   5.942   4.327   5.809  1.6910 -0.0843  1.0059
 9148TIP3    H248860   6.047   4.354   5.704 -1.5530  0.6178 -2.1475
 9149TIP3   OH248861   4.660   1.198   3.314 -0.0403 -0.4050 -0.8474
 9149TIP3    H148862   4.652   1.103   3.307  1.8825 -0.9319  2.8086
 9149TIP3    H248863   4.669   1.215   3.408  2.3235  3.1287 -1.5889
 9150TIP3   OH248864   2.867   1.709  16.115 -0.1639  0.0117 -0.1189
 9150TIP3    H148865   2.865   1.785  16.174 -0.7730 -0.2523  0.2004
 9150TIP3    H248866   2.807   1.646  16.155 -0.4445 -0.2352 -0.9356
 9151TIP3   OH248867   1.076   4.379   1.557  0.0090  0.1210  0.0829
 9151TIP3    H148868   1.042   4.295   1.588 -2.8399  0.8436 -0.9859
 9151TIP3    H248869   1.130   4.357   1.481  0.6624 -0.8806  0.8232
 9152TIP3   OH248870   3.958   0.432  14.594 -0.6073  0.0784  0.6754
 9152TIP3    H148871   3.924   0.509  14.549  0.4818 -0.5465 -1.2479
 9152TIP3    H248872   3.904   0.425  14.673 -2.8420  0.9387 -0.7282
 9153TIP3   OH248873   5.020   2.504   1.761 -0.4549  0.1923  0.0501
 9153TIP3    H148874   4.997   2.524   1.852 -1.8450 -1.9040  0.1711
 9153TIP3    H248875   5.006   2.587   1.715 -3.9844  0.1897  0.9561
 9154TIP3   OH248876   3.333   3.542  11.988 -0.1929  0.0269 -0.2422
 9154TIP3    H148877   3.334   3.481  11.914 -0.7575 -1.6596  1.0916
 9154TIP3    H248878   3.380   3.495  12.057 -1.2719  0.8108  1.0396
 9155TIP3   OH248879   1.626   6.486   1.680 -0.3167 -0.1778 -0.2857
 9155TIP3    H148880   1.633   6.542   1.758 -3.0990 -0.2583  0.0804
 9155TIP3    H248881   1.628   6.397   1.715  0.7072 -0.2582 -0.5402
 9156TIP3   OH248882   1.806   4.725   2.006  0.2283 -0.1160  0.0351
 9156TIP3    H148883   1.760   4.807   2.026 -0.7596 -0.7730  0.5071
 9156TIP3    H248884   1.737   4.659   2.007  1.4551 -1.4129  2.6023
 9157TIP3   OH248885   4.590   2.934   5.078  0.1446  0.2575  0.2493
 9157TIP3    H148886   4.617   2.844   5.062  1.2361  0.2843  1.8749
 9157TIP3    H248887   4.580   2.939   5.173  2.0072  2.3913  0.3552
 9158TIP3   OH248888   0.311   1.268   0.785  0.5694  0.0091 -0.2666
 9158TIP3    H148889   0.282   1.207   0.853  2.7129 -1.3226 -0.4913
 9158TIP3    H248890   0.357   1.337   0.833 -1.3205  1.1554 -0.0643
 9159TIP3   OH248891   2.309   1.743   0.775 -0.0285 -0.6349 -0.4124
 9159TIP3    H148892   2.229   1.792   0.797  0.3770 -0.0763 -0.1737
 9159TIP3    H248893   2.376   1.810   0.764  0.6784 -1.1802  0.5428
 9160TIP3   OH248894   0.105   6.781  15.549 -0.0708 -0.0334  0.0579
 9160TIP3    H148895   0.051   6.841  15.600 -0.3223  0.4280 -0.7346
 9160TIP3    H248896   0.195   6.802  15.574 -0.2496 -0.9482  1.5378
 9161TIP3   OH248897   0.538   0.775   3.504  0.3372 -0.0380  0.0027
 9161TIP3    H148898   0.495   0.860   3.502  1.1085  0.3405 -0.4947
 9161TIP3    H248899   0.596   0.775   3.428  0.5584 -0.8908  0.1641
 9162TIP3   OH248900   4.493   4.418   3.217 -0.0565  0.6324  0.0298
 9162TIP3    H148901   4.538   4.461   3.144  2.3048  1.2724  1.8014
 9162TIP3    H248902   4.444   4.489   3.260 -1.1029  0.3405 -0.6825
 9163TIP3   OH248903   2.866   3.584  15.084  0.2427  0.4704  0.7522
 9163TIP3    H148904   2.802   3.648  15.053 -0.9597 -1.1437 -0.1903
 9163TIP3    H248905   2.922   3.567  15.009 -0.0602 -0.3099  0.6951
 9164TIP3   OH248906   2.922   3.376   5.523  0.1719 -0.7568 -0.4934
 9164TIP3    H148907   2.989   3.443   5.534  0.5380 -1.2814  0.5958
 9164TIP3    H248908   2.916   3.334   5.609 -0.3719 -1.8078 -1.0332
 9165TIP3   OH248909   5.918   6.145   4.729  0.9553 -0.3289  0.2094
 9165TIP3    H148910   5.913   6.181   4.640 -0.3238 -0.1514  0.3466
 9165TIP3    H248911   6.012   6.129   4.743  1.3363  1.0826 -0.5963
 9166TIP3   OH248912   1.376   1.503  14.054 -0.5025  0.0316 -0.4141
 9166TIP3    H148913   1.393   1.578  14.111  0.3616 -0.2197 -0.3308
 9166TIP3    H248914   1.412   1.428  14.103  0.8490 -0.0958 -1.5747
 9167TIP3   OH248915   4.297   3.496   3.930 -0.1255  0.3853 -0.1937
 9167TIP3    H148916   4.261   3.584   3.920 -2.7269 -0.7241 -1.0451
 9167TIP3    H248917   4.338   3.478   3.846 -2.5036 -0.4388 -1.2236
 9168TIP3   OH248918   0.916   4.967   1.523 -0.4386  0.4696 -0.2133
 9168TIP3    H148919   0.829   4.945   1.490  0.0080 -0.3496 -0.8684
 9168TIP3    H248920   0.908   4.961   1.618 -0.8212 -0.6355 -0.3181
 9169TIP3   OH248921   3.958   3.600  14.581  0.4060  0.4787  0.4302
 9169TIP3    H148922   3.915   3.564  14.503  2.8120 -1.1695 -0.1959
 9169TIP3    H248923   3.887   3.611  14.644 -1.0547 -1.5625 -0.7718
 9170TIP3   OH248924   5.676   3.396  13.453  0.4445 -0.2209  0.3300
 9170TIP3    H148925   5.723   3.318  13.483  1.5745  0.1074 -0.5532
 9170TIP3    H248926   5.745   3.459  13.431 -0.4611  1.1815  1.4155
 9171TIP3   OH248927   3.156   3.648  17.037 -0.3905  0.6491 -0.3158
 9171TIP3    H148928   3.218   3.720  17.050 -1.9902  1.6963  1.7325
 9171TIP3    H248929   3.082   3.687  16.992 -0.8105  0.0530 -0.1496
 9172TIP3   OH248930   3.211   6.776  14.559  0.4839 -0.0130  0.1567
 9172TIP3    H148931   3.148   6.728  14.505 -0.3165  1.9824 -0.7619
 9172TIP3    H248932   3.289   6.784  14.504 -0.9020  3.4684 -1.4961
 9173TIP3   OH248933   4.981   0.809   4.061  0.6078  0.3002 -0.1919
 9173TIP3    H148934   5.071   0.777   4.051  1.1087  1.4475  0.4135
 9173TIP3    H248935   4.950   0.768   4.142  1.0425  0.8822  0.2755
 9174TIP3   OH248936   4.215   1.505   3.765  0.4767 -0.4404  0.2597
 9174TIP3    H148937   4.229   1.591   3.805  0.4331 -1.4395  2.5261
 9174TIP3    H248938   4.127   1.510   3.728  1.2314  1.1341 -1.4266
 9175TIP3   OH248939   0.613   4.873   4.693 -0.1564  0.0206 -0.0460
 9175TIP3    H148940   0.585   4.894   4.781  0.6744 -0.5049  0.3553
 9175TIP3    H248941   0.704   4.844   4.703 -1.0207 -3.1183 -0.6354
 9176TIP3   OH248942   6.195   3.468  10.762  0.1314  0.1814 -0.0686
 9176TIP3    H148943   6.138   3.477  10.685 -0.1018  1.0649  0.2051
 9176TIP3    H248944   6.144   3.416  10.823 -0.6940  1.6140  0.4729
 9177TIP3   OH248945   1.809   5.756   3.213 -0.6441 -0.2869 -0.3003
 9177TIP3    H148946   1.840   5.728   3.299  0.5414 -0.0775 -0.6404
 9177TIP3    H248947   1.890   5.774   3.164 -1.3407  1.6112 -0.7826
 9178TIP3   OH248948   2.303   5.694   4.318  0.0548  0.4221  0.5051
 9178TIP3    H148949   2.357   5.656   4.388 -0.8460 -2.8230 -0.4725
 9178TIP3    H248950   2.216   5.658   4.333 -0.9922  2.5835 -0.1879
 9179TIP3   OH248951   4.783   4.795  10.401  0.2083 -0.6047  0.0463
 9179TIP3    H148952   4.737   4.871  10.366  0.4688 -0.7664 -0.6578
 9179TIP3    H248953   4.719   4.753  10.459  0.0902  0.1836  0.4926
 9180TIP3   OH248954   1.400   4.382   2.461  0.1929 -0.3986 -0.1664
 9180TIP3    H148955   1.479   4.431   2.480 -0.8992  1.6258 -0.7625
 9180TIP3    H248956   1.402   4.368   2.366 -0.4990  0.2658 -0.2841
 9181TIP3   OH248957   5.745   1.434   5.642 -0.0231 -0.0238 -0.2835
 9181TIP3    H148958   5.712   1.406   5.727  0.8315 -0.1482  0.0125
 9181TIP3    H248959   5.813   1.499   5.663  1.4023 -1.3192 -0.7972
 9182TIP3   OH248960   0.437   1.908  15.456  0.3787  0.1090  0.3575
 9182TIP3    H148961   0.350   1.875  15.437  0.6575 -1.0351  1.0223
 9182TIP3    H248962   0.447   1.895  15.551  1.8167 -1.1017  0.0572
 9183TIP3   OH248963   4.991   5.126  12.876 -0.0418  0.7608 -0.3800
 9183TIP3    H148964   4.965   5.217  12.880 -0.1361  0.8380 -2.0574
 9183TIP3    H248965   4.998   5.107  12.782 -0.8385 -1.1853 -0.0835
 9184TIP3   OH248966   1.961   3.957  16.280  0.6305  0.0424  0.1467
 9184TIP3    H148967   1.961   3.990  16.190  1.0670  0.6302  0.3583
 9184TIP3    H248968   1.893   4.008  16.324 -1.7321 -2.3348 -0.5752
 9185TIP3   OH248969   6.525   4.903   3.166  0.1449 -0.5854 -0.6697
 9185TIP3    H148970   6.511   4.849   3.243 -1.5800  0.5067 -0.2026
 9185TIP3    H248971   6.439   4.937   3.143  1.1049  1.5505 -1.2525
 9186TIP3   OH248972   5.531   1.991   6.389  0.0989 -0.1573 -0.2720
 9186TIP3    H148973   5.502   2.016   6.477 -0.5224 -0.1876 -0.4620
 9186TIP3    H248974   5.592   1.918   6.403 -0.9388 -0.9768  0.0694
 9187TIP3   OH248975   3.350   5.642   4.015  0.0813 -0.3318  0.8922
 9187TIP3    H148976   3.316   5.633   3.926  0.6505  2.4530  0.3523
 9187TIP3    H248977   3.272   5.639   4.071 -0.3799 -1.0043  0.2280
 9188TIP3   OH248978   6.383   4.602   6.749  0.3367 -0.3879 -0.1531
 9188TIP3    H148979   6.416   4.689   6.724  2.0496 -0.3070  2.2379
 9188TIP3    H248980   6.292   4.602   6.721  0.4682  1.9766 -0.7099
 9189TIP3   OH248981   2.185   5.108   2.527 -0.1360  0.5304  0.1495
 9189TIP3    H148982   2.248   5.037   2.513  1.3258  2.0873 -1.3034
 9189TIP3    H248983   2.152   5.127   2.439 -0.5598  1.6217  0.5487
 9190TIP3   OH248984   3.203   6.031   5.309 -0.3211  0.0729 -0.3325
 9190TIP3    H148985   3.151   6.025   5.229 -0.3398 -1.6116 -0.1961
 9190TIP3    H248986   3.281   5.980   5.291  1.0213  2.0827 -0.3069
 9191TIP3   OH248987   6.266   2.672  16.125  0.0707  0.5369  1.1366
 9191TIP3    H148988   6.251   2.577  16.119 -0.8102  0.7800 -1.1876
 9191TIP3    H248989   6.333   2.689  16.059  2.2766  1.1832  3.4527
 9192TIP3   OH248990   6.566   0.745  16.219 -0.2066  0.7349  0.4319
 9192TIP3    H148991   6.604   0.678  16.276 -0.9199 -1.1631 -1.2603
 9192TIP3    H248992   6.525   0.807  16.279  1.4165  0.2507  2.0845
 9193TIP3   OH248993   5.393   6.756  13.829  0.0935 -1.1190  0.1093
 9193TIP3    H148994   5.340   6.701  13.886 -2.6245 -0.4685 -1.6963
 9193TIP3    H248995   5.417   6.700  13.756  0.0150 -0.8077 -0.1598
 9194TIP3   OH248996   6.199   0.791   3.247 -0.0843 -0.2787  0.4755
 9194TIP3    H148997   6.226   0.702   3.225  0.2729  0.1739 -1.0120
 9194TIP3    H248998   6.279   0.833   3.278 -0.1128 -0.2965  0.5704
 9195TIP3   OH248999   3.145   4.225  16.213 -0.5564 -0.1030 -0.4656
 9195TIP3    H149000   3.059   4.221  16.254 -0.9420 -3.1955 -1.4409
 9195TIP3    H249001   3.128   4.261  16.126 -0.6707  0.5141 -0.1886
 9196TIP3   OH249002   4.134   4.764  10.656  0.4999  0.3128 -0.6893
 9196TIP3    H149003   4.083   4.710  10.595  0.8095 -1.3092  0.4548
 9196TIP3    H249004   4.070   4.825  10.692 -0.3388 -0.7315 -0.3683
 9197TIP3   OH249005   1.823   5.125   1.501  0.3501 -0.1578 -0.1199
 9197TIP3    H149006   1.781   5.196   1.452  0.4502 -1.1809 -1.7148
 9197TIP3    H249007   1.781   5.128   1.587 -2.1469 -0.3810 -1.2893
 9198TIP3   OH249008   3.573   0.628   3.234 -0.7049  0.4812 -0.2603
 9198TIP3    H149009   3.629   0.705   3.223 -0.5960  0.4700  0.1925
 9198TIP3    H249010   3.630   0.564   3.277 -0.5597 -0.1291 -1.3319
 9199TIP3   OH249011   2.018   5.881  12.160  0.1275  0.2996  0.2277
 9199TIP3    H149012   1.978   5.910  12.242 -0.5703  0.0857 -0.0335
 9199TIP3    H249013   2.004   5.786  12.159 -1.1163  0.4725 -0.7903
 9200TIP3   OH249014   5.466   4.290  13.061  0.7897  0.3317 -0.2181
 9200TIP3    H149015   5.498   4.243  13.138  0.8041  0.3206 -0.2309
 9200TIP3    H249016   5.544   4.329  13.023  0.4253  2.8140  1.4524
 9201TIP3   OH249017   1.738   5.266   3.060  0.8556  0.3530  0.2538
 9201TIP3    H149018   1.778   5.208   3.125  1.5102 -0.3863 -0.7770
 9201TIP3    H249019   1.781   5.242   2.978 -1.0831  0.1838 -0.7221
 9202TIP3   OH249020   1.717   1.255   4.862  0.0385  0.1019 -0.4319
 9202TIP3    H149021   1.811   1.263   4.846  0.0119  0.7868 -0.2942
 9202TIP3    H249022   1.685   1.346   4.861 -0.7521 -0.1768 -1.2559
 9203TIP3   OH249023   3.826   3.123  16.013  0.1281  0.3558 -0.2535
 9203TIP3    H149024   3.889   3.078  16.069 -1.5837  0.0653  1.4865
 9203TIP3    H249025   3.854   3.215  16.014 -0.2359  0.4526  1.5755
 9204TIP3   OH249026   2.090   0.931   5.794 -0.5182  0.0025 -0.2811
 9204TIP3    H149027   2.115   0.882   5.872 -0.4689 -0.0805 -0.3473
 9204TIP3    H249028   2.173   0.965   5.760 -0.8725  2.5499  1.3666
 9205TIP3   OH249029   0.988   0.077  16.452 -0.4310 -0.0718 -0.2343
 9205TIP3    H149030   1.078   0.110  16.460 -0.2060 -0.2949 -1.6861
 9205TIP3    H249031   0.989  -0.007  16.498  0.4029 -0.6019 -1.1905
 9206TIP3   OH249032   6.571   3.672   1.608  0.1249 -0.7420  0.3815
 9206TIP3    H149033   6.602   3.613   1.539  0.5289 -0.1125  0.0218
 9206TIP3    H249034   6.489   3.707   1.575  0.6688  0.1014 -0.0959
 9207TIP3   OH249035   4.417   4.284   2.179 -0.0173  0.1698  0.4054
 9207TIP3    H149036   4.463   4.365   2.203  1.4303 -0.2020 -1.0698
 9207TIP3    H249037   4.392   4.246   2.263 -0.6585  2.1039  1.1247
 9208TIP3   OH249038   4.351   2.972   0.195 -0.4893 -0.1047 -0.2739
 9208TIP3    H149039   4.378   3.048   0.246 -1.1807 -0.0813  0.0602
 9208TIP3    H249040   4.432   2.922   0.180 -0.2197  0.1178  0.4537
 9209TIP3   OH249041   1.821   2.732  15.519 -0.3057 -0.8173  0.0040
 9209TIP3    H149042   1.824   2.736  15.424 -0.3104  2.2833  0.0810
 9209TIP3    H249043   1.913   2.737  15.546 -0.3122 -1.5587  0.1682
 9210TIP3   OH249044   3.210   0.461  11.323  0.4145  0.3276 -0.1284
 9210TIP3    H149045   3.199   0.370  11.296 -0.6168  0.4746 -0.1976
 9210TIP3    H249046   3.252   0.504  11.249 -1.5458  0.5178 -1.1438
 9211TIP3   OH249047   2.292   0.622   5.063 -0.3415 -0.2894  0.0984
 9211TIP3    H149048   2.214   0.578   5.027 -0.1674 -0.3174 -0.2507
 9211TIP3    H249049   2.309   0.576   5.145 -0.1934 -0.8444 -0.2381
 9212TIP3   OH249050   4.580   2.519  12.508 -0.5319  0.1686  0.5428
 9212TIP3    H149051   4.516   2.540  12.440  1.5096 -0.2677 -1.6128
 9212TIP3    H249052   4.580   2.424  12.513  2.0776 -0.0370 -1.7409
 9213TIP3   OH249053   3.384   3.471   4.682  0.2402 -0.2006 -0.3047
 9213TIP3    H149054   3.434   3.433   4.754 -2.3868  1.2694  2.4151
 9213TIP3    H249055   3.405   3.564   4.684 -0.1090 -0.0946 -1.2408
 9214TIP3   OH249056   6.677   4.926   3.471 -0.7165  0.5113  0.6383
 9214TIP3    H149057   6.632   4.997   3.425 -0.2183 -1.1043 -2.4474
 9214TIP3    H249058   6.768   4.955   3.475 -0.7652  0.6686  0.6401
 9215TIP3   OH249059   2.366   6.716  16.468  0.5929  0.4099  0.1957
 9215TIP3    H149060   2.401   6.626  16.468  0.6110  0.3791  2.2654
 9215TIP3    H249061   2.276   6.706  16.438  1.0352 -0.1086 -0.9789
 9216TIP3   OH249062   3.912   6.243  16.895 -0.0627 -0.4179  0.1273
 9216TIP3    H149063   3.849   6.186  16.939 -1.2116 -2.2975 -3.7173
 9216TIP3    H249064   3.863   6.280  16.821  3.2106 -1.7740 -2.8664
 9217TIP3   OH249065   1.860   4.798   1.047  0.6356  0.0585  0.3783
 9217TIP3    H149066   1.955   4.787   1.057  0.5614 -0.3130  0.6671
 9217TIP3    H249067   1.836   4.862   1.114  0.4910 -0.7532  1.0976
 9218TIP3   OH249068   3.142   1.485   1.516 -0.4153 -0.4968  0.1827
 9218TIP3    H149069   3.216   1.436   1.552  0.2015  0.2023 -0.1300
 9218TIP3    H249070   3.080   1.418   1.490  0.0397 -1.0864  0.5960
 9219TIP3   OH249071   5.586   4.802   4.936  0.0394 -0.1957  0.3836
 9219TIP3    H149072   5.554   4.803   4.846  0.0948 -0.2365  0.3640
 9219TIP3    H249073   5.558   4.887   4.972 -0.0378 -0.2055  0.3484
 9220TIP3   OH249074   1.793   1.168   3.609 -0.2135 -0.2663  0.3037
 9220TIP3    H149075   1.869   1.141   3.558 -0.6067 -0.4686 -0.1665
 9220TIP3    H249076   1.758   1.244   3.562 -0.2854 -0.1526  0.5393
 9221TIP3   OH249077   2.447   3.354  11.662  0.3378  0.2239 -0.3755
 9221TIP3    H149078   2.509   3.408  11.612  1.2716 -0.9403 -0.5055
 9221TIP3    H249079   2.480   3.265  11.652 -1.0419 -0.3436  0.0571
 9222TIP3   OH249080   3.149   6.528   2.764 -0.0995 -0.0574  0.3632
 9222TIP3    H149081   3.182   6.618   2.759 -1.2090  0.4257  1.4900
 9222TIP3    H249082   3.121   6.518   2.855 -2.0023 -0.8389 -0.2842
 9223TIP3   OH249083   3.642   6.083  14.066 -0.2972 -0.1832  0.1779
 9223TIP3    H149084   3.568   6.022  14.061  0.0379 -0.4879 -1.2325
 9223TIP3    H249085   3.646   6.108  14.158 -2.2326 -0.0818  0.2700
 9224TIP3   OH249086   4.129   1.583  12.406  0.0407  0.1592  0.2779
 9224TIP3    H149087   4.039   1.614  12.399  0.1995  0.4382 -0.7850
 9224TIP3    H249088   4.130   1.501  12.356  0.2125 -0.2231  0.9017
 9225TIP3   OH249089   4.188   3.679  13.610 -0.1975  0.0837  0.7168
 9225TIP3    H149090   4.155   3.674  13.520  0.5671 -0.1043  0.4479
 9225TIP3    H249091   4.193   3.772  13.629  1.6769  0.1872 -0.1861
 9226TIP3   OH249092   3.944   4.534   4.374  0.1438  0.0721 -0.2980
 9226TIP3    H149093   3.891   4.471   4.423  0.5070 -0.7293 -0.9187
 9226TIP3    H249094   4.027   4.488   4.359  0.6018  0.8959 -0.3106
 9227TIP3   OH249095   4.238   5.933   3.087  0.1389  0.1888  0.1768
 9227TIP3    H149096   4.292   6.002   3.125 -1.6778  2.0978 -0.6238
 9227TIP3    H249097   4.272   5.922   2.998  0.9234 -0.5286  0.5515
 9228TIP3   OH249098   4.854   0.371  15.650 -0.3423 -0.1437  0.3850
 9228TIP3    H149099   4.770   0.327  15.632 -0.8536  0.8368  0.3511
 9228TIP3    H249100   4.834   0.431  15.721  0.3557  0.0549  0.4113
 9229TIP3   OH249101   6.561   2.100  11.600  0.2631 -0.2614  0.0528
 9229TIP3    H149102   6.630   2.166  11.585 -1.2887  1.0681 -1.3900
 9229TIP3    H249103   6.557   2.051  11.518  0.8541 -1.6627  0.8459
 9230TIP3   OH249104   3.384   5.436   2.023 -0.3855  0.1814  0.2990
 9230TIP3    H149105   3.436   5.367   1.981 -0.1272  0.4066  0.2463
 9230TIP3    H249106   3.441   5.469   2.093 -0.5977  0.1887  0.4683
 9231TIP3   OH249107   3.136   1.348   0.445 -0.1302  0.1797  0.2027
 9231TIP3    H149108   3.067   1.377   0.505 -0.1854  1.6267 -0.5344
 9231TIP3    H249109   3.089   1.299   0.377 -0.5447  1.8684 -0.7421
 9232TIP3   OH249110   0.873   1.455  15.519 -0.0672  0.3516 -0.1928
 9232TIP3    H149111   0.904   1.392  15.585  1.3041  1.3360  0.1219
 9232TIP3    H249112   0.950   1.505  15.496 -1.1007  1.7536 -0.6441
 9233TIP3   OH249113   4.780   1.200   3.049 -0.0193 -0.0724 -0.1827
 9233TIP3    H149114   4.783   1.244   3.134  2.3776  1.0621 -0.8096
 9233TIP3    H249115   4.831   1.121   3.060 -2.6024 -1.7246  0.3556
 9234TIP3   OH249116   1.140   6.306  12.900 -0.4420 -0.0236  0.5898
 9234TIP3    H149117   1.189   6.332  12.978  0.2983 -0.8905  0.4179
 9234TIP3    H249118   1.180   6.354  12.828  0.2593 -0.8420  0.4284
 9235TIP3   OH249119   2.828   6.376   1.992 -0.4241 -0.1029  0.6953
 9235TIP3    H149120   2.744   6.333   2.005 -1.3719  0.2819 -3.3720
 9235TIP3    H249121   2.807   6.457   1.947  2.1190  0.0249 -0.3759
 9236TIP3   OH249122   4.868   0.199   6.092  0.3341 -0.0274  0.2895
 9236TIP3    H149123   4.823   0.277   6.058  0.1299  0.5841  1.9256
 9236TIP3    H249124   4.800   0.151   6.140  0.0849 -2.0073 -1.9395
 9237TIP3   OH249125   5.761   4.246   0.058  0.1025  0.3300  0.2516
 9237TIP3    H149126   5.817   4.169   0.064 -0.4592 -0.5745 -3.9118
 9237TIP3    H249127   5.680   4.221   0.103  0.8565 -0.5395  1.1325
 9238TIP3   OH249128   2.554   0.485   0.586 -0.0138 -0.1894  0.1395
 9238TIP3    H149129   2.636   0.437   0.602 -0.5270 -1.1594 -0.1317
 9238TIP3    H249130   2.492   0.418   0.560 -0.5912  0.7087 -0.8095
 9239TIP3   OH249131   0.048   3.204  16.461  0.3006  0.2922  0.2999
 9239TIP3    H149132   0.069   3.274  16.399  0.4569  0.8902  1.0116
 9239TIP3    H249133   0.121   3.205  16.523  0.6173 -0.9294 -0.0493
 9240TIP3   OH249134   4.025   6.492   3.665 -0.5150  0.3163 -0.1650
 9240TIP3    H149135   4.086   6.541   3.610  0.0082 -0.2064 -0.0635
 9240TIP3    H249136   4.016   6.407   3.621  0.4265 -0.3447  0.9049
 9241TIP3   OH249137   2.110   4.448  16.478  0.7537 -0.3249  0.3759
 9241TIP3    H149138   2.066   4.378  16.526 -2.7117  0.7881 -1.0229
 9241TIP3    H249139   2.120   4.413  16.389 -0.3603  0.6477 -0.1468
 9242TIP3   OH249140   2.744   2.618   3.563 -0.2871 -0.1680 -0.3561
 9242TIP3    H149141   2.818   2.674   3.586 -0.1480 -0.3460 -0.3702
 9242TIP3    H249142   2.675   2.680   3.537 -0.7221  0.0526  1.3202
 9243TIP3   OH249143   3.325   5.730  12.295 -0.3654  1.2669  0.1708
 9243TIP3    H149144   3.243   5.761  12.333  0.0876  2.2178  0.3697
 9243TIP3    H249145   3.346   5.651  12.344 -0.7333  1.4805  0.6679
 9244TIP3   OH249146   3.924   3.192   6.296 -0.0609  0.5994  0.4846
 9244TIP3    H149147   3.971   3.159   6.373 -1.0810  0.2572  0.9660
 9244TIP3    H249148   3.835   3.208   6.327 -0.9223 -1.0555 -0.9953
 9245TIP3   OH249149   3.557   1.820   0.809 -0.0311 -0.2826  0.2223
 9245TIP3    H149150   3.633   1.879   0.803  0.1841 -0.6134 -0.3495
 9245TIP3    H249151   3.588   1.748   0.864 -0.1276 -0.1198  0.4912
 9246TIP3   OH249152   6.712   5.050  17.213 -0.0486  0.2221 -0.6268
 9246TIP3    H149153   6.808   5.053  17.207 -0.0518  1.0217 -0.3214
 9246TIP3    H249154   6.684   5.016  17.128  0.4179  1.5540 -1.3245
 9247TIP3   OH249155   5.729   3.231   0.367 -0.1569  0.8995 -0.2784
 9247TIP3    H149156   5.661   3.174   0.330  0.5416 -0.1187 -0.0278
 9247TIP3    H249157   5.774   3.176   0.431  1.8854  1.0527 -1.5270
 9248TIP3   OH249158   1.177   1.919   5.275 -0.3193 -0.0027 -0.2528
 9248TIP3    H149159   1.159   1.829   5.302  0.6103 -0.3445 -0.7370
 9248TIP3    H249160   1.267   1.917   5.243 -0.4104  1.0288 -0.6046
 9249TIP3   OH249161   1.130   1.143   0.472  0.3571  0.4733 -0.2367
 9249TIP3    H149162   1.059   1.206   0.463  1.2902  1.8876  1.8579
 9249TIP3    H249163   1.089   1.067   0.513  0.3009  1.9216  2.5785
 9250TIP3   OH249164   3.051   0.323  15.933 -0.5222  0.3358  0.1661
 9250TIP3    H149165   3.133   0.289  15.897 -1.3509 -1.4368 -0.0992
 9250TIP3    H249166   2.995   0.337  15.856 -0.8152  0.5601  0.4169
 9251TIP3   OH249167   1.716   3.430   2.146 -0.6793  0.4993  0.3007
 9251TIP3    H149168   1.708   3.522   2.118  0.4548  0.2813 -0.7971
 9251TIP3    H249169   1.677   3.428   2.233 -1.1116  1.9370  0.1574
 9252TIP3   OH249170   2.326   0.039  16.753 -0.4850 -0.0180 -0.0343
 9252TIP3    H149171   2.351   0.125  16.721  2.0958 -1.3245 -1.7165
 9252TIP3    H249172   2.294  -0.008  16.676 -2.4886 -0.3726  0.9882
 9253TIP3   OH249173   6.417   3.025   3.348  0.4030 -0.3192 -0.0828
 9253TIP3    H149174   6.484   2.972   3.304 -1.3436 -2.6041 -0.1007
 9253TIP3    H249175   6.358   3.052   3.277 -1.0407 -1.9206  0.4777
 9254TIP3   OH249176   4.517   4.711   5.857  0.1302 -0.5203 -0.2125
 9254TIP3    H149177   4.578   4.669   5.918  1.1972 -0.0400 -0.9427
 9254TIP3    H249178   4.434   4.714   5.905  1.0984  0.3544  1.4368
 9255TIP3   OH249179   0.069   5.803  13.921 -0.2801  0.0535 -0.0993
 9255TIP3    H149180  -0.004   5.855  13.886 -0.9750 -0.2125  0.9587
 9255TIP3    H249181   0.036   5.714  13.925  0.4588 -0.2506 -0.6024
 9256TIP3   OH249182   4.292   3.317  13.850 -0.0696 -0.0283  0.0949
 9256TIP3    H149183   4.332   3.379  13.789 -0.3566 -0.5519 -0.6293
 9256TIP3    H249184   4.234   3.372  13.905 -2.9094 -0.0670 -2.7126
 9257TIP3   OH249185   2.060   6.059  16.801  0.1121  0.5835 -0.4686
 9257TIP3    H149186   2.043   6.074  16.894 -0.0514 -0.1875 -0.3660
 9257TIP3    H249187   2.007   5.982  16.779 -0.4284  1.2160 -1.3860
 9258TIP3   OH249188   0.633   5.535   5.822  0.2857  0.3100  0.1942
 9258TIP3    H149189   0.607   5.566   5.909 -1.1705  1.9527 -0.8001
 9258TIP3    H249190   0.684   5.607   5.785  2.6407 -1.1855  0.4331
 9259TIP3   OH249191   2.689   1.283   5.994 -0.6202  0.1823 -0.4938
 9259TIP3    H149192   2.718   1.195   6.018  1.5587  0.1840 -2.9215
 9259TIP3    H249193   2.757   1.316   5.936 -1.2286  3.6420  0.6267
 9260TIP3   OH249194   5.058   2.641   1.003  0.1864  0.1533 -0.7046
 9260TIP3    H149195   5.000   2.714   1.024  1.7367  1.2640 -0.1903
 9260TIP3    H249196   5.091   2.612   1.088 -2.4174 -2.8896 -0.6306
 9261TIP3   OH249197   2.515   2.021  11.085 -0.2584 -0.2122 -0.3448
 9261TIP3    H149198   2.500   2.033  11.179 -0.8422 -1.4827 -0.2636
 9261TIP3    H249199   2.533   1.927  11.076 -0.1486 -0.0807 -1.5012
 9262TIP3   OH249200   1.206   2.637   2.479 -0.1694 -0.4005  0.1546
 9262TIP3    H149201   1.214   2.719   2.430 -1.4904 -0.6678 -0.5331
 9262TIP3    H249202   1.184   2.572   2.413  0.3933 -1.2351  0.7733
 9263TIP3   OH249203   4.602   1.570  15.475 -0.1191 -0.4747 -0.0141
 9263TIP3    H149204   4.638   1.634  15.536 -0.5814 -0.3004  0.0783
 9263TIP3    H249205   4.677   1.516  15.450  0.5116  0.7800 -0.9363
 9264TIP3   OH249206   4.839   1.274  15.104  0.0525 -0.0363 -0.0045
 9264TIP3    H149207   4.761   1.313  15.144 -0.0012 -0.4280  0.2707
 9264TIP3    H249208   4.903   1.345  15.105  0.1317 -0.1059  1.0109
 9265TIP3   OH249209   6.748   4.760  15.796 -0.2835  0.1955  0.0763
 9265TIP3    H149210   6.787   4.739  15.711 -1.0735  0.3840 -0.3370
 9265TIP3    H249211   6.811   4.727  15.860  1.9776  3.0328 -0.5488
 9266TIP3   OH249212   2.708   0.903  17.099  0.1817 -0.1138  0.4544
 9266TIP3    H149213   2.753   0.982  17.070 -1.0092  0.4296  0.0899
 9266TIP3    H249214   2.667   0.927  17.182 -1.0317 -0.0366 -0.1574
 9267TIP3   OH249215   5.417   2.148   4.546 -0.0929  0.1128 -0.0510
 9267TIP3    H149216   5.337   2.099   4.559  0.7530 -1.7091 -1.5227
 9267TIP3    H249217   5.484   2.082   4.529  1.5233  1.6441  0.1656
 9268TIP3   OH249218   4.410   3.754  15.267  0.3913  0.2064 -0.1950
 9268TIP3    H149219   4.351   3.697  15.217  0.4592 -0.9152  0.9792
 9268TIP3    H249220   4.482   3.771  15.207 -0.2774  0.1512 -1.0315
 9269TIP3   OH249221   3.135   6.300   6.235  0.0155 -0.1688 -0.2904
 9269TIP3    H149222   3.208   6.308   6.295 -0.0786  0.7805 -0.3002
 9269TIP3    H249223   3.068   6.252   6.284 -0.3591  1.2962  0.6342
 9270TIP3   OH249224   2.233   3.914  14.884 -0.0390  0.3860 -0.5532
 9270TIP3    H149225   2.162   3.977  14.897 -0.0124  0.0641  1.2244
 9270TIP3    H249226   2.297   3.961  14.830 -0.1061  1.8269  0.5990
 9271TIP3   OH249227   0.315   2.062  11.748  0.2660  0.6101  0.2335
 9271TIP3    H149228   0.383   2.069  11.815 -1.1652 -0.6722  1.8653
 9271TIP3    H249229   0.243   2.116  11.781 -0.1416  0.6354 -0.6887
 9272TIP3   OH249230   0.399   6.488   5.753 -0.1784 -0.3551 -0.3602
 9272TIP3    H149231   0.425   6.541   5.828 -2.1773  1.6988 -1.0879
 9272TIP3    H249232   0.384   6.401   5.790 -2.3380  0.8918  1.8748
 9273TIP3   OH249233   4.819   0.779   3.004  0.3033 -0.3860  0.0683
 9273TIP3    H149234   4.904   0.794   2.962  0.1550  0.6873  0.1358
 9273TIP3    H249235   4.803   0.859   3.054 -0.8063 -0.5346 -0.0428
 9274TIP3   OH249236   0.432   4.149  13.518 -0.1728 -0.2118 -0.2807
 9274TIP3    H149237   0.445   4.228  13.467  0.4989 -0.2484 -0.1649
 9274TIP3    H249238   0.520   4.112  13.530 -0.5952 -1.6570 -1.4369
 9275TIP3   OH249239   2.602   3.515   2.831 -0.5749  0.3777  0.3503
 9275TIP3    H149240   2.555   3.513   2.747 -0.2387  1.0821  0.1464
 9275TIP3    H249241   2.639   3.603   2.836 -0.5649  0.3264  1.2256
 9276TIP3   OH249242   0.301   4.754   4.237  0.0451 -0.0223  0.2726
 9276TIP3    H149243   0.263   4.832   4.197  0.8662  0.6571  0.7993
 9276TIP3    H249244   0.237   4.727   4.303 -0.6354 -0.2989 -0.4951
 9277TIP3   OH249245   1.725   1.349   2.040 -0.2624 -0.1236 -0.0758
 9277TIP3    H149246   1.653   1.333   1.978 -0.5240 -1.2403  0.5017
 9277TIP3    H249247   1.751   1.439   2.023  0.2812 -0.7001 -2.4432
 9278TIP3   OH249248   4.961   2.495  15.359 -0.0594 -0.3136  0.0526
 9278TIP3    H149249   5.016   2.473  15.434 -1.0400 -1.1148  0.5404
 9278TIP3    H249250   5.015   2.554  15.307  0.0812  1.4685  2.1304
 9279TIP3   OH249251   5.994   6.378   4.971 -0.0187  0.4063  0.3376
 9279TIP3    H149252   6.001   6.357   4.878 -2.4919  0.9407  0.0002
 9279TIP3    H249253   5.920   6.325   5.002  0.9205  0.0620  2.0541
 9280TIP3   OH249254   0.560   1.487   5.169  0.3493  0.2684  0.0604
 9280TIP3    H149255   0.623   1.422   5.138  1.1899  0.0873  2.0305
 9280TIP3    H249256   0.499   1.438   5.224 -1.5291  0.4533 -1.7936
 9281TIP3   OH249257   1.493   4.308   2.761  0.2750 -0.3964 -0.5495
 9281TIP3    H149258   1.434   4.308   2.685 -0.9566 -0.9901  0.3854
 9281TIP3    H249259   1.465   4.233   2.813 -0.6865  1.5396  1.8552
 9282TIP3   OH249260   5.076   0.374  13.438 -0.7466  0.1785 -0.4854
 9282TIP3    H149261   4.981   0.382  13.442 -0.6918  1.2331 -1.1633
 9282TIP3    H249262   5.108   0.419  13.516 -0.8343 -0.8542  0.1535
 9283TIP3   OH249263   5.826   6.561   1.508  0.3233 -0.1588 -0.7324
 9283TIP3    H149264   5.903   6.601   1.469  1.5510 -0.9891  0.7814
 9283TIP3    H249265   5.809   6.613   1.587 -0.7025  0.0477 -1.0803
 9284TIP3   OH249266   4.101   1.909  16.856 -0.0472  0.1754  0.0517
 9284TIP3    H149267   4.147   1.833  16.892  0.8516  0.5838 -0.2222
 9284TIP3    H249268   4.148   1.985  16.893 -0.4774  0.5917 -0.2586
 9285TIP3   OH249269   0.138   0.863   0.420  0.2553  0.4472  0.2984
 9285TIP3    H149270   0.048   0.887   0.396  0.3657  1.5234  0.9188
 9285TIP3    H249271   0.192   0.904   0.353  0.2632 -0.5520 -0.3131
 9286TIP3   OH249272   5.229   5.890  11.837  0.0376 -0.3200  0.5974
 9286TIP3    H149273   5.149   5.912  11.788  0.8818  0.3671 -0.5038
 9286TIP3    H249274   5.287   5.851  11.772  0.8990 -0.0827  1.2137
 9287TIP3   OH249275   3.114   5.909  14.545 -0.0457  0.6288  0.6233
 9287TIP3    H149276   3.197   5.894  14.501 -0.2409 -1.3572  0.9114
 9287TIP3    H249277   3.123   5.864  14.629 -1.3728  0.4795  0.6970
 9288TIP3   OH249278   2.612   4.538  14.962  0.1231  0.2433  0.1682
 9288TIP3    H149279   2.635   4.583  15.043  0.2097 -0.2125  0.4012
 9288TIP3    H249280   2.628   4.602  14.893  1.3886  0.1731  0.3846
 9289TIP3   OH249281   4.039   5.293  11.918  0.1956 -0.4459  0.1629
 9289TIP3    H149282   4.095   5.338  11.981  0.1981  0.3831 -0.4372
 9289TIP3    H249283   4.097   5.271  11.845 -0.2152  0.2640 -0.3831
 9290TIP3   OH249284   2.858   3.605  13.657 -0.4675  0.4367  0.7481
 9290TIP3    H149285   2.813   3.559  13.727 -0.4398  1.2002  1.2661
 9290TIP3    H249286   2.949   3.574  13.662 -0.5045  0.3628  0.9327
 9291TIP3   OH249287   4.284   2.280  13.678 -0.1596  0.1941 -0.1021
 9291TIP3    H149288   4.285   2.301  13.584 -2.4865  1.3916  0.1051
 9291TIP3    H249289   4.358   2.329  13.714 -0.0497  0.7808 -1.0990
 9292TIP3   OH249290   1.261   2.775   4.537 -0.1206 -0.0969 -0.2692
 9292TIP3    H149291   1.282   2.848   4.479 -1.3254  0.5060  0.0319
 9292TIP3    H249292   1.188   2.807   4.590 -1.5127 -1.9749 -0.9983
 9293TIP3   OH249293   6.491   1.139  15.432 -0.4797 -0.3013 -0.3657
 9293TIP3    H149294   6.537   1.170  15.354 -0.1869 -1.7316 -0.7933
 9293TIP3    H249295   6.558   1.091  15.482 -0.8203  0.0554  0.4395
 9294TIP3   OH249296   1.366   5.265   3.388  0.0916 -0.3320 -0.1746
 9294TIP3    H149297   1.304   5.192   3.381  0.1593 -0.5404  1.2972
 9294TIP3    H249298   1.445   5.226   3.427  1.2771 -0.1289 -2.2523
 9295TIP3   OH249299   6.517   4.244  13.645 -0.1916 -0.4295 -1.1539
 9295TIP3    H149300   6.558   4.200  13.570  0.8131  1.3698 -1.7015
 9295TIP3    H249301   6.583   4.307  13.674 -1.4182  0.3938 -0.1212
 9296TIP3   OH249302   1.545   6.595  15.164 -0.1303 -0.1815  0.1492
 9296TIP3    H149303   1.584   6.519  15.208  0.2604  0.5439  1.0593
 9296TIP3    H249304   1.529   6.565  15.074 -0.4643 -1.5119  0.6433
 9297TIP3   OH249305   1.214   1.716   3.006  0.6226 -0.2659 -0.0112
 9297TIP3    H149306   1.206   1.800   3.051 -2.7532 -1.0945  1.1024
 9297TIP3    H249307   1.297   1.680   3.038  0.3071  1.0104  2.3640
 9298TIP3   OH249308   1.558   0.869   0.790 -0.4408 -0.0870 -0.0449
 9298TIP3    H149309   1.534   0.779   0.768 -0.3701 -0.5738  1.7916
 9298TIP3    H249310   1.569   0.912   0.705  1.2824 -2.2720 -0.9821
 9299TIP3   OH249311   1.718   4.978   1.994  0.2615 -0.6253 -0.2442
 9299TIP3    H149312   1.635   5.019   2.017 -0.2436 -0.7076 -1.8620
 9299TIP3    H249313   1.783   5.048   2.005 -0.0584 -0.4907  0.7784
 9300TIP3   OH249314   3.991   4.312  15.892 -0.1042 -0.0884  0.2586
 9300TIP3    H149315   4.051   4.337  15.821 -0.8000  0.9713  0.0097
 9300TIP3    H249316   4.044   4.314  15.971  0.7578 -1.5832 -0.2657
 9301TIP3   OH249317   4.685   4.175   3.087 -0.3272  0.0886 -0.7045
 9301TIP3    H149318   4.627   4.201   3.016 -1.0890 -0.9120 -0.4649
 9301TIP3    H249319   4.761   4.232   3.078 -0.4454  0.0206 -2.2715
 9302TIP3   OH249320   3.697   2.037   4.707  0.8185 -0.1906 -0.3565
 9302TIP3    H149321   3.626   2.065   4.648  1.8897  1.9742 -0.6929
 9302TIP3    H249322   3.666   2.060   4.794 -0.9236 -3.7276  0.0514
 9303TIP3   OH249323   1.811   5.113  10.822 -0.2349  0.4813 -0.3110
 9303TIP3    H149324   1.875   5.185  10.818 -0.3902  0.5862 -0.9106
 9303TIP3    H249325   1.726   5.156  10.811 -0.3842  0.2949  0.0916
 9304TIP3   OH249326   0.876   4.050   6.205 -0.4188  0.1715  0.2596
 9304TIP3    H149327   0.952   3.998   6.177  0.6300  1.6461  0.2909
 9304TIP3    H249328   0.907   4.097   6.282 -1.1005  1.4267 -0.2201
 9305TIP3   OH249329   2.645   6.394   0.302  0.4731  0.2423 -0.5110
 9305TIP3    H149330   2.736   6.369   0.289  0.6282  1.2825 -1.4482
 9305TIP3    H249331   2.649   6.486   0.328 -0.3179  0.2848 -0.5231
 9306TIP3   OH249332   2.782   0.723   5.003  0.0345 -0.2697 -0.0018
 9306TIP3    H149333   2.697   0.680   4.989  0.6543 -1.8277  0.9958
 9306TIP3    H249334   2.782   0.746   5.096  0.8311 -0.5541  0.0707
 9307TIP3   OH249335   6.216   2.840  13.943 -0.0991  0.9594  0.0993
 9307TIP3    H149336   6.151   2.848  13.874  0.6097 -0.7687 -0.8011
 9307TIP3    H249337   6.245   2.749  13.938  0.5853  1.0381  2.1104
 9308TIP3   OH249338   5.228   4.267   1.780  0.5777  0.8095 -0.3917
 9308TIP3    H149339   5.179   4.185   1.773  0.5889  0.7264  0.4336
 9308TIP3    H249340   5.242   4.279   1.874  2.1662  0.8257 -0.6170
 9309TIP3   OH249341   1.774   1.202   3.225  0.0605 -0.1561 -0.1155
 9309TIP3    H149342   1.824   1.251   3.160  0.9218 -0.0041  0.6400
 9309TIP3    H249343   1.841   1.156   3.276 -0.6327 -0.6512  0.3449
 9310TIP3   OH249344   1.072   6.057  11.716 -0.1271 -0.8783 -0.0374
 9310TIP3    H149345   1.086   6.111  11.794  2.6703 -0.7270 -0.5706
 9310TIP3    H249346   1.048   6.121  11.648  0.6541 -0.6044 -0.0616
 9311TIP3   OH249347   4.636   6.207  11.238  0.5074 -0.2579 -0.0484
 9311TIP3    H149348   4.686   6.128  11.261 -0.0212 -0.6619 -0.2710
 9311TIP3    H249349   4.602   6.189  11.151  2.2447  1.1491 -1.0618
 9312TIP3   OH249350   3.863   0.069   3.473 -0.0213 -0.4044 -0.3636
 9312TIP3    H149351   3.864   0.024   3.389 -1.9709 -1.8797  0.3622
 9312TIP3    H249352   3.934   0.028   3.523 -0.2564 -1.0421 -0.5444
 9313TIP3   OH249353   0.701   1.724  16.109  0.0609 -0.0053 -0.0568
 9313TIP3    H149354   0.684   1.763  16.195  0.5682 -1.2177  0.6044
 9313TIP3    H249355   0.695   1.630  16.124 -0.9454 -0.2118 -1.5938
 9314TIP3   OH249356   5.446   3.600   3.597  0.0211 -0.1383 -0.5502
 9314TIP3    H149357   5.424   3.593   3.690 -0.5331  3.6632 -0.3465
 9314TIP3    H249358   5.526   3.653   3.595 -0.0555 -0.0575 -2.2554
 9315TIP3   OH249359   1.413   3.652  14.769  0.3964  0.1534  0.6517
 9315TIP3    H149360   1.428   3.612  14.683  2.0222 -0.6681  1.2846
 9315TIP3    H249361   1.414   3.746  14.753 -1.6568 -0.0124 -0.5825
 9316TIP3   OH249362   2.661   2.765   5.479  0.1562 -0.3504  0.2049
 9316TIP3    H149363   2.703   2.814   5.550 -1.3833 -0.3391  1.1175
 9316TIP3    H249364   2.734   2.730   5.427  1.2746  0.7980  0.9963
 9317TIP3   OH249365   5.296   0.866  15.656  0.0558 -0.4196 -0.1749
 9317TIP3    H149366   5.305   0.807  15.731 -1.6668 -0.6641 -0.1253
 9317TIP3    H249367   5.219   0.832  15.609 -0.6422  1.4686 -0.4431
 9318TIP3   OH249368   0.577   0.398  16.259 -0.2755  0.1337  0.1192
 9318TIP3    H149369   0.523   0.454  16.315 -0.6972  0.4053 -0.5482
 9318TIP3    H249370   0.577   0.313  16.303 -0.8194  0.2712  0.3917
 9319TIP3   OH249371   4.796   0.588   0.318 -0.0795 -0.2274  0.1758
 9319TIP3    H149372   4.732   0.528   0.281 -2.3763  1.9550  0.4373
 9319TIP3    H249373   4.827   0.639   0.243  0.2505 -0.2957  0.2652
 9320TIP3   OH249374   2.162   1.845   3.755  0.4799 -0.2877  0.4991
 9320TIP3    H149375   2.221   1.872   3.685  0.4347 -0.6534  0.3161
 9320TIP3    H249376   2.215   1.849   3.834  0.7480 -0.5905  0.3398
 9321TIP3   OH249377   0.400   4.591   5.708 -0.0601 -0.2959  0.1129
 9321TIP3    H149378   0.474   4.640   5.743  0.3992  0.1667 -1.4752
 9321TIP3    H249379   0.420   4.499   5.726  1.8433 -0.3280 -2.0646
 9322TIP3   OH249380   5.064   5.292  16.702  0.5247 -0.5215  0.2474
 9322TIP3    H149381   4.999   5.256  16.641 -0.8948 -1.3243  2.1719
 9322TIP3    H249382   5.050   5.386  16.699 -0.7188 -0.6846  0.5880
 9323TIP3   OH249383   5.644   0.936  10.250  0.1935  0.0954 -0.0539
 9323TIP3    H149384   5.657   0.994  10.325  0.3859 -0.0358  0.0139
 9323TIP3    H249385   5.707   0.865  10.263 -1.9573 -1.6245  1.3351
 9324TIP3   OH249386   5.583   4.205   4.602  0.2495 -0.4124  0.1789
 9324TIP3    H149387   5.674   4.178   4.596  0.2712 -0.0546 -1.2949
 9324TIP3    H249388   5.533   4.128   4.576  0.2630  0.3869 -2.4193
 9325TIP3   OH249389   6.130   3.088  10.495 -0.2587  0.0783  0.1474
 9325TIP3    H149390   6.101   3.006  10.536 -0.5683 -0.1789 -0.5751
 9325TIP3    H249391   6.225   3.078  10.488 -0.1496  0.3253  1.2330
 9326TIP3   OH249392   2.004   1.114  16.345 -0.1712 -0.1717  0.5887
 9326TIP3    H149393   2.018   1.040  16.287 -0.8178 -0.7615  1.1881
 9326TIP3    H249394   1.964   1.077  16.423 -2.6065  1.1352 -0.0073
 9327TIP3   OH249395   0.429   4.082   2.080 -0.1120 -0.0289 -0.1014
 9327TIP3    H149396   0.334   4.088   2.074 -0.0305 -0.9674 -3.3611
 9327TIP3    H249397   0.460   4.173   2.081 -0.9602  0.2827 -1.3513
 9328TIP3   OH249398   5.682   1.450   4.243  0.0073 -0.6706  0.0265
 9328TIP3    H149399   5.697   1.402   4.325 -0.0425  0.5425  0.7540
 9328TIP3    H249400   5.707   1.388   4.174  2.8828 -0.7308  1.0374
 9329TIP3   OH249401   6.781   4.621  14.917 -0.2575  0.4260  0.3281
 9329TIP3    H149402   6.764   4.633  14.823  3.5308 -2.7068 -0.9289
 9329TIP3    H249403   6.844   4.690  14.939  1.1074 -0.6009 -0.2418
 9330TIP3   OH249404   4.801   2.571   5.283  0.5388 -0.0655  0.5022
 9330TIP3    H149405   4.761   2.490   5.317 -0.3875 -0.2231 -0.9314
 9330TIP3    H249406   4.892   2.547   5.266 -0.1803 -1.3658 -1.6856
 9331TIP3   OH249407   5.633   0.883  17.091 -0.2463  0.2505 -0.4924
 9331TIP3    H149408   5.630   0.801  17.139 -0.9453 -0.0172 -0.9934
 9331TIP3    H249409   5.544   0.917  17.095 -0.5344 -0.2531 -2.4243
 9332TIP3   OH249410   5.144   1.422   0.467 -0.0708 -0.6051  0.7331
 9332TIP3    H149411   5.096   1.431   0.549  1.4046 -2.3538  1.8425
 9332TIP3    H249412   5.107   1.344   0.426  0.5460 -0.9036  0.7269
 9333TIP3   OH249413   3.205   5.562   3.793  0.0136 -0.1953 -0.1854
 9333TIP3    H149414   3.170   5.628   3.734 -1.8062  2.7542  3.9448
 9333TIP3    H249415   3.130   5.536   3.847  2.4013  0.3413  3.5776
 9334TIP3   OH249416   0.451   0.483  16.882  0.5259  1.0487  0.4058
 9334TIP3    H149417   0.406   0.419  16.828  2.0694 -1.3067  1.8331
 9334TIP3    H249418   0.467   0.557  16.823 -1.3878  0.2020 -1.2360
 9335TIP3   OH249419   5.106   3.188   4.126 -0.0193  0.4719 -0.4724
 9335TIP3    H149420   5.063   3.197   4.211 -1.2351 -0.4274 -0.9777
 9335TIP3    H249421   5.083   3.267   4.078 -0.6578  0.2464 -0.5408
 9336TIP3   OH249422   2.397   0.819   2.980  0.4337 -0.6759 -0.1788
 9336TIP3    H149423   2.477   0.868   3.000  0.4340 -0.1259 -1.4563
 9336TIP3    H249424   2.345   0.880   2.927 -0.7395 -1.1146  0.4476
 9337TIP3   OH249425   1.217   3.367   5.706 -0.2993 -0.7341 -0.0660
 9337TIP3    H149426   1.267   3.342   5.784 -1.1957 -0.4554  0.5973
 9337TIP3    H249427   1.128   3.379   5.737 -0.8704 -1.6140 -1.3365
 9338TIP3   OH249428   4.764   3.206  15.964  0.0144  0.1235  0.8134
 9338TIP3    H149429   4.816   3.170  16.035  1.0158 -0.4986 -0.2243
 9338TIP3    H249430   4.824   3.210  15.889 -0.6611  1.9564  0.3250
 9339TIP3   OH249431   3.534   6.246  11.763  0.4897  0.1376  0.3128
 9339TIP3    H149432   3.484   6.236  11.844 -1.5280  0.3110 -0.8903
 9339TIP3    H249433   3.481   6.305  11.709  0.9450 -1.3575 -1.8245
 9340TIP3   OH249434   4.234   3.330   1.467 -0.6536 -0.0968  0.8392
 9340TIP3    H149435   4.157   3.275   1.450 -0.8982  0.9372 -1.5818
 9340TIP3    H249436   4.208   3.417   1.436  1.8254  0.0419 -0.9468
 9341TIP3   OH249437   2.767   2.460  10.752 -0.3819 -0.4322 -1.0913
 9341TIP3    H149438   2.735   2.481  10.664  1.6510  1.5883 -1.4155
 9341TIP3    H249439   2.832   2.391  10.739 -0.3090 -0.3544 -1.1396
 9342TIP3   OH249440   1.843   3.174   2.060  0.5299  0.2296 -0.1806
 9342TIP3    H149441   1.758   3.216   2.076  0.1443 -0.2029 -1.0390
 9342TIP3    H249442   1.878   3.157   2.147  0.2168  1.3854  0.1808
 9343TIP3   OH249443   1.806   2.760   1.088 -0.0172  0.2051  0.2445
 9343TIP3    H149444   1.801   2.717   1.003  1.4303  0.7074 -0.1177
 9343TIP3    H249445   1.779   2.694   1.151 -2.9217  0.3953 -0.7665
 9344TIP3   OH249446   5.756   5.741  15.281 -0.4015 -0.0011  0.0841
 9344TIP3    H149447   5.770   5.772  15.370  0.8773  2.0047 -0.7901
 9344TIP3    H249448   5.778   5.648  15.284 -1.3146 -0.1797  2.0546
 9345TIP3   OH249449   0.831   5.855   4.706  0.2562  0.2699  0.3462
 9345TIP3    H149450   0.775   5.811   4.770 -0.1149  0.2874  0.0324
 9345TIP3    H249451   0.794   5.942   4.697 -0.1443  0.0242 -0.4555
 9346TIP3   OH249452   5.337   4.682   4.094 -0.0651 -0.5079  0.2880
 9346TIP3    H149453   5.302   4.617   4.155 -1.5914 -0.7641 -0.8140
 9346TIP3    H249454   5.327   4.641   4.008  2.3464 -0.2830 -0.1396
 9347TIP3   OH249455   2.462   5.536   0.190  0.1556 -0.0799 -0.3728
 9347TIP3    H149456   2.532   5.475   0.213  1.2394  0.4351 -2.2205
 9347TIP3    H249457   2.448   5.522   0.096 -3.3108 -1.3038  0.2161
 9348TIP3   OH249458   4.738   4.020  12.017 -0.3720 -0.5380  0.6911
 9348TIP3    H149459   4.677   4.053  12.083 -1.7762 -2.1765  0.2435
 9348TIP3    H249460   4.714   4.066  11.937 -1.8921 -2.1657  0.2159
 9349TIP3   OH249461   4.677   0.836  10.994  0.3033  0.5748  0.2937
 9349TIP3    H149462   4.750   0.892  10.965  1.1102 -0.1011  0.9747
 9349TIP3    H249463   4.598   0.882  10.964  1.0473  0.7062 -1.4930
 9350TIP3   OH249464   0.765   1.060  15.723 -0.4882 -0.4223  0.2254
 9350TIP3    H149465   0.738   1.037  15.634 -1.1904 -0.6540  0.4914
 9350TIP3    H249466   0.750   0.980  15.774 -0.3211 -0.2175  0.5970
 9351TIP3   OH249467   5.283   1.061   6.084 -0.2046  0.3198 -0.2257
 9351TIP3    H149468   5.277   1.148   6.045 -1.5105  0.2431 -0.1984
 9351TIP3    H249469   5.284   1.077   6.178 -2.1168  0.2125 -0.1821
 9352TIP3   OH249470   1.602   1.123  15.076 -0.1840  0.2025 -0.0086
 9352TIP3    H149471   1.696   1.107  15.069 -0.0554  1.0995 -0.4112
 9352TIP3    H249472   1.595   1.214  15.104 -0.9554  0.7700 -1.9768
 9353TIP3   OH249473   4.958   6.316  16.804 -0.0135  0.0651 -0.1437
 9353TIP3    H149474   5.036   6.369  16.796 -0.1489  0.1743 -0.8354
 9353TIP3    H249475   4.895   6.357  16.745  0.3036 -1.5989 -1.7001
 9354TIP3   OH249476   5.571   5.243   0.186  0.1031  0.6398 -0.2328
 9354TIP3    H149477   5.549   5.332   0.156  0.8921  0.9137 -0.0172
 9354TIP3    H249478   5.665   5.248   0.207 -0.0980  0.0544  0.8289
 9355TIP3   OH249479   3.492   5.908   3.775  0.3656  1.0409 -0.0298
 9355TIP3    H149480   3.485   5.999   3.746 -0.5197  1.2166  0.7093
 9355TIP3    H249481   3.418   5.896   3.834  1.2390  0.2192  0.9054
 9356TIP3   OH249482   1.374   2.523  17.040 -0.1468 -0.2423  0.0203
 9356TIP3    H149483   1.434   2.519  17.114  0.3903 -0.0812 -0.4048
 9356TIP3    H249484   1.429   2.543  16.965 -0.6034 -1.0421 -0.5337
 9357TIP3   OH249485   4.093   5.593  13.599 -0.2994  0.8194 -0.8367
 9357TIP3    H149486   4.054   5.671  13.638  3.3245  1.3765  1.9913
 9357TIP3    H249487   4.063   5.520  13.655 -2.2393  0.3642 -2.4117
 9358TIP3   OH249488   1.755   5.186   0.265  0.1134 -0.2825 -0.0650
 9358TIP3    H149489   1.726   5.182   0.174  1.4075  1.5611 -0.5918
 9358TIP3    H249490   1.768   5.280   0.282  2.8496 -0.7949  1.0298
 9359TIP3   OH249491   6.406   0.776   5.176 -0.3267 -0.7549 -0.0604
 9359TIP3    H149492   6.340   0.842   5.197 -0.5599 -1.3138  1.0332
 9359TIP3    H249493   6.364   0.693   5.196  0.4449 -1.1566 -0.0720
 9360TIP3   OH249494   4.100   2.559   4.580  0.6112  0.1634 -0.1846
 9360TIP3    H149495   4.168   2.499   4.610  1.2046  0.1700 -1.4945
 9360TIP3    H249496   4.103   2.632   4.643 -0.8285 -1.6172  2.0228
 9361TIP3   OH249497   2.077   4.280   1.277  0.6175 -0.0938  0.4797
 9361TIP3    H149498   2.115   4.361   1.310  2.8180 -0.1576 -1.7815
 9361TIP3    H249499   2.148   4.237   1.230 -0.8323 -2.7935  0.6373
 9362TIP3   OH249500   6.109   2.084  10.725 -0.2093  0.2697  0.1411
 9362TIP3    H149501   6.130   2.009  10.671 -0.2801  0.0760  0.3822
 9362TIP3    H249502   6.015   2.077  10.741 -0.0235 -0.2099  1.0922
 9363TIP3   OH249503   5.272   2.655  11.646 -0.1401 -0.1006  0.1354
 9363TIP3    H149504   5.302   2.629  11.559 -1.8850 -1.9217  0.0295
 9363TIP3    H249505   5.195   2.600  11.662 -0.3315  0.7899  2.4922
 9364TIP3   OH249506   0.596   0.662   2.818  0.3856 -0.5434 -0.5489
 9364TIP3    H149507   0.523   0.709   2.858  0.0559 -1.1689 -0.4124
 9364TIP3    H249508   0.559   0.623   2.739  0.5729 -0.8560 -0.4841
 9365TIP3   OH249509   3.803   3.920  16.328  0.0462 -0.1240  0.5406
 9365TIP3    H149510   3.762   3.952  16.408 -2.9548  0.3800 -1.1293
 9365TIP3    H249511   3.822   3.999  16.277 -2.1725 -0.6490 -1.1457
 9366TIP3   OH249512   4.632   2.241  14.512  0.3849 -0.6801 -0.0973
 9366TIP3    H149513   4.574   2.253  14.587  2.3475 -1.3436  1.5669
 9366TIP3    H249514   4.664   2.152  14.520  1.6545 -0.3200 -0.9908
 9367TIP3   OH249515   2.079   0.918  12.655  0.4416 -0.3430 -0.3834
 9367TIP3    H149516   2.001   0.908  12.710 -1.0650 -0.3862 -2.4639
 9367TIP3    H249517   2.147   0.869  12.701  0.0107  2.0098  2.8989
 9368TIP3   OH249518   6.115   0.376  15.097 -0.2738 -0.4397 -0.3401
 9368TIP3    H149519   6.094   0.465  15.127 -1.1687 -1.4410  2.1778
 9368TIP3    H249520   6.202   0.384  15.058 -0.5024  1.6173 -0.4665
 9369TIP3   OH249521   2.986   1.186   0.268  0.4076  0.0128  0.3258
 9369TIP3    H149522   2.976   1.222   0.180  0.5525  4.0203  1.8163
 9369TIP3    H249523   3.073   1.148   0.269  0.9985  1.2936 -0.8643
 9370TIP3   OH249524   3.532   5.265   2.908  0.0320 -0.1592  0.4905
 9370TIP3    H149525   3.595   5.229   2.846 -0.4191  0.8405 -0.5574
 9370TIP3    H249526   3.579   5.338   2.949  0.3040 -0.7724  1.2934
 9371TIP3   OH249527   6.632   4.237  11.246  0.2691 -0.0884 -0.0736
 9371TIP3    H149528   6.688   4.306  11.282  1.2356 -1.6120  1.4136
 9371TIP3    H249529   6.545   4.258  11.279  0.7593 -0.2146  1.3381
 9372TIP3   OH249530   5.226   5.685   4.558  0.4554 -0.4610  0.4147
 9372TIP3    H149531   5.240   5.609   4.501  1.2267  0.2789 -0.3948
 9372TIP3    H249532   5.144   5.723   4.528  1.0634  0.1583 -0.4673
 9373TIP3   OH249533   4.216   5.551   3.100 -0.4311 -0.3579  0.0667
 9373TIP3    H149534   4.138   5.533   3.154 -1.0511 -2.0250 -1.3120
 9373TIP3    H249535   4.183   5.606   3.029 -0.1759 -0.3888 -0.0734
 9374TIP3   OH249536   6.384   6.475   6.224 -0.0464 -0.6672 -0.4618
 9374TIP3    H149537   6.375   6.559   6.180 -0.6968  0.0599  1.0321
 9374TIP3    H249538   6.478   6.466   6.240 -0.1100  0.3589  0.4971
 9375TIP3   OH249539   0.232   2.111  11.123 -0.0050  0.2221  0.1196
 9375TIP3    H149540   0.308   2.138  11.176 -0.6763  0.3794  1.0062
 9375TIP3    H249541   0.263   2.033  11.076  0.4387 -0.2167  1.1273
 9376TIP3   OH249542   6.312   5.167  15.856  0.0289 -0.0846 -0.5846
 9376TIP3    H149543   6.262   5.215  15.922 -1.3235  0.0765 -1.6963
 9376TIP3    H249544   6.249   5.105  15.818  0.3453  0.8712 -2.7679
 9377TIP3   OH249545   4.118   0.410   4.541  0.2637 -0.1451 -0.3100
 9377TIP3    H149546   4.109   0.426   4.635 -0.0173  1.5856 -0.6164
 9377TIP3    H249547   4.195   0.354   4.534 -0.6702 -1.6420  1.0774
 9378TIP3   OH249548   5.896   3.449  12.259  0.0510 -0.2769  0.2275
 9378TIP3    H149549   5.833   3.520  12.272 -1.2770 -0.9648 -2.0767
 9378TIP3    H249550   5.951   3.479  12.186  1.1267 -0.5456  0.9146
 9379TIP3   OH249551   0.364   0.773   5.423 -0.7914 -0.3626 -0.0388
 9379TIP3    H149552   0.390   0.695   5.470  1.7594  0.6353  0.3115
 9379TIP3    H249553   0.422   0.775   5.346  0.3798  2.0138  0.8378
 9380TIP3   OH249554   0.695   6.191  12.632  0.6584 -0.2488  0.3010
 9380TIP3    H149555   0.776   6.146  12.655  0.1390 -1.0339  0.6459
 9380TIP3    H249556   0.702   6.207  12.538  0.0805 -2.7177 -0.2109
 9381TIP3   OH249557   4.000   4.864  11.314 -0.0076  0.1895 -0.3119
 9381TIP3    H149558   3.938   4.934  11.336  0.2575  0.0036  1.0714
 9381TIP3    H249559   3.983   4.846  11.221  0.3281  2.4753 -0.8518
 9382TIP3   OH249560   0.577   6.294   0.117 -0.1986  0.3855 -0.1984
 9382TIP3    H149561   0.635   6.220   0.130 -0.1575  0.4850  0.1748
 9382TIP3    H249562   0.505   6.280   0.179 -0.0026  0.8527  0.1329
 9383TIP3   OH249563   3.801   3.096  12.154  0.0676 -0.1448  0.6104
 9383TIP3    H149564   3.835   3.044  12.227  1.1606 -0.0868  0.1611
 9383TIP3    H249565   3.742   3.037  12.107 -0.3802 -0.2863  1.3586
 9384TIP3   OH249566   2.274   2.904  13.612 -0.2654  0.3110 -0.3575
 9384TIP3    H149567   2.199   2.963  13.606  0.1097  0.8665  0.3104
 9384TIP3    H249568   2.272   2.853  13.531  0.3200  2.3419 -1.6724
 9385TIP3   OH249569   0.293   0.304  15.426  0.0072  1.0270 -0.1307
 9385TIP3    H149570   0.243   0.355  15.491 -2.1773 -0.6198 -0.4692
 9385TIP3    H249571   0.226   0.261  15.373  1.7840  1.3211 -2.6939
 9386TIP3   OH249572   5.150   3.338  12.059  0.4351 -1.0973  0.1491
 9386TIP3    H149573   5.092   3.291  12.119 -1.6261  1.1101 -0.0512
 9386TIP3    H249574   5.143   3.429  12.087 -0.1687 -0.0976 -3.1414
 9387TIP3   OH249575   4.466   1.739  12.401 -0.5252  0.3027  0.6757
 9387TIP3    H149576   4.405   1.689  12.454 -1.1550  1.2488  0.8715
 9387TIP3    H249577   4.422   1.748  12.316 -0.8014  1.2388  0.9076
 9388TIP3   OH249578   3.710   2.056  12.743 -0.3360  0.2598 -0.0436
 9388TIP3    H149579   3.655   2.124  12.705  1.6629  1.6237 -0.5748
 9388TIP3    H249580   3.679   2.048  12.834 -1.0842  1.3306 -0.2015
 9389TIP3   OH249581   5.266   0.310   4.059 -0.4198 -0.1894  0.5241
 9389TIP3    H149582   5.192   0.371   4.068  0.3497  0.6231  1.5063
 9389TIP3    H249583   5.304   0.332   3.974 -0.1348  0.7393  0.8811
 9390TIP3   OH249584   0.896   5.431  13.320 -0.3617  0.8737 -0.1718
 9390TIP3    H149585   0.842   5.376  13.263 -1.1912  1.3844  0.1021
 9390TIP3    H249586   0.885   5.394  13.407  3.4295 -1.8595 -0.7445
 9391TIP3   OH249587   4.799   0.895  15.802  0.5558 -0.1577 -0.0068
 9391TIP3    H149588   4.721   0.913  15.854  1.5372 -0.2682  1.5399
 9391TIP3    H249589   4.777   0.924  15.714 -0.9280  0.6063  0.6082
 9392TIP3   OH249590   6.029   2.801   3.621 -0.1008  0.2037  0.3267
 9392TIP3    H149591   6.092   2.858   3.576 -0.0609 -1.7403 -2.1763
 9392TIP3    H249592   5.952   2.856   3.634  0.4187  1.2333 -0.8009
 9393TIP3   OH249593   4.249   1.002   3.107 -0.4413 -0.6744  0.0157
 9393TIP3    H149594   4.215   1.058   3.177 -1.0249 -0.0589 -0.7536
 9393TIP3    H249595   4.312   0.945   3.151  1.5621  1.8204  0.5036
 9394TIP3   OH249596   1.745   2.350   4.704 -0.4769  0.0867  0.1200
 9394TIP3    H149597   1.668   2.344   4.760 -0.1919  0.9707  0.6025
 9394TIP3    H249598   1.809   2.292   4.745 -1.0565 -1.0795 -0.5829
 9395TIP3   OH249599   2.565   5.802   0.170  0.4438  0.4342  0.0164
 9395TIP3    H149600   2.533   5.715   0.195  0.2127  0.7302  0.7630
 9395TIP3    H249601   2.582   5.795   0.076  1.1228 -0.6344  0.2105
 9396TIP3   OH249602   4.657   6.702   1.593 -0.2977  0.2573 -0.0824
 9396TIP3    H149603   4.631   6.610   1.607 -1.6580  0.5527 -0.5704
 9396TIP3    H249604   4.614   6.727   1.511 -0.4934  1.5268  0.3958
 9397TIP3   OH249605   2.276   3.519   1.709 -0.0445 -0.4046  0.9165
 9397TIP3    H149606   2.314   3.481   1.630  1.6225 -0.4750  1.7283
 9397TIP3    H249607   2.246   3.606   1.683  0.1999 -0.5534  0.1373
 9398TIP3   OH249608   1.112   4.288  16.033  0.4718 -0.4737  0.1508
 9398TIP3    H149609   1.025   4.291  15.992 -0.6478 -0.4560  2.4466
 9398TIP3    H249610   1.173   4.286  15.960 -1.4318  0.5801 -1.5044
 9399TIP3   OH249611   5.528   6.618   0.389  0.0178  0.6046 -0.0750
 9399TIP3    H149612   5.496   6.678   0.322  0.9690  2.8148  1.3903
 9399TIP3    H249613   5.617   6.648   0.408  1.2509 -2.4996 -0.7000
 9400TIP3   OH249614   1.827   1.302  16.952  0.1476  0.2265  0.1997
 9400TIP3    H149615   1.869   1.374  17.000  1.7915 -0.5698 -0.0337
 9400TIP3    H249616   1.838   1.325  16.860 -2.7855  1.6245  0.1307
 9401TIP3   OH249617   4.877   3.983   4.923  0.1703  0.1452 -0.6462
 9401TIP3    H149618   4.852   3.891   4.932 -0.0406  0.1977 -0.7123
 9401TIP3    H249619   4.895   3.994   4.830  1.1836 -0.0881 -0.4867
 9402TIP3   OH249620   1.211   3.615  15.926 -0.1715 -0.1287 -0.5510
 9402TIP3    H149621   1.268   3.648  15.995 -0.7143 -0.5700  0.1185
 9402TIP3    H249622   1.172   3.693  15.888  1.2405  0.2075 -1.3421
 9403TIP3   OH249623   5.186   3.551   5.032 -0.3416 -0.5259  0.1266
 9403TIP3    H149624   5.270   3.561   4.987  0.0058  0.1923  0.9207
 9403TIP3    H249625   5.132   3.621   4.997 -0.4840 -0.7609 -0.1175
 9404TIP3   OH249626   1.614   5.251   5.982 -0.8723  0.0741 -0.2373
 9404TIP3    H149627   1.642   5.303   6.057  1.5469  0.3287 -1.2721
 9404TIP3    H249628   1.642   5.162   6.003 -2.8277 -0.4250  0.4309
 9405TIP3   OH249629   0.241   6.353  16.785  0.4115 -0.7013 -0.3907
 9405TIP3    H149630   0.207   6.268  16.758 -0.7219 -0.1381 -0.7789
 9405TIP3    H249631   0.332   6.353  16.755  1.2394 -2.8242  2.0288
 9406TIP3   OH249632   4.703   5.694  12.506 -0.1688  0.1497 -0.5828
 9406TIP3    H149633   4.671   5.762  12.565  2.5761 -0.5472  1.8158
 9406TIP3    H249634   4.696   5.733  12.419  2.3833  4.0673  0.7991
 9407TIP3   OH249635   6.191   0.630  16.287  0.5015 -0.3661  0.8790
 9407TIP3    H149636   6.235   0.678  16.357  0.2213 -0.0983  0.8698
 9407TIP3    H249637   6.134   0.694  16.245  0.0162 -0.7391  0.9609
 9408TIP3   OH249638   5.610   2.573  13.476  0.4822 -0.7806 -0.9510
 9408TIP3    H149639   5.664   2.603  13.550 -0.8437  1.3189 -0.7951
 9408TIP3    H249640   5.672   2.568  13.403  1.5944 -1.8503  0.0234
 9409TIP3   OH249641   5.034   2.378  15.706 -0.2257 -0.0974  0.7566
 9409TIP3    H149642   5.007   2.343  15.790 -0.3501 -0.3682  0.6039
 9409TIP3    H249643   5.077   2.305  15.662 -0.1990  0.0301  0.5690
 9410TIP3   OH249644   5.154   1.770  15.437 -0.2497  0.4548 -0.3591
 9410TIP3    H149645   5.152   1.692  15.492 -0.6626  2.6802  2.9529
 9410TIP3    H249646   5.239   1.766  15.393 -0.0465 -1.5785  0.1697
 9411TIP3   OH249647   0.251   0.884   2.644  0.3431  0.2116  0.0391
 9411TIP3    H149648   0.249   0.844   2.731  0.3821  2.2909  1.0238
 9411TIP3    H249649   0.344   0.897   2.625  0.3214  0.0490 -0.1800
 9412TIP3   OH249650   1.519   1.840   4.604 -0.2112  0.0682 -0.3103
 9412TIP3    H149651   1.538   1.923   4.647 -3.9043  0.6311  0.4221
 9412TIP3    H249652   1.485   1.865   4.518  2.1059 -0.8672 -1.5399
 9413TIP3   OH249653   1.465   4.742  11.702  0.7577 -0.3342  0.9760
 9413TIP3    H149654   1.531   4.673  11.697  0.3951 -0.5911 -0.3184
 9413TIP3    H249655   1.405   4.724  11.630 -0.1648  0.4897  1.5222
 9414TIP3   OH249656   1.061   5.342  11.326  0.3050 -0.5826  0.0300
 9414TIP3    H149657   0.980   5.394  11.320  1.3548  0.9445 -1.2856
 9414TIP3    H249658   1.035   5.254  11.298 -0.8991 -0.0966 -0.4274
 9415TIP3   OH249659   0.084   6.245   4.086 -0.3032 -0.6392 -0.1020
 9415TIP3    H149660   0.042   6.302   4.150 -0.1909 -1.4313  0.6783
 9415TIP3    H249661   0.035   6.262   4.005  0.4712  1.4228 -0.1857
 9416TIP3   OH249662   6.459   3.250  13.264 -0.4106 -0.2660  0.3501
 9416TIP3    H149663   6.510   3.213  13.192  0.1546 -0.6585  0.9381
 9416TIP3    H249664   6.505   3.220  13.343 -2.3806 -1.8442  0.9441
 9417TIP3   OH249665   1.535   3.979   0.756 -0.1663 -0.3534 -0.2614
 9417TIP3    H149666   1.551   4.056   0.810 -0.4718 -1.4048  1.3353
 9417TIP3    H249667   1.622   3.946   0.734 -0.0350  0.3751 -0.8792
 9418TIP3   OH249668   2.073   2.276  15.800  0.6319  0.0092  0.3910
 9418TIP3    H149669   2.088   2.364  15.764 -1.1859 -0.5696 -1.9398
 9418TIP3    H249670   1.992   2.285  15.852 -0.2017 -0.5142 -0.7957
 9419TIP3   OH249671   4.970   3.050  16.106 -0.0049  0.0336 -0.2349
 9419TIP3    H149672   5.016   3.055  16.022 -1.6271  2.2171 -1.0393
 9419TIP3    H249673   5.020   3.106  16.165  0.3027 -0.3371 -0.1412
 9420TIP3   OH249674   3.326   5.023   2.588 -0.5678 -0.1056 -0.4023
 9420TIP3    H149675   3.361   5.111   2.600 -1.0040 -0.2665  2.1879
 9420TIP3    H249676   3.401   4.971   2.560  0.0698  0.7185 -0.2437
 9421TIP3   OH249677   2.092   2.604   1.119  0.1357 -0.4439 -0.4212
 9421TIP3    H149678   2.038   2.682   1.132  0.1761 -0.4261 -0.3593
 9421TIP3    H249679   2.114   2.605   1.026  0.0773 -0.4198 -0.4346
 9422TIP3   OH249680   5.491   6.201  14.195  0.1855 -0.1736 -0.1753
 9422TIP3    H149681   5.461   6.141  14.264 -1.7193  3.5617  2.4107
 9422TIP3    H249682   5.586   6.208  14.210  0.1212 -1.0115  0.7155
 9423TIP3   OH249683   5.952   4.584   5.288 -0.5858  0.3358 -0.2604
 9423TIP3    H149684   5.933   4.594   5.381  0.3732  0.2863 -0.0608
 9423TIP3    H249685   5.870   4.608   5.244 -0.5216  1.9662  0.5103
 9424TIP3   OH249686   5.729   2.566  13.216 -0.0813  0.0734  0.7482
 9424TIP3    H149687   5.820   2.545  13.197 -0.5857 -0.4858 -1.0871
 9424TIP3    H249688   5.717   2.654  13.180 -0.4563 -0.1322  0.3684
 9425TIP3   OH249689   4.639   5.536  13.094  0.7466  0.6052  0.1889
 9425TIP3    H149690   4.610   5.604  13.034 -2.6489  0.1159  1.1662
 9425TIP3    H249691   4.600   5.560  13.178  1.4487 -1.3001  1.0984
 9426TIP3   OH249692   2.831   5.117  15.233 -0.2248  0.1152  0.5884
 9426TIP3    H149693   2.906   5.079  15.187  0.2086  0.0172  1.3620
 9426TIP3    H249694   2.820   5.203  15.194 -0.6799 -0.4708 -0.5898
 9427TIP3   OH249695   0.293   5.235   6.410 -0.1713  0.0287  0.2170
 9427TIP3    H149696   0.369   5.277   6.370 -2.2015  0.3761 -3.5153
 9427TIP3    H249697   0.292   5.146   6.375 -1.1781 -0.1472  0.6582
 9428TIP3   OH249698   2.436   0.798   5.345  0.0242 -0.6392  0.7077
 9428TIP3    H149699   2.353   0.750   5.337 -0.2189 -0.2027  0.5967
 9428TIP3    H249700   2.477   0.762   5.424 -1.3387  0.7345  2.0886
 9429TIP3   OH249701   6.386   2.746   3.977 -0.9826 -0.4846  0.7230
 9429TIP3    H149702   6.430   2.672   4.019 -1.4088 -1.3148 -0.2690
 9429TIP3    H249703   6.368   2.807   4.049 -0.8615 -1.4597  1.5942
 9430TIP3   OH249704   0.771   4.813   3.830  0.0235  0.2330 -0.1911
 9430TIP3    H149705   0.776   4.728   3.787 -1.8595  1.3628 -2.7643
 9430TIP3    H249706   0.687   4.849   3.804  1.1906  3.2984  0.0568
 9431TIP3   OH249707   4.819   4.409   3.687  0.8451 -0.0041 -0.5883
 9431TIP3    H149708   4.871   4.481   3.650  2.2107 -1.1468 -0.9072
 9431TIP3    H249709   4.728   4.436   3.672  1.3439  1.6931 -0.6381
 9432TIP3   OH249710   4.918   3.969   4.233 -0.0042 -0.1224 -0.0095
 9432TIP3    H149711   4.843   3.981   4.291 -0.2311 -0.7063 -0.1837
 9432TIP3    H249712   4.943   4.058   4.208  0.3236  0.1571  1.2721
 9433TIP3   OH249713   4.161   5.841  11.677  0.3802 -0.4240  0.1337
 9433TIP3    H149714   4.160   5.865  11.585 -1.0861 -0.2703  0.1875
 9433TIP3    H249715   4.110   5.910  11.720  1.1497 -0.4295  1.0857
 9434TIP3   OH249716   1.881   1.471   6.584 -0.3266 -0.0904  0.3528
 9434TIP3    H149717   1.857   1.563   6.593  1.4586  0.3301  0.9792
 9434TIP3    H249718   1.800   1.423   6.602 -0.9926  1.3229  1.1922
 9435TIP3   OH249719   6.354   1.772  16.097 -0.0577  0.0504 -0.1338
 9435TIP3    H149720   6.429   1.832  16.089 -0.3967  0.9424  2.6778
 9435TIP3    H249721   6.383   1.705  16.158 -0.8165 -0.8350 -0.7281
 9436TIP3   OH249722   6.007   1.773   1.237  0.3666  0.5360 -0.1275
 9436TIP3    H149723   5.984   1.772   1.144 -0.0417  0.9807 -0.0284
 9436TIP3    H249724   5.964   1.850   1.272  0.8580  0.5958  0.3524
 9437TIP3   OH249725   1.945   1.639  15.364 -0.1711  0.2203 -0.1702
 9437TIP3    H149726   1.869   1.683  15.326 -0.2424 -0.2178 -0.5411
 9437TIP3    H249727   1.937   1.654  15.458 -0.3199  0.7969 -0.2740
 9438TIP3   OH249728   6.109   3.457  13.587 -0.4856  0.1386 -0.7234
 9438TIP3    H149729   6.175   3.441  13.520 -0.3035  0.9665 -0.7432
 9438TIP3    H249730   6.101   3.552  13.591 -0.4155  0.1049  0.5028
 9439TIP3   OH249731   2.077   2.336  16.987  0.5684  0.1580 -0.2026
 9439TIP3    H149732   2.111   2.376  16.907  0.6453  0.9471  0.2199
 9439TIP3    H249733   2.075   2.242  16.968 -0.9856  0.4670 -1.7260
 9440TIP3   OH249734   2.282   2.090  15.744  0.2975 -0.0414 -0.1868
 9440TIP3    H149735   2.322   2.127  15.664 -0.4110 -0.3351 -0.6772
 9440TIP3    H249736   2.222   2.158  15.774  0.4356 -0.0030  0.0043
 9441TIP3   OH249737   0.283   1.479  14.468  0.0797 -0.0270 -0.0728
 9441TIP3    H149738   0.287   1.383  14.473  0.7045  0.0514  1.0290
 9441TIP3    H249739   0.194   1.497  14.437 -0.0751 -0.9594 -0.1946
 9442TIP3   OH249740   0.845   6.054   5.198  0.3411  0.2613  0.2675
 9442TIP3    H149741   0.896   6.076   5.276  0.6736  0.9506 -0.1346
 9442TIP3    H249742   0.773   6.001   5.230 -0.1692  1.5043  1.2146
 9443TIP3   OH249743   2.282   4.270   5.591  0.3354 -0.1690 -0.6220
 9443TIP3    H149744   2.281   4.319   5.509 -0.9823  0.9995  0.0626
 9443TIP3    H249745   2.189   4.257   5.611  0.6561 -2.2002 -0.3325
 9444TIP3   OH249746   3.133   5.257   1.132 -0.2324 -0.3473 -0.0337
 9444TIP3    H149747   3.112   5.350   1.136  0.5445 -0.1655 -0.1614
 9444TIP3    H249748   3.062   5.219   1.080  0.2484  0.4121 -1.2613
 9445TIP3   OH249749   1.983   3.958   4.450 -0.4598  0.4717 -0.7050
 9445TIP3    H149750   2.047   3.906   4.401  1.8344  1.6485  0.9874
 9445TIP3    H249751   1.922   3.989   4.383  1.3620  0.2514 -2.5245
 9446TIP3   OH249752   6.537   1.888  11.407 -0.0228 -0.6781  0.5019
 9446TIP3    H149753   6.481   1.811  11.412  0.3127 -0.9672 -0.1276
 9446TIP3    H249754   6.518   1.926  11.321  1.2376 -1.1590  0.0026
 9447TIP3   OH249755   0.828   0.382  15.159  0.0567 -0.4077  0.1770
 9447TIP3    H149756   0.879   0.453  15.119 -1.4727  0.6913  0.1019
 9447TIP3    H249757   0.740   0.394  15.124  0.1802 -3.5587 -1.3624
 9448TIP3   OH249758   1.985   0.489   3.793 -0.0052  0.0769  0.0434
 9448TIP3    H149759   2.060   0.548   3.806 -0.0665 -0.2217  1.8962
 9448TIP3    H249760   1.949   0.476   3.881 -0.4451 -2.1388 -0.4239
 9449TIP3   OH249761   6.449   1.495  16.352 -0.1942 -0.3666  0.4296
 9449TIP3    H149762   6.356   1.474  16.361 -1.1212  2.4270 -1.9263
 9449TIP3    H249763   6.475   1.526  16.439 -1.6530 -0.5152  0.9280
 9450TIP3   OH249764   0.874   2.588  13.060  0.0076 -0.2129  0.4148
 9450TIP3    H149765   0.930   2.510  13.056  0.0403 -0.2663  1.7680
 9450TIP3    H249766   0.903   2.634  13.139 -0.1104  1.0991 -0.2951
 9451TIP3   OH249767   5.192   4.761   3.621  0.1725 -0.4447  0.1198
 9451TIP3    H149768   5.139   4.816   3.679  0.7465 -0.4890  0.7092
 9451TIP3    H249769   5.219   4.688   3.677 -0.3099 -1.1453 -0.5676
 9452TIP3   OH249770   4.016   1.521  14.900  0.1118  0.4731  0.1265
 9452TIP3    H149771   3.923   1.501  14.908  0.2504 -0.7395 -1.0467
 9452TIP3    H249772   4.060   1.447  14.941  0.5906 -0.1565 -1.4800
 9453TIP3   OH249773   1.839   3.418  11.370 -0.0606 -0.6545  0.1799
 9453TIP3    H149774   1.894   3.347  11.338 -0.0008 -0.7685  0.5287
 9453TIP3    H249775   1.865   3.494  11.317  1.9640 -0.1871  1.7452
 9454TIP3   OH249776   3.776   3.754   1.681  0.3640 -0.5722 -0.4135
 9454TIP3    H149777   3.772   3.706   1.598 -0.8733 -2.6798  0.8264
 9454TIP3    H249778   3.697   3.808   1.682 -0.9223 -2.4330  0.4821
 9455TIP3   OH249779   2.149   1.629   2.208  0.1918 -0.0339  0.3162
 9455TIP3    H149780   2.141   1.543   2.166  0.0145  0.1168  0.0409
 9455TIP3    H249781   2.060   1.651   2.235  0.0823  0.4981 -0.4732
 9456TIP3   OH249782   6.462   4.592   4.288 -0.0903 -0.3587  0.6765
 9456TIP3    H149783   6.552   4.565   4.266  0.3177  0.5044  1.2950
 9456TIP3    H249784   6.412   4.510   4.286  0.2871 -0.5820 -1.6949
 9457TIP3   OH249785   0.137   5.870  10.890  0.2973  0.1192  0.1837
 9457TIP3    H149786   0.142   5.960  10.858  1.5611 -0.1177 -0.3286
 9457TIP3    H249787   0.068   5.829  10.838  2.5110 -0.3406 -2.4949
 9458TIP3   OH249788   3.193   2.022  17.096  0.1517 -0.1212  0.2000
 9458TIP3    H149789   3.274   2.033  17.144  0.2281 -1.6062  0.4358
 9458TIP3    H249790   3.127   2.005  17.163 -0.1004 -0.2273 -0.0713
 9459TIP3   OH249791   4.615   2.768  16.817 -0.0032  0.7855  0.0376
 9459TIP3    H149792   4.521   2.761  16.798  0.2773  0.1032 -1.1484
 9459TIP3    H249793   4.640   2.853  16.781 -0.3541  1.3847  1.1932
 9460TIP3   OH249794   3.426   6.131  12.321  0.4097  0.0324  0.1303
 9460TIP3    H149795   3.499   6.180  12.360 -0.0818  0.1928  0.8471
 9460TIP3    H249796   3.382   6.090  12.395 -1.7775  2.0168 -0.0101
 9461TIP3   OH249797   3.191   3.798  13.968 -0.5292 -0.1470 -0.0329
 9461TIP3    H149798   3.287   3.793  13.965 -0.4946  1.0329 -2.4843
 9461TIP3    H249799   3.162   3.719  13.923 -0.6540  0.3154 -0.7820
 9462TIP3   OH249800   0.038   3.760  14.451 -0.3228  0.2252  0.3205
 9462TIP3    H149801  -0.006   3.820  14.512 -0.8044 -1.4365  1.6368
 9462TIP3    H249802   0.086   3.699  14.506  0.3088 -0.5137 -1.0065
 9463TIP3   OH249803   6.137   0.230  14.788 -0.3204 -0.8161 -0.7233
 9463TIP3    H149804   6.217   0.177  14.781 -0.3058 -0.5775 -2.5119
 9463TIP3    H249805   6.167   0.314  14.822  0.3403 -0.4098 -2.2841
 9464TIP3   OH249806   2.986   4.067   4.693  0.9656  0.0400 -0.0699
 9464TIP3    H149807   2.893   4.077   4.674  1.4728  1.2731 -2.0814
 9464TIP3    H249808   2.989   4.029   4.781 -1.4120  0.5291  0.2480
 9465TIP3   OH249809   2.538   5.408   4.412 -0.1902 -0.0731  0.0604
 9465TIP3    H149810   2.605   5.432   4.348 -2.3533  1.3018 -1.7547
 9465TIP3    H249811   2.512   5.490   4.453 -0.9925 -0.5460  0.5299
 9466TIP3   OH249812   1.498   1.148   6.131 -0.4450 -0.0488 -0.5131
 9466TIP3    H149813   1.534   1.144   6.220  0.6264 -0.7053 -0.9652
 9466TIP3    H249814   1.407   1.174   6.143 -1.0188 -2.5232  0.9658
 9467TIP3   OH249815   4.998   6.147   4.315  0.3536  0.1151 -0.0244
 9467TIP3    H149816   4.910   6.155   4.277 -0.1031 -3.1876  0.2516
 9467TIP3    H249817   5.053   6.202   4.258 -1.2835 -0.4647 -2.2393
 9468TIP3   OH249818   0.580   2.913  17.206  0.3243 -0.1295  0.4046
 9468TIP3    H149819   0.519   2.939  17.137  0.7253 -1.3931 -0.4373
 9468TIP3    H249820   0.666   2.940  17.174  0.5292 -0.8605  0.3406
 9469TIP3   OH249821   6.391   0.032   1.316 -0.1286 -0.7301  0.4789
 9469TIP3    H149822   6.480   0.066   1.320 -0.1651 -0.7569  1.8757
 9469TIP3    H249823   6.343   0.083   1.381 -1.1402 -0.6962 -0.2855
 9470TIP3   OH249824   5.164   0.434  16.875 -0.0194  0.2541 -0.8575
 9470TIP3    H149825   5.142   0.355  16.825  0.3132 -0.4868  0.1590
 9470TIP3    H249826   5.240   0.470  16.830  1.6396 -1.6035  0.3655
 9471TIP3   OH249827   2.230   6.318  11.604 -0.7220  0.4302 -0.7433
 9471TIP3    H149828   2.155   6.377  11.608 -1.6325 -0.5915 -2.1726
 9471TIP3    H249829   2.269   6.323  11.691 -1.4856  2.2075 -0.4769
 9472TIP3   OH249830   3.036   1.196  10.564 -0.1752  0.0977 -0.0797
 9472TIP3    H149831   3.005   1.285  10.583  0.6281  0.1042  1.2529
 9472TIP3    H249832   2.982   1.140  10.619 -1.6681 -0.3904 -1.9805
 9473TIP3   OH249833   2.501   5.279  12.545 -0.2706 -0.7101  0.4468
 9473TIP3    H149834   2.530   5.330  12.621  0.9531 -2.5643  1.2661
 9473TIP3    H249835   2.494   5.343  12.474  0.2659  0.7523  1.6972
 9474TIP3   OH249836   1.635   1.631  16.033  0.0298 -0.2766  0.2528
 9474TIP3    H149837   1.604   1.544  16.010  0.1590 -0.2936  0.1394
 9474TIP3    H249838   1.560   1.688  16.017  0.0690 -0.3112 -0.0555
 9475TIP3   OH249839   3.193   3.291   2.252  0.3526 -0.4343  0.0757
 9475TIP3    H149840   3.153   3.369   2.290 -0.4008 -1.1345  0.7494
 9475TIP3    H249841   3.162   3.290   2.162 -2.6448 -1.8853  1.0262
 9476TIP3   OH249842   1.990   4.354   1.633  0.4072  0.2320 -0.4431
 9476TIP3    H149843   2.048   4.401   1.693 -1.2146  0.9873  0.5766
 9476TIP3    H249844   1.931   4.421   1.600 -0.0813 -0.5793 -1.2469
 9477TIP3   OH249845   1.426   5.257  16.916  0.0609 -0.3117 -0.4729
 9477TIP3    H149846   1.483   5.232  16.843  1.2549 -0.3952  0.4647
 9477TIP3    H249847   1.479   5.318  16.968 -0.2839 -1.2532  1.0202
 9478TIP3   OH249848   0.530   5.876   4.958  0.5328  0.1962  0.3276
 9478TIP3    H149849   0.557   5.952   4.907 -0.4899  0.0038 -0.5330
 9478TIP3    H249850   0.537   5.903   5.049 -1.4259  1.8990  0.0128
 9479TIP3   OH249851   5.389   5.436   6.799 -0.7806 -0.0997 -0.4721
 9479TIP3    H149852   5.299   5.468   6.802 -0.9965 -0.4979 -1.9310
 9479TIP3    H249853   5.404   5.417   6.706  0.1411 -1.9192  0.0265
 9480TIP3   OH249854   3.082   0.793   2.007 -0.0561  0.0258 -0.0446
 9480TIP3    H149855   3.117   0.774   1.920  2.9308 -1.8353  1.4632
 9480TIP3    H249856   3.143   0.858   2.043 -1.6295  1.2601  0.4381
 9481TIP3   OH249857   6.063   3.004   2.892  0.1132  0.1563  0.0043
 9481TIP3    H149858   6.045   3.088   2.851  0.0797 -0.3895 -1.1065
 9481TIP3    H249859   6.126   2.961   2.835  1.0650 -0.0741  1.2012
 9482TIP3   OH249860   2.128   2.532   2.599  0.3922  0.1700 -0.0248
 9482TIP3    H149861   2.154   2.493   2.516 -2.2956 -0.4481 -0.6277
 9482TIP3    H249862   2.096   2.619   2.576  0.2528  0.2501  0.4638
 9483TIP3   OH249863   6.343   3.693   1.178 -0.1243 -0.4119  1.0602
 9483TIP3    H149864   6.319   3.609   1.141  2.1982 -0.9364  0.7011
 9483TIP3    H249865   6.262   3.725   1.219 -1.5836 -1.7830 -0.6968
 9484TIP3   OH249866   6.179   6.507  10.918  0.0819 -0.1382 -0.3136
 9484TIP3    H149867   6.232   6.517  10.839 -1.8758  1.3868 -1.4787
 9484TIP3    H249868   6.145   6.595  10.935  1.5257 -0.1724  3.0187
 9485TIP3   OH249869   4.183   6.660   2.628  0.0377  0.2600 -0.5840
 9485TIP3    H149870   4.115   6.726   2.639  0.5844  0.6849  0.3014
 9485TIP3    H249871   4.239   6.669   2.706  0.2972 -1.0298 -0.5998
 9486TIP3   OH249872   1.667   3.375  14.825  0.1618  0.3215  0.3264
 9486TIP3    H149873   1.703   3.369  14.737 -0.9038  0.9040 -0.1514
 9486TIP3    H249874   1.598   3.308  14.827 -0.1047  0.6026  0.5774
 9487TIP3   OH249875   5.432   2.057   2.674  0.0418 -0.5829 -0.0222
 9487TIP3    H149876   5.352   2.109   2.670 -0.0594 -0.5620  1.7423
 9487TIP3    H249877   5.405   1.974   2.713  0.8056 -0.7044  0.2578
 9488TIP3   OH249878   6.368   2.271  16.914  0.0296  0.3516 -0.0345
 9488TIP3    H149879   6.380   2.207  16.984 -0.0156  1.2614  0.8136
 9488TIP3    H249880   6.389   2.223  16.834 -0.4970 -0.8602  0.5417
 9489TIP3   OH249881   1.202   3.927  16.969  0.4175 -0.1607  0.3422
 9489TIP3    H149882   1.293   3.939  16.942  0.3408 -1.0773 -0.3785
 9489TIP3    H249883   1.158   4.007  16.941  0.4667 -0.8430 -1.7799
 9490TIP3   OH249884   0.411   2.360   2.655  0.0321  0.7733  0.5377
 9490TIP3    H149885   0.503   2.340   2.637 -0.5005 -1.1979 -0.1667
 9490TIP3    H249886   0.394   2.441   2.608  1.7769  1.9459  1.8630
 9491TIP3   OH249887   1.571   2.575   5.175 -0.2578 -0.1507 -0.2339
 9491TIP3    H149888   1.604   2.486   5.162 -0.1890  0.0932 -1.8043
 9491TIP3    H249889   1.483   2.563   5.211 -0.3442 -0.8473 -0.6615
 9492TIP3   OH249890   0.485   6.520  14.355  0.2424 -0.5253  0.9320
 9492TIP3    H149891   0.554   6.524  14.289  0.4177  0.3334  1.1597
 9492TIP3    H249892   0.448   6.432  14.346 -1.0049  0.2030 -1.5728
 9493TIP3   OH249893   5.755   4.635  16.409 -0.0904 -0.5495  0.3376
 9493TIP3    H149894   5.713   4.629  16.495  0.0467  1.1746  0.5378
 9493TIP3    H249895   5.836   4.586  16.419  0.6840  0.9539  1.6908
 9494TIP3   OH249896   2.493   0.918  12.628  0.3692  0.4113 -0.2943
 9494TIP3    H149897   2.420   0.905  12.568 -0.9661  2.1533  0.8925
 9494TIP3    H249898   2.455   0.906  12.715  2.0258 -0.9553  0.2708
 9495TIP3   OH249899   0.267   6.368   1.559 -0.2591  0.1567  0.2750
 9495TIP3    H149900   0.359   6.345   1.573  0.1335  1.5251  0.0553
 9495TIP3    H249901   0.237   6.398   1.645 -0.0015  1.3258 -0.0259
 9496TIP3   OH249902   2.852   3.990  11.714  0.5341  0.0947 -0.1004
 9496TIP3    H149903   2.777   4.049  11.710  0.7025  0.2410 -1.2481
 9496TIP3    H249904   2.867   3.976  11.808 -0.3167  0.8327  0.1489
 9497TIP3   OH249905   0.177   2.703   4.286 -0.7508  0.1840  0.1996
 9497TIP3    H149906   0.267   2.680   4.259 -1.4662  0.6540 -2.7472
 9497TIP3    H249907   0.189   2.772   4.351  1.0669 -0.8765  1.0482
 9498TIP3   OH249908   4.689   1.639  15.013 -0.2381  0.0980 -0.4628
 9498TIP3    H149909   4.684   1.718  14.959 -0.0782  0.5789  0.2041
 9498TIP3    H249910   4.755   1.661  15.080 -0.8552 -0.2663  0.2688
 9499TIP3   OH249911   3.641   6.613  14.016  0.2141  0.1329  0.2635
 9499TIP3    H149912   3.710   6.639  13.955 -0.9258  0.7632 -0.7901
 9499TIP3    H249913   3.631   6.519  14.002  0.1977  0.2128 -0.2784
 9500TIP3   OH249914   2.169   2.755  15.983  0.5590  0.1529  0.5858
 9500TIP3    H149915   2.247   2.800  16.015  0.0755  0.8668  0.7665
 9500TIP3    H249916   2.096   2.808  16.014 -0.0443 -1.1043  1.3545
 9501TIP3   OH249917   2.129   2.932  14.224 -0.5688  0.5965  0.5561
 9501TIP3    H149918   2.116   3.015  14.270  0.0645 -0.0835  1.9873
 9501TIP3    H249919   2.211   2.943  14.176 -0.3507  0.7182  0.9529
 9502TIP3   OH249920   6.472   2.476  17.122 -0.0585 -0.7028 -0.3425
 9502TIP3    H149921   6.480   2.388  17.157 -2.9690 -1.1158 -0.6602
 9502TIP3    H249922   6.540   2.481  17.054  1.6475 -1.8781  1.2155
 9503TIP3   OH249923   1.290   4.283   1.289 -0.3031  0.1213 -0.1369
 9503TIP3    H149924   1.329   4.340   1.355 -1.4419  0.4067  0.3001
 9503TIP3    H249925   1.274   4.340   1.214  1.1807 -0.2473 -0.7422
 9504TIP3   OH249926   3.667   6.021  12.831  0.4272  0.4945 -0.0192
 9504TIP3    H149927   3.646   6.030  12.924 -2.4987  1.7294 -0.7490
 9504TIP3    H249928   3.685   6.110  12.802 -0.7232  0.3991 -1.0694
 9505TIP3   OH249929   5.404   4.630   5.072  0.5555 -0.1490 -0.5214
 9505TIP3    H149930   5.327   4.639   5.016  0.3670 -1.3730 -0.4729
 9505TIP3    H249931   5.477   4.661   5.018 -0.0102  1.3956 -0.4282
 9506TIP3   OH249932   0.361   6.631   2.764  0.4951 -0.6358  0.2674
 9506TIP3    H149933   0.400   6.685   2.832  2.6570  0.0493 -1.4599
 9506TIP3    H249934   0.301   6.690   2.718 -0.5670 -0.9626  1.1850
 9507TIP3   OH249935   0.781   2.285  10.796  0.4999 -0.4492  0.5209
 9507TIP3    H149936   0.781   2.337  10.876  0.9981 -0.1252  0.3128
 9507TIP3    H249937   0.696   2.302  10.756  1.2459  1.4157 -0.3286
 9508TIP3   OH249938   2.381   4.630  15.802  0.0366 -0.1481 -0.1319
 9508TIP3    H149939   2.362   4.663  15.714  1.4777  0.9354 -0.0550
 9508TIP3    H249940   2.406   4.707  15.852 -0.7021 -0.7684  1.2211
 9509TIP3   OH249941   4.876   4.406   3.068 -0.4199 -0.2414  0.3686
 9509TIP3    H149942   4.932   4.410   3.146 -1.4395  0.8539  1.0594
 9509TIP3    H249943   4.901   4.482   3.017  1.4082 -1.8442 -1.2149
 9510TIP3   OH249944   0.862   5.780   4.131  0.1106 -0.0844 -0.4843
 9510TIP3    H149945   0.882   5.776   4.225  2.7664 -1.0531 -1.0268
 9510TIP3    H249946   0.814   5.699   4.114  1.0743 -0.7372 -0.2233
 9511TIP3   OH249947   0.936   3.233   1.152  0.2411 -0.2285 -0.1047
 9511TIP3    H149948   0.966   3.192   1.233  1.3631 -1.8930 -1.3334
 9511TIP3    H249949   0.840   3.235   1.159  0.3770  0.6363  1.7038
 9512TIP3   OH249950   6.239   1.255  15.501  0.7809 -0.3948  0.1542
 9512TIP3    H149951   6.299   1.183  15.483 -0.6478 -1.2492 -1.3232
 9512TIP3    H249952   6.154   1.212  15.514  0.2927  0.8727  1.2403
 9513TIP3   OH249953   2.444   1.044  16.930 -0.1764  0.3154 -0.2208
 9513TIP3    H149954   2.369   1.049  16.870 -0.4888  1.7593  0.2752
 9513TIP3    H249955   2.419   1.099  17.004  0.5451 -0.8085  0.8746
 9514TIP3   OH249956   0.050   4.204  11.886 -0.4770 -0.2739  0.1061
 9514TIP3    H149957  -0.040   4.214  11.917 -0.2429 -0.9670  1.0242
 9514TIP3    H249958   0.044   4.135  11.819 -0.6324 -0.3050  0.1512
 9515TIP3   OH249959   5.878   4.533  12.748  0.2503  0.0016 -0.3760
 9515TIP3    H149960   5.910   4.504  12.833  0.0842 -1.8072 -0.9044
 9515TIP3    H249961   5.941   4.496  12.685 -0.8089 -0.4500 -1.1772
 9516TIP3   OH249962   0.753   4.088  13.100 -0.6131  0.1034  0.1538
 9516TIP3    H149963   0.663   4.117  13.087 -1.1834 -0.4662  2.5006
 9516TIP3    H249964   0.797   4.162  13.141 -0.1448  0.2134 -0.5489
 9517TIP3   OH249965   1.528   1.395  15.985  0.0220 -0.4406  0.0307
 9517TIP3    H149966   1.442   1.432  15.966  0.9381  1.4154 -0.6339
 9517TIP3    H249967   1.512   1.302  15.999 -2.2375  0.0771  0.9992
 9518TIP3   OH249968   5.994   0.800  12.353  0.2062 -0.1767 -0.0171
 9518TIP3    H149969   6.030   0.850  12.280 -1.4073  0.5269 -0.3446
 9518TIP3    H249970   5.903   0.783  12.329  0.3029 -1.9866  0.7709
 9519TIP3   OH249971   6.220   5.785  15.009  0.4526 -0.1825 -0.0373
 9519TIP3    H149972   6.196   5.730  14.935 -0.4004  0.0344  0.0742
 9519TIP3    H249973   6.143   5.784  15.066 -0.0805  2.1009 -0.6310
 9520TIP3   OH249974   6.194   5.670  16.224 -0.5098 -0.2066  0.7854
 9520TIP3    H149975   6.171   5.745  16.279  0.3611 -0.7978  1.9826
 9520TIP3    H249976   6.265   5.627  16.271  1.3324  0.1427 -1.5815
 9521TIP3   OH249977   5.232   0.779  15.946 -0.0474 -0.0710 -0.3933
 9521TIP3    H149978   5.276   0.758  16.029  2.3558 -0.7643 -1.8158
 9521TIP3    H249979   5.139   0.766  15.965  0.3370  1.1673  2.6079
 9522TIP3   OH249980   2.336   6.012   0.572  0.4042  0.5779 -0.1331
 9522TIP3    H149981   2.280   5.955   0.519  0.4958 -0.0120  0.3978
 9522TIP3    H249982   2.425   5.996   0.540  0.3848  0.7401 -0.2698
 9523TIP3   OH249983   5.841   0.450  16.150  0.6232 -0.4315 -0.1566
 9523TIP3    H149984   5.924   0.403  16.152  0.3006 -1.1009 -1.6037
 9523TIP3    H249985   5.842   0.505  16.228  1.8436 -1.4200  0.5338
 9524TIP3   OH249986   3.046   1.988   1.945 -0.1323  0.1720 -0.0236
 9524TIP3    H149987   3.108   2.005   1.873 -0.1597 -0.8538 -0.2998
 9524TIP3    H249988   2.965   2.031   1.917  0.2753  1.0119  0.0647
 9525TIP3   OH249989   1.839   5.615  12.871  0.5029 -0.6401  0.3011
 9525TIP3    H149990   1.832   5.708  12.850  1.5350 -0.1112  2.1730
 9525TIP3    H249991   1.751   5.590  12.900  0.0587 -0.4260 -0.8373
 9526TIP3   OH249992   0.180   3.883  12.131  0.2179  0.1093 -0.1092
 9526TIP3    H149993   0.238   3.813  12.163 -0.4317 -0.4348 -0.1166
 9526TIP3    H249994   0.221   3.911  12.049  0.6357 -0.0669  0.0339
 9527TIP3   OH249995   2.387   4.528   4.059 -0.4769 -0.5345  0.5775
 9527TIP3    H149996   2.384   4.611   4.107 -0.3109 -1.2890  1.9209
 9527TIP3    H249997   2.306   4.526   4.009 -0.2634  0.6540  0.1637
 9528TIP3   OH249998   2.473   2.307  13.917  0.2948  0.0109  0.0295
 9528TIP3    H149999   2.418   2.236  13.951 -0.3079 -0.5378 -1.9981
 9528TIP3    H250000   2.532   2.329  13.989 -1.1980 -0.8233  1.5400
 9529TIP3   OH250001   3.767   3.387   4.207 -0.1487 -0.0258 -0.0088
 9529TIP3    H150002   3.700   3.360   4.270 -0.2311 -1.0382 -0.5265
 9529TIP3    H250003   3.746   3.479   4.189 -1.0645 -0.1774  0.2546
 9530TIP3   OH250004   4.485   6.327   5.890  0.3559  0.4039 -0.3728
 9530TIP3    H150005   4.491   6.395   5.958 -0.4721  0.5030 -0.3961
 9530TIP3    H250006   4.567   6.279   5.897  0.6379  0.9529  0.1334
 9531TIP3   OH250007   3.135   2.549  17.067 -0.0372  0.6331 -0.2356
 9531TIP3    H150008   3.118   2.638  17.036  1.1729  0.7714 -0.5100
 9531TIP3    H250009   3.225   2.551  17.099 -0.6455  0.0120  1.6077
 9532TIP3   OH250010   0.548   2.252   1.039  0.1745 -0.0579 -0.7080
 9532TIP3    H150011   0.554   2.256   0.944 -0.1006  0.1567 -0.7157
 9532TIP3    H250012   0.613   2.315   1.070 -2.0289  2.3480 -0.7930
 9533TIP3   OH250013   3.336   4.206  14.385  0.5351  0.4240  0.2798
 9533TIP3    H150014   3.382   4.128  14.353  0.3961  0.5092 -0.1344
 9533TIP3    H250015   3.299   4.246  14.306 -0.6181  0.1146  0.6534
 9534TIP3   OH250016   4.443   0.539  12.618 -0.3197 -0.1172  0.1739
 9534TIP3    H150017   4.521   0.566  12.667 -1.3042  1.9861  0.6873
 9534TIP3    H250018   4.379   0.608  12.637 -1.6191 -0.7083 -1.9102
 9535TIP3   OH250019   6.164   6.313   0.974  0.5818 -0.0411  0.7626
 9535TIP3    H150020   6.183   6.224   0.946  1.0660  0.0546  0.7814
 9535TIP3    H250021   6.171   6.366   0.895 -1.1461 -0.2269  0.4675
 9536TIP3   OH250022   1.206   5.903   4.417  0.2273  0.3408  0.1475
 9536TIP3    H150023   1.298   5.876   4.423 -0.6064 -2.5631  0.5524
 9536TIP3    H250024   1.196   5.934   4.327  1.7049  1.0834  0.2307
 9537TIP3   OH250025   6.662   0.207   2.723 -0.0792  0.4882 -0.3630
 9537TIP3    H150026   6.587   0.267   2.721  0.3891  1.2849  2.4691
 9537TIP3    H250027   6.657   0.158   2.642 -2.8552  1.5358 -0.8594
 9538TIP3   OH250028   5.064   6.489  16.091  0.4144  0.1864 -0.3635
 9538TIP3    H150029   5.051   6.547  16.016  0.7808  1.6645  0.6939
 9538TIP3    H250030   4.977   6.457  16.112  0.3783 -0.6903 -1.7584
 9539TIP3   OH250031   3.476   3.622   6.461 -0.1603  0.2200 -0.0195
 9539TIP3    H150032   3.458   3.600   6.370 -0.0443 -1.8289  0.4265
 9539TIP3    H250033   3.394   3.602   6.507  0.1881  0.0010  0.5172
 9540TIP3   OH250034   5.146   5.085   2.491 -0.4483 -0.0689 -0.2963
 9540TIP3    H150035   5.203   5.064   2.565 -2.3152 -1.0825  0.9105
 9540TIP3    H250036   5.131   5.179   2.498 -1.4525 -0.3300  1.2657
 9541TIP3   OH250037   6.765   4.197   4.736  0.2505  0.0688 -0.8698
 9541TIP3    H150038   6.797   4.109   4.716  0.0955 -0.3614  0.6978
 9541TIP3    H250039   6.777   4.206   4.830  0.2813  1.7476 -1.0152
 9542TIP3   OH250040   2.396   2.434   3.515  0.2632 -0.3112 -0.1400
 9542TIP3    H150041   2.363   2.344   3.515 -1.1453  0.2015 -0.9541
 9542TIP3    H250042   2.343   2.479   3.580 -1.7683  0.9070 -2.5758
 9543TIP3   OH250043   5.803   0.514  16.496 -0.1330  0.0291  0.2112
 9543TIP3    H150044   5.818   0.602  16.462 -0.2440 -0.2227 -0.5082
 9543TIP3    H250045   5.710   0.498  16.482 -0.1466 -0.1432  0.4855
 9544TIP3   OH250046   4.117   0.642   3.031  0.1027 -0.0437 -0.0761
 9544TIP3    H150047   4.150   0.571   2.977 -1.2792 -1.1085  0.4759
 9544TIP3    H250048   4.114   0.717   2.972  1.1498 -0.5217 -0.7694
 9545TIP3   OH250049   3.074   5.765   3.631  0.2528  0.0657 -0.4325
 9545TIP3    H150050   3.095   5.820   3.556  1.0036  0.5718  0.1420
 9545TIP3    H250051   3.032   5.824   3.694 -2.9537 -0.9432 -1.5730
 9546TIP3   OH250052   2.531   2.127   5.739  0.4549  0.2167  0.1166
 9546TIP3    H150053   2.509   2.221   5.738 -0.1416  0.0837  0.6329
 9546TIP3    H250054   2.455   2.085   5.699  0.4131 -0.1155  0.5445
 9547TIP3   OH250055   1.648   3.294   5.090  0.0323 -0.4087 -0.4440
 9547TIP3    H150056   1.703   3.365   5.056 -1.3183 -0.0289 -1.8781
 9547TIP3    H250057   1.559   3.317   5.063 -0.4489 -2.5495 -0.7722
 9548TIP3   OH250058   1.523   1.579  13.040 -0.0827 -0.1330 -0.3293
 9548TIP3    H150059   1.504   1.672  13.030  0.2961 -0.2035 -1.8908
 9548TIP3    H250060   1.437   1.538  13.051 -0.1634  0.5247  1.6984
 9549TIP3   OH250061   2.189   2.610  16.548 -0.4298  0.1146 -0.0374
 9549TIP3    H150062   2.129   2.626  16.475  0.2346 -0.3184 -0.6923
 9549TIP3    H250063   2.210   2.697  16.581  1.4896  0.5524 -2.2116
 9550TIP3   OH250064   1.080   6.499  16.520 -0.3242 -0.5550  0.4199
 9550TIP3    H150065   0.994   6.459  16.534 -0.3759  0.0851  2.1043
 9550TIP3    H250066   1.066   6.563  16.451 -1.0035 -1.0448  0.0965
 9551TIP3   OH250067   3.863   3.221  13.416 -0.3930 -0.1150 -0.1267
 9551TIP3    H150068   3.885   3.274  13.339 -0.4800  0.9444  0.5670
 9551TIP3    H250069   3.776   3.186  13.397  0.4086 -1.4958 -1.3755
 9552TIP3   OH250070   5.629   2.066   1.568 -0.3922 -0.0908 -0.2042
 9552TIP3    H150071   5.697   2.002   1.591 -0.6968 -0.3092  0.0913
 9552TIP3    H250072   5.552   2.012   1.548 -0.6412  0.1863  0.0136
 9553TIP3   OH250073   2.544   4.609   0.157  0.2361 -0.3771  0.4997
 9553TIP3    H150074   2.640   4.616   0.157  0.2845 -0.9648  0.6169
 9553TIP3    H250075   2.519   4.626   0.066  0.3690  0.7526  0.6671
 9554TIP3   OH250076   4.614   1.932   3.315 -0.2183 -0.3404  0.0292
 9554TIP3    H150077   4.618   2.013   3.264 -0.6606  0.5204  1.3171
 9554TIP3    H250078   4.584   1.961   3.402 -1.7983 -2.0745  0.0780
 9555TIP3   OH250079   0.336   5.960  14.551 -0.1402 -0.2806  0.0857
 9555TIP3    H150080   0.257   5.986  14.600 -0.6137 -0.8519 -0.3731
 9555TIP3    H250081   0.359   5.875  14.587  0.1361 -0.2191  0.0520
 9556TIP3   OH250082   0.873   3.181  13.789  0.3305  0.1358  0.0063
 9556TIP3    H150083   0.883   3.170  13.695 -1.8638  0.4215 -0.2929
 9556TIP3    H250084   0.852   3.274  13.801  2.3675  0.4980  0.9552
 9557TIP3   OH250085   2.900   6.099  14.512  0.0553 -0.0988  0.3132
 9557TIP3    H150086   2.954   6.026  14.481 -0.2418  0.0862 -0.6281
 9557TIP3    H250087   2.961   6.156  14.559  0.6517  0.0471 -0.6365
 9558TIP3   OH250088   6.178   0.701  11.234 -0.3376  1.0319 -0.1518
 9558TIP3    H150089   6.208   0.734  11.150 -0.4720  1.9794  0.1648
 9558TIP3    H250090   6.229   0.748  11.299 -0.7826  0.8792  0.3194
 9559TIP3   OH250091   4.188   3.428  11.387 -0.6294  0.1321 -0.0157
 9559TIP3    H150092   4.279   3.456  11.396 -1.1421  1.4461  1.3314
 9559TIP3    H250093   4.164   3.451  11.297  0.3101 -0.0827 -0.3269
 9560TIP3   OH250094   0.317   5.063  16.398  0.1450  0.4258 -0.3790
 9560TIP3    H150095   0.383   5.108  16.452  0.2103  0.6380 -0.6346
 9560TIP3    H250096   0.239   5.062  16.454  0.3098  0.3433 -0.1473
 9561TIP3   OH250097   2.203   1.468   1.689 -0.4720  0.0364  0.2383
 9561TIP3    H150098   2.156   1.523   1.753 -0.7192 -0.6338  0.6374
 9561TIP3    H250099   2.284   1.516   1.672 -0.2488  0.0597  1.3215
 9562TIP3   OH250100   4.211   4.834   5.410  0.1722 -0.0368  0.9088
 9562TIP3    H150101   4.302   4.808   5.420 -0.2845 -1.4463  1.6774
 9562TIP3    H250102   4.162   4.764   5.454 -1.2696  0.6875  0.4818
 9563TIP3   OH250103   4.047   2.049   4.605 -0.3776  0.2375  0.5583
 9563TIP3    H150104   4.045   1.986   4.677 -0.2410 -0.6821 -0.2320
 9563TIP3    H250105   4.025   1.998   4.527  0.4093  1.0152 -0.1948
 9564TIP3   OH250106   6.700   0.068   1.325 -0.0529  0.5031 -0.1408
 9564TIP3    H150107   6.752   0.145   1.300 -1.5107  1.8636  0.9611
 9564TIP3    H250108   6.752   0.024   1.392  0.9062  0.3523 -0.9652
 9565TIP3   OH250109   1.444   5.733  12.862  0.1811  0.0790  0.9490
 9565TIP3    H150110   1.428   5.645  12.827 -0.9068 -0.3841  2.5133
 9565TIP3    H250111   1.500   5.775  12.797  0.0128 -1.4757 -0.2468
 9566TIP3   OH250112   2.472   6.669   5.772 -1.1993  0.0065  0.1051
 9566TIP3    H150113   2.558   6.708   5.785  0.4046 -2.9519 -1.1492
 9566TIP3    H250114   2.426   6.683   5.855  1.2381 -0.2061  1.5196
 9567TIP3   OH250115   3.064   4.152  15.925  0.1882 -0.6717 -0.1858
 9567TIP3    H150116   3.033   4.240  15.903  0.3377 -0.8641 -1.1918
 9567TIP3    H250117   3.159   4.161  15.929  0.1828 -0.7131  0.0666
 9568TIP3   OH250118   1.140   2.262  13.839  0.5706  0.3587  0.0608
 9568TIP3    H150119   1.150   2.170  13.815 -0.8369 -0.1619  1.3932
 9568TIP3    H250120   1.172   2.267  13.929  0.2459  1.0738  0.1397
 9569TIP3   OH250121   2.394   1.015  12.865  0.2565 -0.1190 -0.5388
 9569TIP3    H150122   2.335   1.075  12.911  3.6011  0.7120  3.0313
 9569TIP3    H250123   2.397   0.937  12.921  2.1333 -0.3132 -0.8717
 9570TIP3   OH250124   3.588   4.626   0.251  0.3183 -0.4779  1.0868
 9570TIP3    H150125   3.541   4.676   0.317 -0.5792 -0.0588  0.1531
 9570TIP3    H250126   3.544   4.648   0.169  2.6192  0.5278  0.0749
 9571TIP3   OH250127   2.750   5.439  15.443  0.0671 -0.5056 -0.1229
 9571TIP3    H150128   2.816   5.369  15.446  0.9150  0.1516 -2.5781
 9571TIP3    H250129   2.782   5.500  15.376 -2.1597  0.7170 -0.1198
 9572TIP3   OH250130   6.716   3.387   0.690  0.3726  0.6139 -0.2663
 9572TIP3    H150131   6.799   3.340   0.695 -0.4562 -0.9259 -0.6977
 9572TIP3    H250132   6.727   3.461   0.750  2.3308  0.8836 -0.9054
 9573TIP3   OH250133   2.808   3.937   2.690 -0.2077  0.1525 -0.7028
 9573TIP3    H150134   2.861   3.905   2.763 -1.3824  0.1652  0.1857
 9573TIP3    H250135   2.870   3.978   2.630  0.7628  0.1963  0.3215
 9574TIP3   OH250136   2.483   0.925   5.815 -0.0341 -0.2791 -0.4404
 9574TIP3    H150137   2.445   0.840   5.835 -0.9073  0.1993 -0.0001
 9574TIP3    H250138   2.416   0.969   5.761  0.6977 -0.1360 -1.2417
 9575TIP3   OH250139   5.262   1.822   4.011  0.0555  0.2159  0.6446
 9575TIP3    H150140   5.220   1.908   4.002  0.3984  0.3049 -0.0435
 9575TIP3    H250141   5.188   1.761   4.018 -0.1894  0.5424  0.9683
 9576TIP3   OH250142   5.607   5.940   4.743 -0.1683  0.6563 -0.0121
 9576TIP3    H150143   5.676   5.877   4.721 -0.3180 -0.3084  2.1723
 9576TIP3    H250144   5.531   5.910   4.693  0.3487  0.3603 -0.6291
 9577TIP3   OH250145   3.929   0.698   3.270  0.5014  0.7086 -0.1277
 9577TIP3    H150146   3.982   0.744   3.204  0.1279 -0.3287 -1.1695
 9577TIP3    H250147   3.856   0.757   3.287  0.5679  0.9665 -0.6995
 9578TIP3   OH250148   1.118   0.147   0.368  0.3210 -0.2170 -0.2378
 9578TIP3    H150149   1.194   0.118   0.318  1.3359 -0.0735  1.2015
 9578TIP3    H250150   1.120   0.093   0.448 -0.1332  0.9499  0.5690
 9579TIP3   OH250151   2.686   5.635  14.785  0.3009  0.3444  0.5241
 9579TIP3    H150152   2.733   5.554  14.767 -1.1716 -0.1735 -1.1580
 9579TIP3    H250153   2.648   5.659  14.701  0.2709  2.5056  1.1321
 9580TIP3   OH250154   0.914   2.901  12.361  0.3012  0.1047  0.2491
 9580TIP3    H150155   0.965   2.898  12.280  0.0599  1.8125  0.0289
 9580TIP3    H250156   0.979   2.900  12.431  0.5703  0.5681  0.0049
 9581TIP3   OH250157   4.736   5.545  16.262 -0.0187  0.6657  0.6196
 9581TIP3    H150158   4.713   5.485  16.190  0.9244 -0.1153  0.9749
 9581TIP3    H250159   4.677   5.620  16.249 -0.8891 -0.1209 -0.0946
 9582TIP3   OH250160   0.375   0.723   1.404  0.1185  0.0957  0.6116
 9582TIP3    H150161   0.316   0.716   1.478 -0.9822  0.9915 -0.1640
 9582TIP3    H250162   0.401   0.815   1.402  0.6504 -0.0571  0.2771
 9583TIP3   OH250163   2.104   1.407  16.714 -0.2663  0.1848 -0.4864
 9583TIP3    H150164   2.191   1.373  16.734 -0.1009  0.8935  0.0307
 9583TIP3    H250165   2.100   1.491  16.760 -1.6978 -0.4343  0.5526
 9584TIP3   OH250166   3.532   3.752  15.364  0.0581  0.0576 -0.6783
 9584TIP3    H150167   3.626   3.734  15.366 -0.1778 -1.0496  0.8742
 9584TIP3    H250168   3.506   3.733  15.274  1.0261 -1.1876 -0.7039
 9585TIP3   OH250169   4.852   4.312  13.841  0.9186 -0.5897  0.8646
 9585TIP3    H150170   4.853   4.217  13.856 -0.1330 -0.8810 -0.7534
 9585TIP3    H250171   4.883   4.350  13.923 -1.2439 -2.2112  2.4879
 9586TIP3   OH250172   1.082   4.764  15.028 -0.6538  0.2498 -0.0685
 9586TIP3    H150173   1.002   4.806  15.057 -1.3177 -0.8181 -0.3064
 9586TIP3    H250174   1.064   4.670  15.036 -0.4675 -0.0578 -2.8309
 9587TIP3   OH250175   5.782   0.697   3.782  0.1661 -0.1631  0.4174
 9587TIP3    H150176   5.868   0.720   3.746 -1.0318  1.0247 -1.7672
 9587TIP3    H250177   5.726   0.684   3.705 -2.0465  0.7560  1.8246
 9588TIP3   OH250178   2.926   6.026   1.677 -0.2081 -0.5453  0.1494
 9588TIP3    H150179   2.973   5.994   1.754  0.6028 -1.4060 -0.6786
 9588TIP3    H250180   2.995   6.057   1.618 -0.8851  1.1286  0.2032
 9589TIP3   OH250181   4.668   0.919   3.325 -0.2966 -0.5856  0.2252
 9589TIP3    H150182   4.580   0.899   3.293  0.0510 -1.1046 -0.4033
 9589TIP3    H250183   4.659   0.915   3.421 -1.0370 -0.2796  0.1718
 9590TIP3   OH250184   0.255   2.775  13.408  0.5418  0.0055  0.5765
 9590TIP3    H150185   0.265   2.809  13.320  0.4260  0.0463  0.5791
 9590TIP3    H250186   0.304   2.692  13.408  0.2425 -0.1714  0.3729
 9591TIP3   OH250187   4.161   2.964  17.128  0.2809 -0.7284  0.2950
 9591TIP3    H150188   4.081   3.016  17.130  0.8595  0.1313  1.2140
 9591TIP3    H250189   4.137   2.881  17.170 -0.8753 -1.5768 -1.9570
 9592TIP3   OH250190   5.734   1.290  15.364 -0.1198  0.7815 -0.3171
 9592TIP3    H150191   5.658   1.253  15.319  0.0622  1.1128 -0.9081
 9592TIP3    H250192   5.800   1.300  15.295  0.4348  0.5626  0.1765
 9593TIP3   OH250193   6.141   3.427   3.600  0.1531 -0.6681 -0.3201
 9593TIP3    H150194   6.166   3.425   3.692 -0.0438  0.1208 -0.2454
 9593TIP3    H250195   6.224   3.430   3.553  0.2377  0.2637 -0.1236
 9594TIP3   OH250196   1.535   1.149  13.561  0.3819  0.0700 -0.0800
 9594TIP3    H150197   1.544   1.214  13.630  1.8220  0.1060 -0.2837
 9594TIP3    H250198   1.556   1.066  13.604  1.5608  0.1266 -0.5272
 9595TIP3   OH250199   1.272   1.871  14.652  0.2515 -0.3346 -0.5434
 9595TIP3    H150200   1.260   1.929  14.727  0.2296  0.6841 -1.3380
 9595TIP3    H250201   1.333   1.917  14.595 -0.7107 -0.5423 -1.7451
 9596TIP3   OH250202   0.631   1.134   5.419 -0.3400  0.3072  0.0466
 9596TIP3    H150203   0.582   1.171   5.346 -0.2905  1.7468  0.7193
 9596TIP3    H250204   0.686   1.066   5.380  0.5704  1.8636 -1.4447
 9597TIP3   OH250205   5.284   1.740  13.509  0.5440 -0.0249 -0.6267
 9597TIP3    H150206   5.239   1.823  13.500  1.9118  0.6299 -1.6039
 9597TIP3    H250207   5.246   1.700  13.587 -0.0084  1.5677 -0.0711
 9598TIP3   OH250208   3.862   0.455  17.180  0.4437 -0.6519 -0.3778
 9598TIP3    H150209   3.865   0.464  17.276 -1.5342 -0.6805 -0.2912
 9598TIP3    H250210   3.833   0.365  17.165 -0.2122 -0.3414 -0.9918
 9599TIP3   OH250211   5.308   3.742  12.685 -0.2572 -0.0041 -0.1522
 9599TIP3    H150212   5.317   3.777  12.774  0.3701 -0.8473  0.1225
 9599TIP3    H250213   5.215   3.748  12.666 -0.6690 -1.4929  1.2677
 9600TIP3   OH250214   4.725   5.781  14.507  0.2998  0.0467 -0.2292
 9600TIP3    H150215   4.706   5.687  14.503 -0.1451  0.0663  1.0735
 9600TIP3    H250216   4.694   5.815  14.423 -0.0174 -0.8877 -0.5025
 9601TIP3   OH250217   1.590   5.500  13.410 -0.8497 -0.1918  0.1907
 9601TIP3    H150218   1.680   5.471  13.425 -0.6695  0.2600 -0.0013
 9601TIP3    H250219   1.598   5.595  13.399 -1.2737 -0.2340 -0.4370
 9602TIP3   OH250220   1.823   6.675   5.420  0.0003  0.3058  0.1933
 9602TIP3    H150221   1.792   6.585   5.424 -1.3392  0.7775  0.9541
 9602TIP3    H250222   1.760   6.720   5.364  0.1852  0.9482  0.4889
 9603TIP3   OH250223   6.043   0.831  10.773 -0.6187 -0.5427 -0.1860
 9603TIP3    H150224   5.965   0.792  10.812 -0.5743 -1.7653 -1.2815
 9603TIP3    H250225   6.045   0.796  10.684  0.5111  0.4427 -0.5655
 9604TIP3   OH250226   2.349   1.286  13.845 -0.6394 -0.5424 -0.2952
 9604TIP3    H150227   2.348   1.251  13.756 -0.9397 -0.3983 -0.3509
 9604TIP3    H250228   2.303   1.370  13.838 -0.3114 -0.3441 -0.0803
 9605TIP3   OH250229   5.450   3.214   6.035  0.1164  0.4937  0.0504
 9605TIP3    H150230   5.482   3.137   5.989  1.4527  1.3055 -0.3936
 9605TIP3    H250231   5.355   3.208   6.030  0.2047 -1.4081  0.5011
 9606TIP3   OH250232   5.467   5.653   5.204  0.0101  0.8701  0.7296
 9606TIP3    H150233   5.525   5.723   5.233  0.7953 -0.1589  1.6695
 9606TIP3    H250234   5.526   5.583   5.177 -0.7383  1.0119 -1.3811
 9607TIP3   OH250235   4.561   3.697  14.183  0.0735  0.1829 -0.2695
 9607TIP3    H150236   4.610   3.658  14.111 -0.8111 -0.2592 -0.6387
 9607TIP3    H250237   4.627   3.722  14.247  0.6883 -1.5810 -0.1895
 9608TIP3   OH250238   4.088   4.642   3.442  0.4944 -0.3774  0.0801
 9608TIP3    H150239   4.013   4.631   3.384  0.3134 -1.0579  0.4382
 9608TIP3    H250240   4.080   4.570   3.505  1.0829 -0.0655  0.5127
 9609TIP3   OH250241   2.054   1.520   3.903  0.6785  0.3460 -0.2081
 9609TIP3    H150242   2.051   1.430   3.870  1.3030  0.4172 -0.4650
 9609TIP3    H250243   2.140   1.527   3.945  1.8035  1.6799 -2.6505
 9610TIP3   OH250244   5.219   6.085   0.153 -0.4363  0.1568  0.5253
 9610TIP3    H150245   5.236   6.087   0.247  0.7673  0.4342  0.3049
 9610TIP3    H250246   5.148   6.021   0.143 -0.5842  0.1411  1.6176
 9611TIP3   OH250247   4.467   0.905  15.559  0.2666 -0.2817 -0.5098
 9611TIP3    H150248   4.478   0.817  15.523  0.2964 -0.5165  0.0849
 9611TIP3    H250249   4.513   0.962  15.497  1.4089 -0.8254 -0.1634
 9612TIP3   OH250250   1.490   4.245  10.182 -0.1275 -0.2348 -0.0792
 9612TIP3    H150251   1.482   4.334  10.217  0.2053  0.3040 -1.3409
 9612TIP3    H250252   1.583   4.223  10.194 -0.1383 -0.2773 -0.0737
 9613TIP3   OH250253   3.235   2.685   2.040  0.1315  0.2281 -0.1374
 9613TIP3    H150254   3.159   2.669   1.984  0.1333 -0.6152  0.0981
 9613TIP3    H250255   3.296   2.733   1.984 -0.6145  0.9956 -0.2953
 9614TIP3   OH250256   2.090   5.778  14.340  0.0479 -0.0622 -0.6686
 9614TIP3    H150257   2.060   5.868  14.324  1.6554  0.4605 -0.8949
 9614TIP3    H250258   2.010   5.727  14.351 -0.9318  1.0871 -2.2296
 9615TIP3   OH250259   1.162   6.747  13.413 -0.4945 -0.3262 -0.2049
 9615TIP3    H150260   1.194   6.805  13.344 -0.4509 -0.9251 -0.6953
 9615TIP3    H250261   1.108   6.803  13.468 -1.1296 -0.0066 -1.1439
 9616TIP3   OH250262   2.680   4.291   1.954  0.1505  0.5564  0.7104
 9616TIP3    H150263   2.641   4.376   1.975 -0.4278  0.2064  1.0480
 9616TIP3    H250264   2.617   4.227   1.985  1.3948 -0.0320  2.1026
 9617TIP3   OH250265   0.423   4.118  10.660 -0.4171 -0.1961  0.2430
 9617TIP3    H150266   0.516   4.131  10.642 -0.2270 -0.3575  1.0855
 9617TIP3    H250267   0.378   4.170  10.593  0.2743 -0.0919 -0.1477
 9618TIP3   OH250268   3.698   3.326   5.073 -0.0030  0.3322 -0.0139
 9618TIP3    H150269   3.779   3.364   5.108  0.1295 -0.2599  0.3314
 9618TIP3    H250270   3.706   3.232   5.090 -0.1209  0.0838 -1.2895
 9619TIP3   OH250271   1.008   0.846  12.389 -0.8564  0.5410  0.3745
 9619TIP3    H150272   1.052   0.803  12.316 -0.8491  0.4828  0.4129
 9619TIP3    H250273   0.918   0.813  12.387 -0.5937 -0.2301  0.9966
 9620TIP3   OH250274   6.204   5.567  15.320  0.6070 -0.1784  0.5057
 9620TIP3    H150275   6.149   5.558  15.242  2.0081 -1.4212 -0.3776
 9620TIP3    H250276   6.270   5.632  15.294  2.2711 -2.0448 -0.0970
 9621TIP3   OH250277   0.912   1.412  12.485  0.6724 -0.0426  0.3080
 9621TIP3    H150278   0.974   1.363  12.431  1.4775  0.8934  0.3767
 9621TIP3    H250279   0.912   1.366  12.569  0.8291 -0.3909  0.1172
 9622TIP3   OH250280   2.229   0.940   4.475  0.2960 -0.0134 -0.4653
 9622TIP3    H150281   2.204   0.922   4.385  0.3272 -1.6574 -0.1651
 9622TIP3    H250282   2.226   0.855   4.518  2.2241  0.4263  0.6005
 9623TIP3   OH250283   0.831   5.805  16.991  0.6346 -0.5008 -0.5601
 9623TIP3    H150284   0.768   5.795  16.920  0.9506 -1.6324 -0.6857
 9623TIP3    H250285   0.852   5.898  16.992 -1.0531 -0.1142 -0.5094
 9624TIP3   OH250286   5.472   2.760   0.952  0.1123 -0.1913  0.3633
 9624TIP3    H150287   5.460   2.752   0.857  2.3833 -0.0783  0.0524
 9624TIP3    H250288   5.469   2.854   0.969  0.1555 -0.1867  0.3442
 9625TIP3   OH250289   2.115   3.278  13.120  0.0152  0.6333  0.1620
 9625TIP3    H150290   2.197   3.248  13.082  0.7745  1.5560  1.0665
 9625TIP3    H250291   2.116   3.373  13.109 -0.2975  0.7919  1.4225
 9626TIP3   OH250292   1.794   0.336   4.312  0.3508 -0.1806  0.4405
 9626TIP3    H150293   1.702   0.329   4.339 -0.4626  0.5824 -2.0569
 9626TIP3    H250294   1.825   0.414   4.358 -0.7167  0.5071  0.0187
 9627TIP3   OH250295   4.418   0.609  13.152  0.0518 -0.8684 -0.2207
 9627TIP3    H150296   4.467   0.683  13.114 -2.3070  1.1881  0.5658
 9627TIP3    H250297   4.371   0.571  13.078 -1.6886  0.8591 -0.0624
 9628TIP3   OH250298   5.156   4.904  16.634 -0.0262  0.2998 -0.2275
 9628TIP3    H150299   5.115   4.860  16.560 -1.7281  0.2515  0.7134
 9628TIP3    H250300   5.187   4.987  16.599  0.7061 -0.4470 -1.3730
 9629TIP3   OH250301   1.933   1.482  14.357 -0.1642 -0.0325  0.9444
 9629TIP3    H150302   1.968   1.571  14.362  1.3243 -0.5428 -0.1387
 9629TIP3    H250303   1.903   1.473  14.266  0.6857 -1.0016  0.7565
 9630TIP3   OH250304   4.884   3.753  16.364  0.4661 -0.2573 -0.0196
 9630TIP3    H150305   4.797   3.776  16.397 -0.5210 -1.7874 -1.5019
 9630TIP3    H250306   4.870   3.735  16.271  2.3460 -0.6694 -0.2386
 9631TIP3   OH250307   5.017   3.506   3.469 -0.2208  0.5203  0.4624
 9631TIP3    H150308   5.002   3.414   3.492  0.5962  0.3124  0.1710
 9631TIP3    H250309   4.967   3.519   3.389  1.2268 -0.2179 -0.5946
 9632TIP3   OH250310   4.712   0.955   6.432  0.9213  0.3504 -0.0749
 9632TIP3    H150311   4.731   1.042   6.398  0.8254 -0.2965 -1.8325
 9632TIP3    H250312   4.644   0.921   6.374 -0.3633 -0.1932  1.7146
 9633TIP3   OH250313   6.241   3.017   0.172  0.4430  0.1097  0.0876
 9633TIP3    H150314   6.296   2.941   0.190 -1.6735 -0.5714  4.3089
 9633TIP3    H250315   6.281   3.089   0.222 -0.2179  0.6016 -0.0783
 9634TIP3   OH250316   4.466   3.897  12.430  0.9876  0.5557 -0.2100
 9634TIP3    H150317   4.495   3.988  12.434  0.9734  0.4959  1.3897
 9634TIP3    H250318   4.498   3.866  12.345 -3.2615  3.4832 -3.1466
 9635TIP3   OH250319   1.084   2.672  12.402  0.2251  0.1033 -0.1524
 9635TIP3    H150320   1.061   2.749  12.455 -1.1901 -0.0555 -0.5188
 9635TIP3    H250321   1.159   2.700  12.351 -1.2919  1.8247 -1.5195
 9636TIP3   OH250322   3.241   2.709   6.187  0.8752 -0.3338 -0.3559
 9636TIP3    H150323   3.327   2.740   6.217  1.4685 -3.1955  0.9783
 9636TIP3    H250324   3.261   2.639   6.124 -0.4617 -2.5296  1.5960
 9637TIP3   OH250325   4.764   4.120   2.479  0.5093 -0.2556  0.8040
 9637TIP3    H150326   4.712   4.041   2.465 -0.0111 -0.0140  1.3598
 9637TIP3    H250327   4.809   4.104   2.563  1.4951 -0.5541  0.2267
 9638TIP3   OH250328   3.882   5.221  12.271  0.4828 -0.2891  0.4543
 9638TIP3    H150329   3.931   5.301  12.291  1.0120 -0.1652 -1.2157
 9638TIP3    H250330   3.865   5.227  12.177 -0.6077 -1.5258  0.5669
 9639TIP3   OH250331   3.635   5.296   3.308 -0.6311  0.5780 -0.3098
 9639TIP3    H150332   3.664   5.364   3.369 -1.0138  0.7624 -0.3321
 9639TIP3    H250333   3.707   5.289   3.245  0.3378 -0.5340  0.9062
 9640TIP3   OH250334   2.798   0.570  14.029 -0.8069 -0.3473  0.7069
 9640TIP3    H150335   2.816   0.663  14.041  2.6421 -0.8079 -0.4483
 9640TIP3    H250336   2.812   0.531  14.115 -2.1019  0.1534  1.1557
 9641TIP3   OH250337   2.680   3.163   2.546  0.1200  0.1748  0.2946
 9641TIP3    H150338   2.608   3.200   2.496  0.1507 -0.4274 -0.2095
 9641TIP3    H250339   2.657   3.070   2.554  0.3482  0.1799  0.9873
 9642TIP3   OH250340   2.528   5.669   2.181 -0.6313  0.8373  0.2690
 9642TIP3    H150341   2.560   5.759   2.184  0.3759  0.5929 -2.0623
 9642TIP3    H250342   2.433   5.678   2.181 -0.5816  2.1253 -3.6932
 9643TIP3   OH250343   1.930   4.886   3.802  0.4033  0.0994  0.3742
 9643TIP3    H150344   1.850   4.918   3.761  0.5472 -0.0868 -0.0474
 9643TIP3    H250345   1.900   4.820   3.864  0.0028  1.7707  2.0050
 9644TIP3   OH250346   4.044   3.653  13.857  0.0709 -0.0218 -0.1536
 9644TIP3    H150347   4.106   3.657  13.784 -0.7907 -0.3814 -0.9120
 9644TIP3    H250348   3.998   3.736  13.853  0.8562  0.4672  0.7386
 9645TIP3   OH250349   4.985   1.032   2.239  0.2478 -0.0148  0.3638
 9645TIP3    H150350   4.978   0.948   2.284 -3.0224 -0.6107 -1.1150
 9645TIP3    H250351   4.928   1.023   2.163 -0.9876  3.8890  0.7355
 9646TIP3   OH250352   0.792   4.072   4.948  0.0091 -0.8054 -0.6882
 9646TIP3    H150353   0.770   4.151   4.900  0.1704 -0.9830 -1.0497
 9646TIP3    H250354   0.770   4.093   5.039  0.9284 -0.0196 -0.6450
 9647TIP3   OH250355   2.531   4.644  13.899 -0.8327  0.4018 -0.1331
 9647TIP3    H150356   2.555   4.633  13.807 -1.7838 -0.1536 -0.3186
 9647TIP3    H250357   2.438   4.624  13.902 -0.7938  0.3686  0.9655
 9648TIP3   OH250358   4.574   1.962   4.870 -0.2619  0.7857 -0.5155
 9648TIP3    H150359   4.654   1.936   4.824  0.6075  0.9909  0.8361
 9648TIP3    H250360   4.505   1.908   4.831  1.0553 -1.6896  0.4183
 9649TIP3   OH250361   4.370   3.407   0.999  0.4894 -0.2919 -0.4262
 9649TIP3    H150362   4.465   3.417   0.994  0.3841  0.8276 -0.2263
 9649TIP3    H250363   4.338   3.493   1.026 -0.5813 -0.6683 -0.4820
 9650TIP3   OH250364   3.362   1.146   3.067  0.0273  0.2282  0.2362
 9650TIP3    H150365   3.295   1.207   3.098  0.1640  0.1766  0.6373
 9650TIP3    H250366   3.402   1.191   2.992  0.5840  0.9360  0.9398
 9651TIP3   OH250367   2.055   4.708  13.668 -0.3981  0.0537 -0.3559
 9651TIP3    H150368   1.967   4.673  13.674 -0.5763  0.8509  2.2718
 9651TIP3    H250369   2.088   4.706  13.757  1.0493  2.7666 -0.7725
 9652TIP3   OH250370   2.403   1.338   0.236  0.3209  0.3037  0.0053
 9652TIP3    H150371   2.481   1.331   0.291  0.1809 -0.0582  0.1591
 9652TIP3    H250372   2.428   1.399   0.167  0.5467  0.6443  0.3863
 9653TIP3   OH250373   5.066   2.858  13.268 -0.3729  0.6002  0.3069
 9653TIP3    H150374   5.153   2.828  13.240 -0.7765  0.6947 -1.0934
 9653TIP3    H250375   5.074   2.953  13.272 -0.9412  0.7614 -1.7565
 9654TIP3   OH250376   2.511   2.409   3.976  0.1674 -0.8046 -0.6709
 9654TIP3    H150377   2.430   2.360   3.960 -0.7266  1.1553 -2.5013
 9654TIP3    H250378   2.482   2.498   3.995  1.8795 -0.0093 -1.6021
 9655TIP3   OH250379   3.794   3.664   3.375  0.6982 -0.2309  0.3495
 9655TIP3    H150380   3.768   3.639   3.463  0.6661 -1.5613 -0.0279
 9655TIP3    H250381   3.742   3.607   3.318  0.4651  0.8544 -0.5325
 9656TIP3   OH250382   0.813   0.755   4.013 -0.0832  0.3133 -0.1914
 9656TIP3    H150383   0.888   0.712   4.055  0.1355 -0.6838 -1.5789
 9656TIP3    H250384   0.740   0.694   4.026  0.2339 -0.5045 -2.1935
 9657TIP3   OH250385   0.443   1.825  15.159 -0.5099  0.4694 -0.8312
 9657TIP3    H150386   0.462   1.915  15.186 -0.1519 -0.1996  1.2146
 9657TIP3    H250387   0.490   1.770  15.222  1.6501 -1.1889 -3.7496
 9658TIP3   OH250388   1.589   6.038   2.760 -0.3163  0.0755 -0.1506
 9658TIP3    H150389   1.659   5.991   2.806  0.0676  0.0528 -0.7516
 9658TIP3    H250390   1.571   5.984   2.683 -2.6781 -1.1800  1.2314
 9659TIP3   OH250391   3.812   4.795  16.193  0.3412  0.1953  0.7441
 9659TIP3    H150392   3.896   4.838  16.181 -0.0146  0.7512  0.1617
 9659TIP3    H250393   3.807   4.774  16.286  1.3416 -0.3141  0.6829
 9660TIP3   OH250394   3.181   1.051  10.373  0.1865 -0.0248 -0.6592
 9660TIP3    H150395   3.259   1.017  10.418  0.9117  1.5074 -0.7198
 9660TIP3    H250396   3.153   1.125  10.427 -0.7024 -0.0188 -1.1258
 9661TIP3   OH250397   6.315   4.110  13.780  0.0090  0.1816 -0.5752
 9661TIP3    H150398   6.393   4.162  13.760  0.8872 -0.7678  0.3163
 9661TIP3    H250399   6.306   4.051  13.705 -0.8382  1.4116 -1.4669
 9662TIP3   OH250400   1.435   2.676  12.307  0.0692 -0.3103 -0.0146
 9662TIP3    H150401   1.405   2.767  12.305 -1.1508 -0.6749  1.3476
 9662TIP3    H250402   1.521   2.679  12.264 -0.5185  1.2633 -1.1612
 9663TIP3   OH250403   5.060   0.386   0.728 -0.0060  0.4059  0.3561
 9663TIP3    H150404   5.133   0.387   0.791 -0.4174 -0.5228  0.8609
 9663TIP3    H250405   5.102   0.370   0.644  0.3354 -0.7859  0.7321
 9664TIP3   OH250406   2.187   1.153  11.706 -0.1841  0.1079 -0.0658
 9664TIP3    H150407   2.196   1.246  11.725  0.9697 -0.2650  1.3180
 9664TIP3    H250408   2.267   1.130  11.659  0.1365 -0.4350  0.7165
 9665TIP3   OH250409   2.024   6.312  13.512  0.0659  0.3514 -0.6129
 9665TIP3    H150410   2.074   6.230  13.510 -1.1554 -0.4036 -1.2150
 9665TIP3    H250411   2.000   6.327  13.421 -3.1378 -0.8078 -0.0191
 9666TIP3   OH250412   0.301   4.141  13.080  0.0812  0.9244  0.3159
 9666TIP3    H150413   0.348   4.186  13.151  0.8174  1.4096 -0.4704
 9666TIP3    H250414   0.358   4.150  13.004 -0.0244 -0.8749  0.0009
 9667TIP3   OH250415   1.248   5.910  15.210  0.0532  0.3594 -0.2425
 9667TIP3    H150416   1.211   5.894  15.297  2.9838  0.7704  1.1592
 9667TIP3    H250417   1.271   5.823  15.177 -1.8437  0.1197 -1.0422
 9668TIP3   OH250418   4.240   2.741   4.254  0.1080 -0.5994  0.0019
 9668TIP3    H150419   4.253   2.649   4.232  3.1943 -0.3227  0.4952
 9668TIP3    H250420   4.271   2.789   4.177 -2.4864  0.0680 -0.6991
 9669TIP3   OH250421   3.293   3.336  15.413 -0.0530  0.0786 -0.2278
 9669TIP3    H150422   3.228   3.375  15.354  0.7329  1.0757 -0.4731
 9669TIP3    H250423   3.266   3.363  15.500  2.0404  3.6941 -0.5812
 9670TIP3   OH250424   2.344   2.491   1.022  0.4072 -0.0329  0.1123
 9670TIP3    H150425   2.307   2.411   0.985  1.2486 -0.9071  1.1150
 9670TIP3    H250426   2.272   2.531   1.070 -0.1453  0.0689 -0.7775
 9671TIP3   OH250427   4.570   5.157  17.151 -0.1827  0.3941 -0.3037
 9671TIP3    H150428   4.509   5.087  17.175  1.2354 -0.7195  0.1991
 9671TIP3    H250429   4.523   5.210  17.088 -1.0413 -1.4748 -1.2852
 9672TIP3   OH250430   4.277   5.804   1.747  0.3744 -0.3160  0.1692
 9672TIP3    H150431   4.208   5.809   1.681 -0.2703 -2.2614  0.6785
 9672TIP3    H250432   4.358   5.817   1.697 -0.1735 -0.6205 -0.8225
 9673TIP3   OH250433   2.319   5.724  15.616  0.7351  0.0621 -0.9094
 9673TIP3    H150434   2.389   5.681  15.567  2.2664 -0.1307  1.3674
 9673TIP3    H250435   2.339   5.818  15.610  0.7799  0.0556 -0.8633
 9674TIP3   OH250436   3.531   1.255   3.759 -1.0465  0.1375  0.2745
 9674TIP3    H150437   3.436   1.255   3.766 -1.0737 -0.1406 -0.0612
 9674TIP3    H250438   3.554   1.347   3.748 -1.3443  0.1284 -0.4544
 9675TIP3   OH250439   5.136   5.007  10.748 -0.0261 -0.0566 -0.0452
 9675TIP3    H150440   5.085   4.938  10.705  2.1189 -1.0501 -1.0589
 9675TIP3    H250441   5.165   5.063  10.676  1.4204 -0.2696  0.3626
 9676TIP3   OH250442   1.137   6.224   0.774 -0.8113  0.5013 -0.0043
 9676TIP3    H150443   1.218   6.242   0.726  1.5308 -0.2521  3.4832
 9676TIP3    H250444   1.086   6.305   0.766  0.3241  1.0395 -2.1155
 9677TIP3   OH250445   0.428   1.877   5.480  0.4150 -0.6642 -0.1320
 9677TIP3    H150446   0.469   1.964   5.480  1.5111 -1.1730  0.8413
 9677TIP3    H250447   0.335   1.895   5.466  0.6924  0.6373 -0.4081
 9678TIP3   OH250448   0.126   1.192   2.057  0.7091 -0.0283 -0.1914
 9678TIP3    H150449   0.110   1.099   2.069 -0.8376  0.2342 -0.1639
 9678TIP3    H250450   0.179   1.197   1.977  1.0903 -0.9379 -0.0022
 9679TIP3   OH250451   6.211   4.847   0.818  0.1087 -0.1299 -0.6414
 9679TIP3    H150452   6.289   4.848   0.874  0.4578  0.0140 -1.1330
 9679TIP3    H250453   6.141   4.879   0.876  0.2286 -1.1038  0.0585
 9680TIP3   OH250454   2.375   3.250   6.414 -0.6697  0.0239 -0.1849
 9680TIP3    H150455   2.447   3.305   6.382 -1.7076  1.2100 -0.5501
 9680TIP3    H250456   2.320   3.236   6.337 -2.6750  2.0792  0.7998
 9681TIP3   OH250457   4.863   2.375  13.362 -0.5736 -0.3223  0.2707
 9681TIP3    H150458   4.832   2.366  13.452  0.4609  2.1067  0.8891
 9681TIP3    H250459   4.874   2.469  13.349  1.6139 -0.7797 -1.5881
 9682TIP3   OH250460   6.471   6.583   4.695  0.6208 -0.1888  0.1192
 9682TIP3    H150461   6.449   6.507   4.750 -0.4584 -1.2102 -1.6835
 9682TIP3    H250462   6.398   6.642   4.706 -0.3578 -1.0853 -1.4184
 9683TIP3   OH250463   4.177   1.017  16.822 -0.4872  0.4073  0.5408
 9683TIP3    H150464   4.156   1.059  16.905  0.6033  0.9856  0.5456
 9683TIP3    H250465   4.209   0.930  16.846 -0.6430  0.3929  0.6934
 9684TIP3   OH250466   5.822   0.856   2.625  0.2551 -0.1580  0.5776
 9684TIP3    H150467   5.872   0.887   2.549 -0.1448 -0.6558  0.1027
 9684TIP3    H250468   5.884   0.860   2.698  0.0443  2.3439  0.6769
 9685TIP3   OH250469   2.457   4.361  16.398  0.3422 -0.8063 -0.3948
 9685TIP3    H150470   2.449   4.404  16.483  0.1465 -1.1025 -0.2666
 9685TIP3    H250471   2.400   4.284  16.404 -1.1206  0.1584 -1.4150
 9686TIP3   OH250472   3.441   4.017   1.490 -0.0606  0.4005  0.8064
 9686TIP3    H150473   3.520   4.069   1.482  0.8886 -0.9860  1.0656
 9686TIP3    H250474   3.458   3.938   1.438 -1.2387  0.0466  0.9255
 9687TIP3   OH250475   3.796   4.027  12.500 -0.7195  0.4108  0.9336
 9687TIP3    H150476   3.797   4.122  12.489 -0.6434  0.1761 -1.3244
 9687TIP3    H250477   3.716   3.998  12.457 -0.2460 -0.6489  0.7455
 9688TIP3   OH250478   2.687   1.282  12.967  0.8196 -0.3360 -0.0973
 9688TIP3    H150479   2.738   1.225  13.024  0.9432 -0.8188 -0.6860
 9688TIP3    H250480   2.695   1.369  13.006  1.6800 -0.4969  0.0947
 9689TIP3   OH250481   6.574   0.790  16.774  0.2307  0.5380  0.4325
 9689TIP3    H150482   6.606   0.853  16.710  0.2232  0.2896  0.1825
 9689TIP3    H250483   6.648   0.730  16.788 -0.8436 -1.4597 -1.9335
 9690TIP3   OH250484   2.559   3.735  17.238 -0.4893  0.2516  0.3679
 9690TIP3    H150485   2.553   3.700  17.326  0.6916 -0.3011  0.2367
 9690TIP3    H250486   2.539   3.828  17.247  1.3069  0.5481  1.4932
 9691TIP3   OH250487   2.007   3.656  13.075 -0.1257  0.3470  0.1251
 9691TIP3    H150488   2.072   3.645  13.145 -1.2474 -2.4089  0.8043
 9691TIP3    H250489   2.051   3.711  13.010  3.0643 -1.7839  0.3816
 9692TIP3   OH250490   2.171   1.551  17.120 -0.2405  0.5181 -0.0402
 9692TIP3    H150491   2.145   1.478  17.176  0.1003 -0.0132 -0.5689
 9692TIP3    H250492   2.090   1.578  17.077 -0.0558 -0.7449 -1.2289
 9693TIP3   OH250493   5.834   5.402   6.007  0.1746  0.0500 -0.0522
 9693TIP3    H150494   5.912   5.384   5.955 -0.3255  1.3882 -1.2850
 9693TIP3    H250495   5.869   5.432   6.092  0.9792 -1.6398  0.2343
 9694TIP3   OH250496   1.706   0.315  15.446 -0.0957 -0.1026 -0.1001
 9694TIP3    H150497   1.744   0.392  15.403 -0.1854  0.2546  0.4471
 9694TIP3    H250498   1.780   0.254  15.455  0.5091  0.8085  1.4526
 9695TIP3   OH250499   0.848   0.838  11.799 -0.0666  0.4714 -0.5959
 9695TIP3    H150500   0.802   0.903  11.746 -0.9582  0.0907 -0.2886
 9695TIP3    H250501   0.870   0.884  11.880 -1.2526  0.2098 -0.1229
 9696TIP3   OH250502   2.869   2.449  11.559  0.0199 -0.2860  0.1566
 9696TIP3    H150503   2.947   2.504  11.557 -0.7430  0.8755  1.4899
 9696TIP3    H250504   2.813   2.484  11.490 -1.0149  1.5215  1.8262
 9697TIP3   OH250505   0.643   5.018  12.536 -0.2611 -0.3420  0.2240
 9697TIP3    H150506   0.737   5.034  12.536 -0.0330 -1.5607  2.0522
 9697TIP3    H250507   0.611   5.062  12.457  1.7936  0.2918 -0.2768
 9698TIP3   OH250508   2.011   2.858   5.075  0.3848 -0.0550  0.4759
 9698TIP3    H150509   2.018   2.878   4.981  2.9565  0.2324  0.7023
 9698TIP3    H250510   1.933   2.905   5.103 -0.4263 -0.1382 -1.5166
 9699TIP3   OH250511   1.253   6.784   4.095 -0.2681 -0.2967 -0.3363
 9699TIP3    H150512   1.348   6.787   4.109 -0.5922  0.1918  1.9212
 9699TIP3    H250513   1.220   6.864   4.136 -1.8167 -1.2072  0.2409
 9700TIP3   OH250514   1.919   6.309  16.986  0.3971  0.0403  0.5115
 9700TIP3    H150515   1.984   6.319  16.916 -0.5063  1.7326 -0.1038
 9700TIP3    H250516   1.926   6.389  17.037 -1.0025  0.1139  0.6024
 9701TIP3   OH250517   0.226   2.173   0.842  0.4997  0.5693  0.1474
 9701TIP3    H150518   0.209   2.082   0.814  0.5228  1.0381 -1.4560
 9701TIP3    H250519   0.315   2.171   0.875  0.2877 -0.1290  0.6887
 9702TIP3   OH250520   4.288   2.464   4.156 -0.0539  0.4936 -0.2070
 9702TIP3    H150521   4.345   2.393   4.126  0.4547  1.0333 -0.5325
 9702TIP3    H250522   4.200   2.428   4.149  0.1341  0.1939 -1.2156
 9703TIP3   OH250523   1.900   1.257   2.993 -0.1751  0.5372 -0.5996
 9703TIP3    H150524   1.858   1.241   2.909 -0.6280  1.0025 -0.4658
 9703TIP3    H250525   1.973   1.195   2.996 -0.5649  0.0602 -1.0372
 9704TIP3   OH250526   4.041   3.315   6.069 -0.0886  0.1472  0.6505
 9704TIP3    H150527   3.995   3.270   6.140  0.0944 -1.7975 -0.4365
 9704TIP3    H250528   4.132   3.318   6.098  0.2319 -1.9101 -0.1181
 9705TIP3   OH250529   0.717   2.859   1.681  0.7444  0.2904  0.1222
 9705TIP3    H150530   0.811   2.847   1.667  0.8396  0.3650  0.6893
 9705TIP3    H250531   0.683   2.883   1.595  0.9099 -1.7592 -0.5462
 9706TIP3   OH250532   2.461   0.621   4.661 -0.1360  0.8862  0.1735
 9706TIP3    H150533   2.372   0.654   4.669 -1.6426 -2.5266 -1.7312
 9706TIP3    H250534   2.495   0.661   4.580 -0.7855  0.3736 -0.3566
 9707TIP3   OH250535   5.996   5.735   0.204  0.3705 -0.4002 -0.3347
 9707TIP3    H150536   5.905   5.764   0.217  0.1413 -1.0479 -0.4826
 9707TIP3    H250537   6.008   5.665   0.268  0.8304 -0.1877 -0.1857
 9708TIP3   OH250538   5.744   3.268  14.372  0.4322  0.2056  1.1613
 9708TIP3    H150539   5.708   3.322  14.442 -0.9238  0.4319  0.3052
 9708TIP3    H250540   5.740   3.323  14.294 -0.9359 -1.0915  0.2915
 9709TIP3   OH250541   1.514   2.359   4.888  0.0594  0.2580 -0.2743
 9709TIP3    H150542   1.539   2.360   4.980  1.0450  2.5993 -0.5388
 9709TIP3    H250543   1.431   2.406   4.885 -1.8282 -2.9008 -0.1423
 9710TIP3   OH250544   3.360   3.814  11.903 -0.0062 -0.4475 -0.1426
 9710TIP3    H150545   3.377   3.732  11.949  0.1436 -1.1595 -1.4268
 9710TIP3    H250546   3.296   3.860  11.958  1.5058 -0.4573  1.6622
 9711TIP3   OH250547   1.595   0.638  15.905 -0.0038 -0.1428 -0.4405
 9711TIP3    H150548   1.565   0.709  15.961  0.8744  0.8784 -1.2236
 9711TIP3    H250549   1.690   0.652  15.897  0.0169 -0.7701 -1.4606
 9712TIP3   OH250550   2.281   4.620  15.531  0.5171 -0.2306 -0.2325
 9712TIP3    H150551   2.357   4.679  15.534  0.7898 -0.6355  1.5506
 9712TIP3    H250552   2.320   4.533  15.526  0.1387 -0.3473 -1.0905
 9713TIP3   OH250553   2.942   1.194   5.365 -0.3901 -0.2835  0.2672
 9713TIP3    H150554   2.888   1.218   5.289 -1.5559 -0.7208  0.9340
 9713TIP3    H250555   2.988   1.114   5.338 -1.9670 -1.3069  0.5345
 9714TIP3   OH250556   3.363   2.293  16.369  0.1433 -0.0028 -0.2512
 9714TIP3    H150557   3.414   2.266  16.445  1.7949  0.4745 -1.1655
 9714TIP3    H250558   3.429   2.317  16.303 -1.2600  0.1834 -1.6142
 9715TIP3   OH250559   4.924   3.970  14.096  0.3346  0.2929 -0.3019
 9715TIP3    H150560   4.888   4.047  14.140  0.6416 -0.1310  0.6927
 9715TIP3    H250561   4.899   3.981  14.004 -0.1881  1.2465 -0.0474
 9716TIP3   OH250562   6.484   2.275   1.444  0.3518  0.8627  0.2193
 9716TIP3    H150563   6.475   2.370   1.453  1.2744  0.8911  0.8349
 9716TIP3    H250564   6.542   2.264   1.369  0.9432  0.8009  0.6848
 9717TIP3   OH250565   6.389   2.574   1.281  0.8503  0.2955 -0.1494
 9717TIP3    H150566   6.331   2.627   1.336  0.4282  0.0316 -0.3337
 9717TIP3    H250567   6.469   2.565   1.333  0.4362 -0.0000  0.4510
 9718TIP3   OH250568   4.593   3.970  13.883  0.0722  1.0601 -0.5114
 9718TIP3    H150569   4.532   4.042  13.869 -1.0409  0.6084  1.8162
 9718TIP3    H250570   4.573   3.938  13.971  0.7007 -1.9484 -1.4053
 9719TIP3   OH250571   3.376   0.463   4.777  0.6101  0.6455 -0.3412
 9719TIP3    H150572   3.409   0.499   4.859 -0.0964 -0.9612  0.6792
 9719TIP3    H250573   3.387   0.533   4.714  2.4546  1.4406  0.8165
 9720TIP3   OH250574   6.253   5.515  13.722 -0.1953 -0.1289  0.5711
 9720TIP3    H150575   6.282   5.454  13.791 -2.3739 -1.6714  0.1722
 9720TIP3    H250576   6.186   5.568  13.764 -0.0285  0.3586  0.2228
 9721TIP3   OH250577   0.143   5.709  14.498 -0.4495  0.0735  0.0079
 9721TIP3    H150578   0.113   5.796  14.472  0.0978  0.4735  0.7058
 9721TIP3    H250579   0.105   5.650  14.433 -1.2858  0.7709 -0.1420
 9722TIP3   OH250580   5.531   5.568  17.108  0.0132  0.4049  0.5187
 9722TIP3    H150581   5.517   5.662  17.103  0.1162  0.3775 -0.3071
 9722TIP3    H250582   5.505   5.544  17.197 -0.5440  1.1227  0.5490
 9723TIP3   OH250583   3.039   6.189  13.312  0.2851 -0.5142  0.1308
 9723TIP3    H150584   3.070   6.098  13.301  0.7105 -0.3619  0.0552
 9723TIP3    H250585   3.117   6.237  13.339 -0.1600 -0.3618  1.1829
 9724TIP3   OH250586   3.281   0.717   1.449 -0.5762 -0.3366 -0.3788
 9724TIP3    H150587   3.202   0.734   1.398 -0.6174 -0.7208 -0.4385
 9724TIP3    H250588   3.249   0.680   1.531 -0.5486  0.7625  0.1457
 9725TIP3   OH250589   6.457   4.704   1.127 -0.0982  0.1644 -0.3608
 9725TIP3    H150590   6.526   4.687   1.191 -1.3843 -1.8329  0.5910
 9725TIP3    H250591   6.376   4.701   1.179 -1.2393 -2.3383 -2.1756
 9726TIP3   OH250592   0.140   4.009   6.046  0.2702 -0.6972  0.1230
 9726TIP3    H150593   0.142   4.063   6.124 -0.1355 -0.3813 -0.0899
 9726TIP3    H250594   0.047   3.994   6.028  0.3828 -2.6565  1.0080
 9727TIP3   OH250595   4.161   0.065   6.560 -0.0203 -0.0992 -0.0550
 9727TIP3    H150596   4.175   0.063   6.466  0.7308  2.6862 -0.0635
 9727TIP3    H250597   4.065   0.063   6.570 -0.0803 -4.7782 -0.6248
 9728TIP3   OH250598   3.735   5.755  12.913  0.8820 -0.3646  0.2226
 9728TIP3    H150599   3.718   5.845  12.941 -2.2320 -1.0679  0.6870
 9728TIP3    H250600   3.731   5.759  12.817  1.4399  0.1050  0.2159
 9729TIP3   OH250601   2.800   1.498   0.345 -0.2512 -0.4154  0.3471
 9729TIP3    H150602   2.781   1.420   0.293 -0.9163  0.6148 -0.9788
 9729TIP3    H250603   2.719   1.549   0.341  1.2528  1.9087 -1.5931
 9730TIP3   OH250604   6.560   5.158   3.901  0.0243 -0.6751 -0.8595
 9730TIP3    H150605   6.603   5.217   3.962 -1.2755  0.6137 -1.1574
 9730TIP3    H250606   6.480   5.130   3.946 -0.6768 -0.1327 -1.7284
 9731TIP3   OH250607   1.373   1.200   3.184  0.0613 -0.0633  0.0548
 9731TIP3    H150608   1.405   1.180   3.095  0.1005 -0.0662  0.0699
 9731TIP3    H250609   1.317   1.126   3.206  0.2353 -0.1759  0.1238
 9732TIP3   OH250610   3.017   3.684  14.224 -0.5794 -0.4690  0.6022
 9732TIP3    H150611   2.958   3.756  14.203 -0.5792 -0.1050  1.8150
 9732TIP3    H250612   2.973   3.636  14.294  0.7633  0.1201  1.9061
 9733TIP3   OH250613   5.272   5.941   5.790 -0.1682  0.0374 -0.0834
 9733TIP3    H150614   5.321   5.910   5.713 -1.3469 -1.1023 -0.3861
 9733TIP3    H250615   5.270   6.036   5.779  0.2989 -0.0537 -1.0872
 9734TIP3   OH250616   0.792   2.279   5.401 -0.6414  0.0905 -0.4059
 9734TIP3    H150617   0.740   2.298   5.323  0.6168  0.6990 -1.1047
 9734TIP3    H250618   0.760   2.341   5.466  0.9558  2.2457 -1.5990
 9735TIP3   OH250619   6.716   4.382  12.209  0.5749 -0.0494  0.4172
 9735TIP3    H150620   6.737   4.289  12.217 -0.1817 -0.2023  0.6787
 9735TIP3    H250621   6.648   4.386  12.142  0.8027  0.3447  0.2077
 9736TIP3   OH250622   6.503   2.060   6.131  0.0302 -0.5118  0.2363
 9736TIP3    H150623   6.477   2.141   6.175  1.2115 -0.9767  1.7986
 9736TIP3    H250624   6.420   2.016   6.110 -0.5546  0.1950  1.0724
 9737TIP3   OH250625   0.633   3.900   6.128  0.0184 -0.2519  0.2120
 9737TIP3    H150626   0.705   3.889   6.190 -0.5845 -2.9413  0.5119
 9737TIP3    H250627   0.591   3.982   6.153  1.9804  0.4981  1.0741
 9738TIP3   OH250628   0.156   5.348   3.928  0.4384 -0.2797 -0.0119
 9738TIP3    H150629   0.101   5.358   3.850  0.7983 -1.5923 -0.4582
 9738TIP3    H250630   0.140   5.427   3.980 -0.7603  0.0174 -0.8188
 9739TIP3   OH250631   3.926   2.404   4.446  0.0568  0.3619 -0.6435
 9739TIP3    H150632   3.992   2.444   4.502 -0.9363 -0.0340  0.8299
 9739TIP3    H250633   3.921   2.462   4.370  1.1886  1.0812 -0.1796
 9740TIP3   OH250634   5.839   1.284   5.212 -0.3272  0.2549  0.0442
 9740TIP3    H150635   5.892   1.205   5.207  0.0087  0.5140 -0.5086
 9740TIP3    H250636   5.895   1.347   5.258  0.1558  0.7817 -1.2614
 9741TIP3   OH250637   1.255   1.302   5.217 -0.0016 -0.1889  0.4397
 9741TIP3    H150638   1.170   1.334   5.246 -1.0548 -2.0288 -0.4918
 9741TIP3    H250639   1.312   1.379   5.218 -2.4156  1.7061 -1.7061
 9742TIP3   OH250640   6.027   0.228  11.943 -0.1509 -0.4458  0.4421
 9742TIP3    H150641   6.095   0.294  11.927  0.4296 -0.8488  1.2269
 9742TIP3    H250642   5.974   0.265  12.013  0.0870 -0.7390  0.7802
 9743TIP3   OH250643   4.560   2.238  16.630 -0.1055  0.0828  0.0617
 9743TIP3    H150644   4.528   2.318  16.589  2.4424  0.9972 -0.2407
 9743TIP3    H250645   4.610   2.268  16.706  1.7116 -1.1380 -0.6283
 9744TIP3   OH250646   4.380   2.231   0.681 -0.8206 -0.2653 -0.9991
 9744TIP3    H150647   4.330   2.235   0.763  0.3239 -0.6386 -0.2716
 9744TIP3    H250648   4.469   2.209   0.709 -0.0476  1.2499 -2.1892
 9745TIP3   OH250649   3.313   2.299   5.111  0.3689  0.6650 -0.0531
 9745TIP3    H150650   3.374   2.345   5.168 -0.7469 -0.9070  2.4945
 9745TIP3    H250651   3.333   2.206   5.123  0.5698  0.3163 -2.7920
 9746TIP3   OH250652   4.396   4.570   0.256  0.3340 -0.1311  0.1186
 9746TIP3    H150653   4.307   4.597   0.278  0.1519  0.4585 -1.2938
 9746TIP3    H250654   4.385   4.506   0.186  0.9183 -1.7753  1.4982
 9747TIP3   OH250655   4.358   2.323  12.481 -0.2514 -0.0375 -0.3379
 9747TIP3    H150656   4.384   2.236  12.512  0.8716  0.2536 -0.4378
 9747TIP3    H250657   4.264   2.315  12.464 -0.5373 -0.7258  1.3728
 9748TIP3   OH250658   2.104   6.597   1.402 -0.2281  0.0746 -0.0156
 9748TIP3    H150659   2.198   6.611   1.396 -0.4197  0.9192 -1.1283
 9748TIP3    H250660   2.072   6.606   1.312 -1.3813 -0.0701  0.3687
 9749TIP3   OH250661   0.866   5.558   4.533 -0.3623 -0.5187 -0.3464
 9749TIP3    H150662   0.858   5.468   4.564 -0.5985 -0.2039  0.5091
 9749TIP3    H250663   0.928   5.600   4.593  1.3298 -0.6515 -1.9467
 9750TIP3   OH250664   1.597   5.800  15.306  0.5778 -0.1671 -0.5065
 9750TIP3    H150665   1.571   5.728  15.248  1.2487 -0.0916 -0.9077
 9750TIP3    H250666   1.524   5.809  15.367 -0.8929  0.7851 -2.3149
 9751TIP3   OH250667   5.775   0.763  15.228  0.0271 -0.4031 -0.0025
 9751TIP3    H150668   5.711   0.828  15.200  1.5586  1.1093 -0.0248
 9751TIP3    H250669   5.730   0.714  15.298 -1.0543  0.7998  0.1644
 9752TIP3   OH250670   5.276   5.714  10.625 -0.1407 -0.3916 -0.4663
 9752TIP3    H150671   5.197   5.717  10.571 -1.5630 -2.0996  1.4683
 9752TIP3    H250672   5.280   5.799  10.668 -1.2757 -0.5451 -0.0635
 9753TIP3   OH250673   6.036   4.945   2.148  0.0232  0.3611 -0.6599
 9753TIP3    H150674   6.085   4.872   2.185  0.9956  0.4148 -1.7929
 9753TIP3    H250675   6.030   4.925   2.054 -2.5143  0.1371 -0.4871
 9754TIP3   OH250676   1.057   5.521  12.672 -0.2133  0.6729  0.2369
 9754TIP3    H150677   1.052   5.504  12.766 -1.8506  1.3914  0.2958
 9754TIP3    H250678   1.148   5.502  12.649 -0.4794 -2.3292  1.4063
 9755TIP3   OH250679   3.812   3.817   2.936 -0.0997 -0.2689 -0.0287
 9755TIP3    H150680   3.796   3.816   2.841  0.1835 -0.9335 -0.0653
 9755TIP3    H250681   3.754   3.886   2.968 -0.5488 -0.3599 -0.6260
 9756TIP3   OH250682   3.292   0.858   0.029  0.6648  0.1005  0.0436
 9756TIP3    H150683   3.337   0.825  -0.049  2.1261  0.6074  0.6559
 9756TIP3    H250684   3.292   0.953   0.017 -2.3589  0.0047 -1.0841
 9757TIP3   OH250685   2.022   4.729  15.235 -0.7483 -0.8802 -0.1187
 9757TIP3    H150686   1.943   4.738  15.181  0.6847  0.6302 -2.0781
 9757TIP3    H250687   2.015   4.800  15.299 -0.8647 -0.6027 -0.4360
 9758TIP3   OH250688   2.659   4.354   4.761 -0.0087 -0.5683 -0.6337
 9758TIP3    H150689   2.734   4.309   4.801  0.6730 -1.1632 -2.5362
 9758TIP3    H250690   2.693   4.440   4.737 -0.6804  0.1465  0.8673
 9759TIP3   OH250691   4.056   0.130   5.086  0.4417 -0.1389  0.2822
 9759TIP3    H150692   4.132   0.071   5.087  0.1541 -0.5951  3.5438
 9759TIP3    H250693   3.987   0.081   5.132 -0.9636  1.3317 -0.2024
 9760TIP3   OH250694   4.760   6.620  15.631  0.6762  0.1957 -0.0150
 9760TIP3    H150695   4.742   6.528  15.648  1.2740  0.2003  0.7061
 9760TIP3    H250696   4.814   6.620  15.552 -1.3730  0.1038 -1.4447
 9761TIP3   OH250697   0.582   3.975  15.108  0.4435 -0.1087  0.1677
 9761TIP3    H150698   0.615   3.937  15.027 -1.2690 -0.8591 -0.2000
 9761TIP3    H250699   0.526   4.048  15.079 -1.4644 -1.3800  0.5815
 9762TIP3   OH250700   1.171   2.399  15.075 -0.4846  0.3676  0.2012
 9762TIP3    H150701   1.236   2.461  15.106 -0.8770  0.0568  1.6557
 9762TIP3    H250702   1.093   2.452  15.060 -0.5389  0.3789  0.5290
 9763TIP3   OH250703   4.663   6.769  16.208 -0.8032 -0.0230 -0.2885
 9763TIP3    H150704   4.580   6.748  16.249 -0.3218  2.5467  2.1637
 9763TIP3    H250705   4.690   6.852  16.248  2.6160 -0.4482 -1.4809
 9764TIP3   OH250706   4.627   3.700  11.075  0.4565  0.3192 -0.0103
 9764TIP3    H150707   4.632   3.764  11.004 -0.1786  1.2421  0.7678
 9764TIP3    H250708   4.643   3.750  11.154  0.8142 -0.6472  0.5421
 9765TIP3   OH250709   1.999   0.375  16.838  0.2441 -0.3989  0.0882
 9765TIP3    H150710   1.916   0.340  16.805 -0.1034  0.2606  0.2617
 9765TIP3    H250711   2.019   0.321  16.914 -0.5680  0.1077  0.6756
 9766TIP3   OH250712   3.738   6.428   1.772 -0.4635 -0.1299  0.7135
 9766TIP3    H150713   3.663   6.452   1.718 -0.4479 -0.3091  0.6143
 9766TIP3    H250714   3.701   6.380   1.846 -0.2666 -1.9015 -0.3173
 9767TIP3   OH250715   5.497   5.907  12.756 -0.1721  0.1025 -0.3399
 9767TIP3    H150716   5.478   5.831  12.702  0.2293 -0.7684  0.7294
 9767TIP3    H250717   5.441   5.977  12.720 -0.5057 -0.6792 -1.3424
 9768TIP3   OH250718   0.170   2.400  12.267 -0.0932  0.1189  0.0612
 9768TIP3    H150719   0.123   2.363  12.191  0.3332  0.2836 -0.2829
 9768TIP3    H250720   0.190   2.323  12.321 -0.6384  0.0312  0.1407
 9769TIP3   OH250721   5.698   1.382  15.927  0.1300  0.1276 -0.0750
 9769TIP3    H150722   5.659   1.443  15.990 -2.6432 -0.0710 -1.4950
 9769TIP3    H250723   5.783   1.420  15.905  0.6011  0.8409  2.8144
 9770TIP3   OH250724   2.328   1.877  12.756  0.2059 -0.3544 -0.4715
 9770TIP3    H150725   2.356   1.787  12.742  0.3567 -0.0809 -1.9910
 9770TIP3    H250726   2.408   1.929  12.747  0.4018 -0.1973  1.9230
 9771TIP3   OH250727   0.272   5.570  13.418  0.6601 -0.2035  0.0854
 9771TIP3    H150728   0.183   5.572  13.454  0.6604 -2.0992  0.2641
 9771TIP3    H250729   0.267   5.507  13.346  1.9550 -0.6451  0.3816
 9772TIP3   OH250730   6.683   3.818  12.090  0.5750 -0.1554  0.4494
 9772TIP3    H150731   6.777   3.802  12.104  0.3954 -0.5477  1.2338
 9772TIP3    H250732   6.640   3.750  12.142 -0.1414 -0.0716 -0.0430
 9773TIP3   OH250733   5.784   3.915   2.215  0.0134  0.2593 -0.5627
 9773TIP3    H150734   5.796   3.930   2.309 -0.6004 -0.9971 -0.2716
 9773TIP3    H250735   5.835   3.984   2.173 -1.3011  2.0409  0.6976
 9774TIP3   OH250736   4.330   1.624  10.871  0.3256 -0.0161 -0.5153
 9774TIP3    H150737   4.384   1.594  10.945 -0.0737  0.9080  0.1754
 9774TIP3    H250738   4.269   1.686  10.911 -1.1432 -0.9251 -1.3243
 9775TIP3   OH250739   0.649   6.230  13.144  0.0709  0.0543 -0.0683
 9775TIP3    H150740   0.735   6.203  13.176  0.0630  0.5551  0.3791
 9775TIP3    H250741   0.658   6.231  13.049  0.1358 -1.3071 -0.0950
 9776TIP3   OH250742   2.330   6.306  11.860  0.0001  0.7856  0.2245
 9776TIP3    H150743   2.282   6.276  11.937 -1.1945  1.5514 -0.2103
 9776TIP3    H250744   2.421   6.307  11.887  0.1024 -3.2110  0.2842
 9777TIP3   OH250745   4.380   0.136  15.115  0.0313  0.0750  0.4055
 9777TIP3    H150746   4.306   0.094  15.158 -1.0306  0.7421 -0.7388
 9777TIP3    H250747   4.451   0.071  15.120 -0.8036 -0.7992  0.9905
 9778TIP3   OH250748   5.725   2.327   1.541 -0.2522 -0.1712  0.8567
 9778TIP3    H150749   5.689   2.239   1.532  1.8972 -1.0820  0.9588
 9778TIP3    H250750   5.786   2.320   1.615  1.4339  0.9092 -0.4173
 9779TIP3   OH250751   6.301   4.495   0.495  0.3171  0.1751 -0.6446
 9779TIP3    H150752   6.284   4.577   0.542 -0.6547 -0.2187 -0.2924
 9779TIP3    H250753   6.396   4.484   0.499  0.4352  1.2218 -0.5852
 9780TIP3   OH250754   1.255   1.668   1.895 -0.1702  0.0099  0.5594
 9780TIP3    H150755   1.213   1.728   1.956  0.3390  0.3993  0.5385
 9780TIP3    H250756   1.187   1.605   1.871 -0.6149  0.3814  0.8423
 9781TIP3   OH250757   1.220   4.884   0.161  0.5559  0.0690 -0.3724
 9781TIP3    H150758   1.184   4.899   0.249 -1.3937  1.5316 -1.3581
 9781TIP3    H250759   1.263   4.799   0.167 -1.3450 -0.8219  1.4536
 9782TIP3   OH250760   2.114   0.043   0.160  0.1299  0.6959 -0.7961
 9782TIP3    H150761   2.048  -0.026   0.145  0.4234  0.3950 -0.7098
 9782TIP3    H250762   2.084   0.087   0.240  0.6140 -0.1322 -0.1553
 9783TIP3   OH250763   4.963   4.606   7.068 -0.0633  0.3592  0.1384
 9783TIP3    H150764   4.929   4.539   7.009 -2.2698  1.6900 -0.1793
 9783TIP3    H250765   4.948   4.689   7.021  1.6295  1.1552  0.9623
 9784TIP3   OH250766   5.239   2.723   4.956  0.9097  0.2511  0.7458
 9784TIP3    H150767   5.282   2.663   5.017 -0.1911 -1.6277 -0.2766
 9784TIP3    H250768   5.159   2.750   5.002  0.7886 -0.0545  0.7193
 9785TIP3   OH250769   6.447   0.901  16.422  0.3380 -0.0781 -0.1003
 9785TIP3    H150770   6.515   0.944  16.475  1.8749  0.3485 -2.3274
 9785TIP3    H250771   6.434   0.816  16.464  2.4061 -0.2273  0.3065
 9786TIP3   OH250772   0.708   5.755  16.758 -0.0810  0.7161  0.1572
 9786TIP3    H150773   0.748   5.746  16.672  0.2589 -0.0235  0.3879
 9786TIP3    H250774   0.728   5.673  16.803 -1.2134  0.6419  0.5425
 9787TIP3   OH250775   4.829   0.461   5.452  0.2291 -0.1008  0.3972
 9787TIP3    H150776   4.779   0.532   5.411  0.5230  0.3603  0.8223
 9787TIP3    H250777   4.872   0.417   5.378 -0.0003  0.1264  0.1238
 9788TIP3   OH250778   6.301   2.024  15.654  0.3781 -0.2520  0.9205
 9788TIP3    H150779   6.348   2.104  15.629 -0.2158 -0.3587 -0.5479
 9788TIP3    H250780   6.275   2.039  15.745  1.7043  0.5416  1.1858
 9789TIP3   OH250781   1.367   5.661   1.213 -0.8841  0.5522  0.1825
 9789TIP3    H150782   1.362   5.749   1.176 -1.2038  0.6979  0.5648
 9789TIP3    H250783   1.287   5.652   1.264 -1.1996 -0.2316 -0.4390
 9790TIP3   OH250784   2.666   3.034   5.940  0.7498 -0.3104  0.2551
 9790TIP3    H150785   2.690   3.107   5.881  0.3881 -0.2208  0.2153
 9790TIP3    H250786   2.749   2.997   5.967  0.9529  0.3562  0.5704
 9791TIP3   OH250787   1.526   1.425  15.193  0.3404 -0.3884 -0.3244
 9791TIP3    H150788   1.507   1.424  15.287 -0.1725 -2.0791 -0.4244
 9791TIP3    H250789   1.498   1.512  15.163 -0.6838 -0.3099  0.8456
 9792TIP3   OH250790   4.873   6.062   3.585 -0.3994 -0.2399 -0.4690
 9792TIP3    H150791   4.809   6.130   3.562  0.7973  1.5231  1.1899
 9792TIP3    H250792   4.869   6.056   3.680 -0.0542 -2.0887 -0.5624
 9793TIP3   OH250793   4.610   1.178  16.372  0.1442 -0.2718 -0.1733
 9793TIP3    H150794   4.652   1.203  16.454 -0.0058 -0.4032 -0.0555
 9793TIP3    H250795   4.517   1.172  16.393  0.3382 -2.4744  0.1992
 9794TIP3   OH250796   3.239   4.180  14.904  0.6325  0.2602  0.0653
 9794TIP3    H150797   3.300   4.153  14.835 -0.3943  0.3833 -0.8923
 9794TIP3    H250798   3.193   4.100  14.929 -1.6720  0.8754 -2.0481
 9795TIP3   OH250799   5.772   1.758  16.254  0.9477 -0.4693  0.0932
 9795TIP3    H150800   5.864   1.753  16.227  0.8185 -0.6327 -0.3203
 9795TIP3    H250801   5.730   1.686  16.208  0.1060  1.1229 -1.7278
 9796TIP3   OH250802   5.209   4.588  15.729  0.0099 -0.2379 -0.1754
 9796TIP3    H150803   5.178   4.670  15.768 -2.6600 -1.0033 -0.5499
 9796TIP3    H250804   5.193   4.523  15.797  0.6038 -0.7132 -0.4876
 9797TIP3   OH250805   6.720   4.548   0.648  1.0802 -0.5703  0.0189
 9797TIP3    H150806   6.679   4.634   0.656  2.3322  0.2089 -1.7820
 9797TIP3    H250807   6.659   4.498   0.595  0.4986 -0.7186  0.8099
 9798TIP3   OH250808   1.702   5.366   0.009  0.1187  0.6501 -0.0932
 9798TIP3    H150809   1.607   5.369   0.014  0.0132  4.3753 -2.1140
 9798TIP3    H250810   1.732   5.411   0.088  0.1270  0.7698 -0.1627
 9799TIP3   OH250811   2.583   3.317   0.619 -0.3098 -0.0222 -0.1025
 9799TIP3    H150812   2.664   3.362   0.643  0.1707 -0.7379 -0.3800
 9799TIP3    H250813   2.608   3.261   0.546 -0.9159 -0.7236  0.2292
 9800TIP3   OH250814   2.576   0.627  14.222 -0.2077 -0.5657  0.2614
 9800TIP3    H150815   2.649   0.600  14.276 -0.3675  0.1318  0.8311
 9800TIP3    H250816   2.556   0.551  14.167  0.4928 -0.9804  0.5927
 9801TIP3   OH250817   3.651   5.203   3.967  0.1470  0.1186 -0.4746
 9801TIP3    H150818   3.722   5.204   4.032 -0.2565 -0.7970 -0.0132
 9801TIP3    H250819   3.640   5.294   3.942 -0.4677  0.6441  1.6049
 9802TIP3   OH250820   6.397   4.088  14.606  0.5263 -0.7345 -0.1793
 9802TIP3    H150821   6.395   4.056  14.696  2.3774 -0.6433 -0.0774
 9802TIP3    H250822   6.331   4.036  14.560  1.5598 -2.7823  0.5862
 9803TIP3   OH250823   3.043   4.922  16.604  0.2161 -0.6321 -0.3256
 9803TIP3    H150824   3.047   4.834  16.640  0.6689 -0.9006 -1.0020
 9803TIP3    H250825   3.123   4.965  16.636 -0.2094 -0.3319  0.3390
 9804TIP3   OH250826   3.237   5.405   5.515 -0.0546  0.3651 -0.4983
 9804TIP3    H150827   3.230   5.334   5.451 -1.1303 -0.6601  0.7234
 9804TIP3    H250828   3.324   5.395   5.554 -0.7323 -1.1781  0.6687
 9805TIP3   OH250829   6.109   0.223   3.203 -0.2950  0.6429  0.1826
 9805TIP3    H150830   6.029   0.251   3.158  0.1330  1.4530 -0.0850
 9805TIP3    H250831   6.078   0.172   3.277 -1.0770  1.4052  0.3916
 9806TIP3   OH250832   2.241   2.288  11.876  0.1870 -0.3700 -0.4891
 9806TIP3    H150833   2.290   2.335  11.808 -0.3107  0.5961 -0.1914
 9806TIP3    H250834   2.277   2.320  11.958 -1.3137  0.7987 -0.2529
 9807TIP3   OH250835   1.464   1.118  15.950 -0.5787 -0.0869 -0.5098
 9807TIP3    H150836   1.372   1.139  15.965 -0.1094  2.3721 -0.7812
 9807TIP3    H250837   1.480   1.145  15.859  0.5132 -0.0130 -0.3030
 9808TIP3   OH250838   2.543   3.948   3.088  0.3105  0.3982  0.5128
 9808TIP3    H150839   2.564   4.041   3.100  0.9144  0.3919 -0.5057
 9808TIP3    H250840   2.594   3.903   3.155  1.9099  0.5738 -0.5869
 9809TIP3   OH250841   3.447   3.044   3.987 -0.0393  0.3464 -0.1763
 9809TIP3    H150842   3.505   3.015   4.058  0.0755 -0.3146 -0.5317
 9809TIP3    H250843   3.507   3.076   3.919 -0.0494 -1.1152 -0.8834
 9810TIP3   OH250844   4.552   3.844  12.709 -0.3579 -0.6352 -0.1245
 9810TIP3    H150845   4.507   3.843  12.624  1.3389  1.7614 -1.1158
 9810TIP3    H250846   4.486   3.873  12.771 -0.8548  0.4329 -1.1400
 9811TIP3   OH250847   1.030   2.315  16.796 -0.1983 -0.3465 -0.0105
 9811TIP3    H150848   1.093   2.291  16.728  0.1913 -1.8485  0.8490
 9811TIP3    H250849   1.038   2.410  16.804  1.2186 -0.3990 -0.6252
 9812TIP3   OH250850   1.082   6.772   3.536 -0.2998 -0.1498 -0.4225
 9812TIP3    H150851   1.165   6.795   3.578 -0.5266 -0.7588  0.3891
 9812TIP3    H250852   1.052   6.695   3.584 -1.3676  0.1054 -0.6624
 9813TIP3   OH250853   1.896   3.099  11.547 -0.4309 -0.8476  0.7974
 9813TIP3    H150854   1.920   3.098  11.640 -0.1654  0.8749  0.7615
 9813TIP3    H250855   1.950   3.167  11.508 -3.3870  1.2942  0.2015
 9814TIP3   OH250856   3.954   4.061   0.708 -0.1290  0.1348 -0.3466
 9814TIP3    H150857   4.019   3.992   0.699 -0.6928 -0.2114 -1.9623
 9814TIP3    H250858   3.870   4.018   0.693 -0.5181  1.0714 -0.9665
 9815TIP3   OH250859   0.244   0.323  11.700 -0.1966  0.0590  0.2492
 9815TIP3    H150860   0.203   0.279  11.775  1.9793 -0.5168  1.1420
 9815TIP3    H250861   0.338   0.325  11.722  0.3220  0.9102 -1.9480
 9816TIP3   OH250862   6.340   0.904  12.461  0.0058 -0.2233 -0.5580
 9816TIP3    H150863   6.345   0.880  12.368 -0.1915 -0.0867 -0.6055
 9816TIP3    H250864   6.289   0.835  12.501 -1.6110  0.7251 -0.9195
 9817TIP3   OH250865   0.955   6.694  14.724  0.3480 -0.1943 -0.0051
 9817TIP3    H150866   0.985   6.685  14.634  1.6028  0.6236  0.3204
 9817TIP3    H250867   1.003   6.770  14.758 -1.7208  0.8318  0.6862
 9818TIP3   OH250868   4.699   3.630   6.384 -0.0118  0.5623 -0.2735
 9818TIP3    H150869   4.722   3.640   6.476  1.4783  1.7474 -0.7489
 9818TIP3    H250870   4.660   3.714   6.359 -0.8008  0.0982 -0.6226
 9819TIP3   OH250871   6.755   4.099  14.260 -0.5948  0.1351 -0.1212
 9819TIP3    H150872   6.679   4.044  14.281 -1.0964  0.7013 -0.4267
 9819TIP3    H250873   6.782   4.136  14.344 -1.0380  0.4117 -0.0968
 9820TIP3   OH250874   5.022   0.484  10.382 -0.3904  0.5251 -0.8156
 9820TIP3    H150875   4.936   0.457  10.415 -0.1180 -0.0750 -0.5697
 9820TIP3    H250876   5.079   0.409  10.402  0.3935  1.2957 -0.1210
 9821TIP3   OH250877   3.419   0.229  12.958 -0.1643 -0.2872 -0.4889
 9821TIP3    H150878   3.409   0.185  12.873  0.3728 -2.3235  0.4826
 9821TIP3    H250879   3.487   0.294  12.943 -0.1711 -0.5290 -1.6553
 9822TIP3   OH250880   0.260   4.141  17.114  0.4223 -0.0440  0.2833
 9822TIP3    H150881   0.215   4.058  17.126 -0.5061  0.7359  2.3140
 9822TIP3    H250882   0.349   4.125  17.145  1.2900 -1.2536 -2.6622
 9823TIP3   OH250883   5.350   5.273  12.389  0.4439 -0.5673 -0.3668
 9823TIP3    H150884   5.412   5.228  12.331 -0.4483  0.3913 -2.0856
 9823TIP3    H250885   5.265   5.264  12.346 -0.2234  0.2929  0.7336
 9824TIP3   OH250886   1.139   1.300   0.918 -0.5299 -0.2840 -0.4747
 9824TIP3    H150887   1.126   1.383   0.872  1.8421  0.0734 -0.5597
 9824TIP3    H250888   1.192   1.247   0.858 -0.1498 -1.0226  0.4926
 9825TIP3   OH250889   2.300   1.029  12.165  0.0135  0.2346  0.1154
 9825TIP3    H150890   2.262   1.028  12.077  0.7269  2.3680 -0.2505
 9825TIP3    H250891   2.351   0.948  12.170 -0.2649 -0.0414 -1.3387
 9826TIP3   OH250892   3.956   1.264   2.851 -0.0403  0.2368 -0.3915
 9826TIP3    H150893   4.000   1.247   2.768  2.1639  1.4280  0.4965
 9826TIP3    H250894   4.023   1.250   2.918 -1.6076 -0.0861  1.1629
 9827TIP3   OH250895   1.269   2.306   4.270  0.3044 -0.2114 -0.0990
 9827TIP3    H150896   1.226   2.338   4.350  0.8716  0.3897 -0.0284
 9827TIP3    H250897   1.358   2.340   4.276  0.5568 -0.7686 -0.6424
 9828TIP3   OH250898   3.398   6.120  14.490  0.2202  0.4822 -0.5864
 9828TIP3    H150899   3.378   6.026  14.483  0.9191 -0.0107  2.8457
 9828TIP3    H250900   3.469   6.134  14.428  1.8391 -1.8561  0.6813
 9829TIP3   OH250901   1.535   6.305   0.926  0.7134  0.3750 -0.4348
 9829TIP3    H150902   1.561   6.308   0.834  2.5522 -1.1135  0.0149
 9829TIP3    H250903   1.611   6.269   0.971 -0.5345  0.1621  1.5370
 9830TIP3   OH250904   0.519   6.273   6.169  0.2451  0.0464 -0.5096
 9830TIP3    H150905   0.564   6.201   6.214 -2.9475 -1.7485 -0.0013
 9830TIP3    H250906   0.477   6.322   6.240 -0.8380  0.0578 -1.1523
 9831TIP3   OH250907   0.407   3.440  12.687  0.2747 -0.3016 -0.2258
 9831TIP3    H150908   0.475   3.508  12.684  0.0929 -0.1299 -0.5845
 9831TIP3    H250909   0.384   3.433  12.779  2.4141 -2.0144  0.2200
 9832TIP3   OH250910   3.994   1.023   3.495 -0.4819 -0.0644 -0.3614
 9832TIP3    H150911   4.085   1.053   3.498 -0.3119 -0.6866  1.1610
 9832TIP3    H250912   4.001   0.929   3.477 -0.7365 -0.4261  1.3171
 9833TIP3   OH250913   2.453   4.929  13.433 -0.1081  0.1635 -0.0650
 9833TIP3    H150914   2.400   4.937  13.354  0.0748  1.4676 -0.0716
 9833TIP3    H250915   2.487   5.018  13.448 -0.4011  0.0092  1.6558
 9834TIP3   OH250916   1.165   5.684   2.029  0.3145 -0.4526  0.5834
 9834TIP3    H150917   1.152   5.777   2.008  0.8703  0.0895  2.4827
 9834TIP3    H250918   1.078   5.645   2.018 -0.1846  0.5466  0.8840
 9835TIP3   OH250919   1.119   6.413  12.160  0.0880  0.1649  0.0392
 9835TIP3    H150920   1.024   6.403  12.162 -0.1013  1.9160 -0.0544
 9835TIP3    H250921   1.133   6.501  12.127  1.7407  0.2078  0.8418
 9836TIP3   OH250922   6.371   4.829   6.438 -0.5157 -0.1529 -0.0443
 9836TIP3    H150923   6.418   4.837   6.521 -1.3940 -0.2610  0.4689
 9836TIP3    H250924   6.286   4.870   6.455 -0.8625 -0.5722 -0.7649
 9837TIP3   OH250925   5.717   2.869  11.340 -0.4106  0.0774 -0.1289
 9837TIP3    H150926   5.677   2.920  11.270 -0.2749 -0.2031 -0.4132
 9837TIP3    H250927   5.643   2.845  11.396 -0.6922 -0.6840 -0.8089
 9838TIP3   OH250928   5.907   3.281  15.957 -0.4015  0.0208  0.6053
 9838TIP3    H150929   5.814   3.278  15.980 -0.5040 -1.7721  0.0432
 9838TIP3    H250930   5.941   3.196  15.981  0.3541 -0.5292 -2.1580
 9839TIP3   OH250931   1.069   4.817   2.639  0.0802  0.2680 -0.2266
 9839TIP3    H150932   1.088   4.725   2.658 -0.2635  0.1595 -0.4141
 9839TIP3    H250933   1.154   4.855   2.616  0.1924 -0.0402 -0.3160
 9840TIP3   OH250934   0.148   2.397  15.570 -0.3202 -0.0720  0.0051
 9840TIP3    H150935   0.124   2.485  15.599  2.2105  0.3465  1.0296
 9840TIP3    H250936   0.219   2.410  15.507  0.9998 -1.3890  1.1537
 9841TIP3   OH250937   1.669   0.263   2.182  0.1412 -0.1268  0.0494
 9841TIP3    H150938   1.739   0.203   2.210  0.0593 -0.3967 -0.3254
 9841TIP3    H250939   1.640   0.305   2.263  1.8890  1.2254  0.0049
 9842TIP3   OH250940   0.304   2.041  12.921  0.2604 -0.3849 -0.0533
 9842TIP3    H150941   0.388   1.994  12.924  0.6625  0.4347  2.1563
 9842TIP3    H250942   0.321   2.116  12.864  0.2871 -1.5543 -1.6437
 9843TIP3   OH250943   4.299   6.341  13.053  0.3831 -0.4309 -0.3907
 9843TIP3    H150944   4.308   6.290  13.133  0.1950  1.2132  0.6952
 9843TIP3    H250945   4.389   6.368  13.032  0.2727  0.2977  0.0491
 9844TIP3   OH250946   1.919   4.629  14.497  0.5702  0.2278  0.0784
 9844TIP3    H150947   1.856   4.659  14.563  1.5675  2.1415  0.2122
 9844TIP3    H250948   1.893   4.674  14.417 -0.1835 -1.5129 -0.6660
 9845TIP3   OH250949   4.529   5.961   3.537 -0.6515  0.1611  0.6260
 9845TIP3    H150950   4.439   5.949   3.507  0.1031 -0.3390 -1.5552
 9845TIP3    H250951   4.541   6.056   3.539 -1.6431  0.2603  2.2671
 9846TIP3   OH250952   2.854   0.661  13.140  0.1367 -0.3418  0.1289
 9846TIP3    H150953   2.863   0.686  13.048 -0.7349 -0.8619 -0.0967
 9846TIP3    H250954   2.908   0.583  13.149  0.6013 -0.0207  0.1774
 9847TIP3   OH250955   6.591   2.043  15.054 -0.3051  0.3726  0.1236
 9847TIP3    H150956   6.514   2.072  15.102  0.3311 -0.1257  1.4629
 9847TIP3    H250957   6.648   2.120  15.052 -0.8757  0.7780 -0.9745
 9848TIP3   OH250958   2.195   3.868  16.425 -0.0264  0.2313  0.0961
 9848TIP3    H150959   2.232   3.828  16.346  0.8109  1.4926 -0.1627
 9848TIP3    H250960   2.107   3.896  16.398  0.4585  1.1493 -0.5605
 9849TIP3   OH250961   1.402   3.091   2.561 -0.4457  0.3511 -0.7960
 9849TIP3    H150962   1.395   3.014   2.617 -0.8412  1.0259  0.0925
 9849TIP3    H250963   1.312   3.110   2.533 -0.7082  1.9754  1.0377
 9850TIP3   OH250964   4.314   1.090  12.379  0.3305  0.3346 -0.3289
 9850TIP3    H150965   4.320   0.994  12.381 -0.8031  0.2691  0.4248
 9850TIP3    H250966   4.298   1.111  12.287  3.3052 -0.0032 -0.9875
 9851TIP3   OH250967   2.858   1.684   2.842 -1.2111 -0.3449  0.2891
 9851TIP3    H150968   2.859   1.612   2.779  0.2403  1.0430 -1.3422
 9851TIP3    H250969   2.949   1.692   2.871 -1.4310  0.5709  0.7549
 9852TIP3   OH250970   6.545   0.880   4.666  0.0396 -0.3027  0.3626
 9852TIP3    H150971   6.466   0.931   4.652 -0.1070 -1.0533 -1.6821
 9852TIP3    H250972   6.527   0.829   4.745 -0.6948  1.0969  1.1058
 9853TIP3   OH250973   0.280   4.382   6.307  0.0810 -0.4836 -0.0645
 9853TIP3    H150974   0.219   4.456   6.300 -0.9249 -1.2576  0.3451
 9853TIP3    H250975   0.314   4.387   6.397  1.4986  0.6113 -0.6456
 9854TIP3   OH250976   0.249   6.147   3.460 -0.3316 -0.4694 -0.7314
 9854TIP3    H150977   0.168   6.111   3.424  0.0829 -1.6467 -0.5388
 9854TIP3    H250978   0.309   6.072   3.461  0.4929  0.1914 -0.0899
 9855TIP3   OH250979   5.200   1.490   2.358  0.6101  0.3317  0.0669
 9855TIP3    H150980   5.119   1.452   2.325  0.8208 -0.9713  1.0162
 9855TIP3    H250981   5.176   1.530   2.442  0.9279  0.0049  0.3175
 9856TIP3   OH250982   4.561   3.024   4.396 -0.1653 -0.0514 -0.1661
 9856TIP3    H150983   4.635   2.973   4.429  0.0371 -0.2235 -0.8595
 9856TIP3    H250984   4.485   2.991   4.444 -0.0822 -1.2353 -0.8148
 9857TIP3   OH250985   0.499   3.534  15.205  0.0569 -0.0076 -0.5065
 9857TIP3    H150986   0.513   3.490  15.122  0.6561  1.1802 -1.0490
 9857TIP3    H250987   0.500   3.464  15.270 -0.1488 -0.9087 -1.4673
 9858TIP3   OH250988   3.794   4.631   6.613  0.6308  0.0200 -0.3297
 9858TIP3    H150989   3.805   4.559   6.675 -0.4731 -1.1167 -1.4078
 9858TIP3    H250990   3.830   4.597   6.531  0.2293  0.7428 -0.8111
 9859TIP3   OH250991   0.650   3.674  16.472 -0.3531  0.0978  0.0903
 9859TIP3    H150992   0.622   3.587  16.445  0.2786 -0.1095  0.0847
 9859TIP3    H250993   0.605   3.733  16.411 -0.8282 -0.2193  0.1326
 9860TIP3   OH250994   0.569   5.078  11.473 -0.0596 -0.3825  0.5836
 9860TIP3    H150995   0.639   5.018  11.499  0.6958  0.1093 -0.2726
 9860TIP3    H250996   0.496   5.020  11.448  0.5225 -0.9440  0.1614
 9861TIP3   OH250997   6.455   5.769   3.606 -0.5802 -0.4966  0.2342
 9861TIP3    H150998   6.490   5.733   3.688  0.1993  0.0070  0.1281
 9861TIP3    H250999   6.479   5.862   3.609  1.7801 -1.0002 -1.7828
 9862TIP3   OH251000   1.700   5.886   0.011  0.0806  0.2948  0.0414
 9862TIP3    H151001   1.625   5.827   0.001  1.2186 -1.2510  0.5483
 9862TIP3    H251002   1.722   5.881   0.103  1.2216  0.2341 -0.2338
 9863TIP3   OH251003   2.009   0.973   1.755 -0.1834  0.1430 -0.1733
 9863TIP3    H151004   1.945   0.949   1.822  0.7187  0.0853  0.6794
 9863TIP3    H251005   2.082   1.009   1.804  0.7002 -0.3727 -1.1043
 9864TIP3   OH251006   4.689   3.498  16.731 -0.0893 -0.6995  0.2626
 9864TIP3    H151007   4.651   3.424  16.682 -0.6398 -0.5304  0.4320
 9864TIP3    H251008   4.626   3.515  16.800 -0.2749  0.3542 -0.1642
 9865TIP3   OH251009   2.088   1.432   5.132  0.1689  0.2500 -0.3581
 9865TIP3    H151010   2.002   1.393   5.148 -0.8552  2.3581 -0.4570
 9865TIP3    H251011   2.143   1.400   5.203 -1.1576  0.1987  0.6650
 9866TIP3   OH251012   3.450   4.377   5.245  0.6456 -0.2026  0.1470
 9866TIP3    H151013   3.520   4.327   5.288 -0.5174 -0.8177  1.3436
 9866TIP3    H251014   3.391   4.311   5.210  0.2431  0.3210 -0.1674
 9867TIP3   OH251015   2.677   3.697   5.126 -0.5929  0.4155 -0.0752
 9867TIP3    H151016   2.705   3.674   5.038 -1.4178  1.3956 -0.6021
 9867TIP3    H251017   2.705   3.623   5.180  0.5111  0.1186 -1.0383
 9868TIP3   OH251018   2.348   3.146   2.758 -0.0412  0.2106  0.1987
 9868TIP3    H151019   2.441   3.153   2.779  0.5301  1.3855 -2.5005
 9868TIP3    H251020   2.322   3.234   2.730 -1.1825 -0.7357 -1.9335
 9869TIP3   OH251021   1.483   2.957  12.188 -0.0529 -0.4851  0.3097
 9869TIP3    H151022   1.519   2.979  12.274  0.1869 -0.0521  0.0996
 9869TIP3    H251023   1.554   2.975  12.127 -0.7032  0.6349 -0.1384
 9870TIP3   OH251024   1.798   6.304  14.532  0.2914  0.0882  0.6503
 9870TIP3    H151025   1.804   6.212  14.508  1.2184  0.0994  0.8109
 9870TIP3    H251026   1.888   6.328  14.557  0.2188  1.2385 -0.1533
 9871TIP3   OH251027   0.368   3.705   5.085  0.1727  0.3738 -0.1247
 9871TIP3    H151028   0.354   3.620   5.043  2.0865  0.2107 -0.4999
 9871TIP3    H251029   0.378   3.684   5.178 -0.0809  0.2782 -0.1175
 9872TIP3   OH251030   4.714   4.950  12.278  0.3731 -0.0497 -0.0691
 9872TIP3    H151031   4.649   5.020  12.274 -0.4502 -0.7355  0.9481
 9872TIP3    H251032   4.670   4.874  12.240  0.7445 -0.3816  0.1524
 9873TIP3   OH251033   2.241   5.007  10.851 -0.4969  0.1863  0.5817
 9873TIP3    H151034   2.323   5.056  10.841 -0.9154  0.5945 -0.9249
 9873TIP3    H251035   2.201   5.009  10.764 -0.8284 -2.3147  0.6626
 9874TIP3   OH251036   5.326   5.989   0.404 -0.0075 -0.6494 -0.4190
 9874TIP3    H151037   5.395   5.953   0.459 -0.7179 -0.6334  0.5007
 9874TIP3    H251038   5.247   5.942   0.431 -0.5120 -0.0696 -0.8735
 9875TIP3   OH251039   0.838   1.968   4.610  0.0571  0.3227 -0.0160
 9875TIP3    H151040   0.861   1.973   4.517  0.2712  0.2568  0.0341
 9875TIP3    H251041   0.915   1.931   4.652 -0.2429 -0.1504  0.1162
 9876TIP3   OH251042   0.550   5.770  14.272  0.0249  0.2526  0.2669
 9876TIP3    H151043   0.619   5.716  14.311  1.1750  1.5048 -0.0167
 9876TIP3    H251044   0.544   5.739  14.182  0.7591  0.6783  0.0740
 9877TIP3   OH251045   2.378   5.510   5.507  0.3672 -0.4858 -0.5637
 9877TIP3    H151046   2.413   5.463   5.583  1.0434 -1.2898 -1.3604
 9877TIP3    H251047   2.378   5.602   5.534 -0.0715 -0.8421  0.6667
 9878TIP3   OH251048   3.308   2.631  12.671 -0.0115 -0.1463  0.0746
 9878TIP3    H151049   3.393   2.588  12.676 -0.5006 -1.0848  0.4887
 9878TIP3    H251050   3.246   2.560  12.653 -0.9339  0.2600  1.5343
 9879TIP3   OH251051   6.432   1.504   0.837  0.0048  0.2983  0.9506
 9879TIP3    H151052   6.483   1.478   0.914  1.2551 -0.0820  0.0087
 9879TIP3    H251053   6.494   1.495   0.764 -0.6338  2.3930  0.1440
 9880TIP3   OH251054   2.984   3.855   1.032  0.3511  0.3811  0.4420
 9880TIP3    H151055   2.947   3.774   0.997 -0.1490  1.5309 -1.8182
 9880TIP3    H251056   3.010   3.834   1.122  0.4840 -2.3334 -0.2098
 9881TIP3   OH251057   0.840   6.287   0.715  0.1368 -0.1597 -0.0540
 9881TIP3    H151058   0.907   6.345   0.681 -0.6502  1.0543  0.4498
 9881TIP3    H251059   0.857   6.282   0.809 -0.5546  0.2512  0.0947
 9882TIP3   OH251060   5.197   0.726  14.421 -0.1106 -0.2123  0.1559
 9882TIP3    H151061   5.186   0.633  14.441 -0.0947 -0.3307 -0.3688
 9882TIP3    H251062   5.196   0.770  14.506 -1.6612 -0.5299  0.3210
 9883TIP3   OH251063   6.684   0.927   1.043 -0.1583  0.2711 -0.5229
 9883TIP3    H151064   6.630   0.986   0.991  1.2466 -0.1105 -2.5010
 9883TIP3    H251065   6.771   0.968   1.043  0.4327 -0.9325 -0.5379
 9884TIP3   OH251066   4.718   2.945  13.003  0.3921 -0.2706  0.5360
 9884TIP3    H151067   4.735   3.010  12.935  0.6349 -0.0317  0.8217
 9884TIP3    H251068   4.739   2.861  12.962  2.0785  0.0032  0.8226
 9885TIP3   OH251069   4.005   0.260  11.404 -0.2655  0.0864 -0.6716
 9885TIP3    H151070   3.949   0.230  11.332  1.4380  0.3436 -2.1663
 9885TIP3    H251071   4.092   0.267  11.364  0.1128  3.3889  0.5996
 9886TIP3   OH251072   4.961   2.020  11.446 -0.4262 -0.0509 -0.1213
 9886TIP3    H151073   4.963   1.995  11.353 -1.0744 -0.2875 -0.0727
 9886TIP3    H251074   4.869   2.038  11.464 -0.5679 -1.7935  0.9518
 9887TIP3   OH251075   4.572   4.265   1.265  0.0731 -0.1522 -0.2495
 9887TIP3    H151076   4.637   4.327   1.230  1.2190 -0.1783  1.7126
 9887TIP3    H251077   4.590   4.264   1.360 -2.1625 -0.9239  0.1816
 9888TIP3   OH251078   1.506   1.685   0.388 -0.6096  0.5733 -0.1463
 9888TIP3    H151079   1.580   1.703   0.330 -0.6780 -0.8752 -0.6921
 9888TIP3    H251080   1.498   1.764   0.442  1.0830  0.8864 -0.3449
 9889TIP3   OH251081   2.006   4.623   2.738 -0.7605  0.1885  0.2047
 9889TIP3    H151082   1.924   4.665   2.710 -1.1818 -0.8090 -0.0750
 9889TIP3    H251083   2.004   4.537   2.697  0.5432  0.2402  0.0199
 9890TIP3   OH251084   2.970   4.553  17.024  0.2315 -0.3672 -0.0483
 9890TIP3    H151085   2.876   4.560  17.037 -0.0369 -0.5160 -1.7247
 9890TIP3    H251086   2.985   4.462  17.000  1.0841 -0.8416  2.2015
 9891TIP3   OH251087   1.501   3.822  14.349  0.5356 -0.0345 -0.0131
 9891TIP3    H151088   1.565   3.878  14.306 -0.4225  0.9292 -0.2143
 9891TIP3    H251089   1.434   3.806  14.283 -0.6436  0.9580  0.9241
 9892TIP3   OH251090   4.302   0.300   0.896 -0.6674  0.2832 -0.9527
 9892TIP3    H151091   4.212   0.322   0.918 -0.5253  2.5871 -2.5400
 9892TIP3    H251092   4.348   0.299   0.980 -2.5161 -2.9206  0.1119
 9893TIP3   OH251093   2.053   0.061   1.568  0.3231 -0.4602  0.1470
 9893TIP3    H151094   2.069   0.121   1.640  0.3579 -0.7903  0.4154
 9893TIP3    H251095   2.139   0.042   1.532  0.6964 -3.2441  2.4038
 9894TIP3   OH251096   3.194   1.517   2.881 -0.3416  0.0646 -0.2137
 9894TIP3    H151097   3.178   1.596   2.932 -0.6009 -1.3508  2.0028
 9894TIP3    H251098   3.251   1.545   2.810 -1.4455  2.4634 -0.2083
 9895TIP3   OH251099   3.638   6.620  13.641 -0.6691 -0.1979 -0.0275
 9895TIP3    H151100   3.559   6.626  13.587 -1.2277 -0.2944  0.7736
 9895TIP3    H251101   3.633   6.535  13.683 -0.2561 -0.1015  0.2222
 9896TIP3   OH251102   0.709   6.183  15.392  0.1898 -0.7246 -0.4114
 9896TIP3    H151103   0.640   6.209  15.330  0.1991 -0.3168 -0.2514
 9896TIP3    H251104   0.745   6.103  15.355  0.4576 -0.2705 -1.1426
 9897TIP3   OH251105   2.176   2.895   4.548  0.4648  0.1375 -0.6961
 9897TIP3    H151106   2.229   2.961   4.503 -2.8972  1.5349 -2.7909
 9897TIP3    H251107   2.133   2.846   4.477  1.0316 -2.7974  0.8848
 9898TIP3   OH251108   4.645   2.976  15.644  0.2917  0.6357 -0.0918
 9898TIP3    H151109   4.584   3.049  15.636 -0.2244 -0.0527 -3.3482
 9898TIP3    H251110   4.615   2.912  15.579 -0.3387 -3.3008  3.8601
 9899TIP3   OH251111   2.988   4.001  14.914 -0.0404 -0.1341  0.4892
 9899TIP3    H151112   2.958   3.918  14.952  0.5122 -0.7213 -0.3262
 9899TIP3    H251113   3.052   3.974  14.848  0.5130  0.9772  0.5720
 9900TIP3   OH251114   2.624   1.299  15.718  0.0287 -0.4082  0.2099
 9900TIP3    H151115   2.647   1.390  15.736 -0.3421 -0.2564 -0.0954
 9900TIP3    H251116   2.603   1.298  15.625 -1.1233 -0.5758  0.4733
 9901TIP3   OH251117   6.250   1.464   5.540 -0.5201 -0.0386 -0.1482
 9901TIP3    H151118   6.230   1.487   5.450 -0.2504 -0.6491 -0.3688
 9901TIP3    H251119   6.307   1.535   5.571 -0.0757 -0.1640 -0.6664
 9902TIP3   OH251120   1.639   6.434   4.000 -0.2337  0.4466 -0.2807
 9902TIP3    H151121   1.634   6.350   3.956 -0.2888  0.0092  0.5463
 9902TIP3    H251122   1.730   6.442   4.028 -0.7987 -0.5221  1.9102
 9903TIP3   OH251123   2.737   1.586   2.504  0.2470  0.3139  0.0195
 9903TIP3    H151124   2.735   1.513   2.566 -0.4327  0.6340  0.3783
 9903TIP3    H251125   2.791   1.652   2.547  0.3382  0.2693 -0.0267
 9904TIP3   OH251126   2.908   1.575  14.570  0.2823  0.3237  0.6666
 9904TIP3    H151127   2.818   1.549  14.547  1.0332 -1.3644 -0.4390
 9904TIP3    H251128   2.896   1.652  14.626 -1.8561  0.1757  0.4869
 9905TIP3   OH251129   0.601   3.279   4.859  0.0810  0.2598  0.0578
 9905TIP3    H151130   0.659   3.259   4.932 -0.8792  0.2595  0.8214
 9905TIP3    H251131   0.589   3.374   4.864  2.4096  0.7113 -1.9037
 9906TIP3   OH251132   1.775   2.672   0.402 -0.2859  0.4316 -0.4324
 9906TIP3    H151133   1.724   2.665   0.321 -0.6699  0.8561 -0.2253
 9906TIP3    H251134   1.719   2.633   0.469  0.7545 -1.5757 -0.6815
 9907TIP3   OH251135   1.022   5.167  16.306 -0.1415  0.0657  0.1353
 9907TIP3    H151136   0.945   5.146  16.359 -0.5276 -1.3398 -0.9224
 9907TIP3    H251137   1.089   5.106  16.337  0.4435  1.0531  0.8206
 9908TIP3   OH251138   4.372   4.159  13.829  0.2850 -0.0841 -0.0120
 9908TIP3    H151139   4.361   4.230  13.893  0.7504  1.2691 -1.4134
 9908TIP3    H251140   4.284   4.139  13.800  0.4480  2.7807 -2.6531
 9909TIP3   OH251141   0.811   6.202   4.714 -0.3852  0.3379  0.2247
 9909TIP3    H151142   0.892   6.160   4.742 -0.4460  0.9885  1.3986
 9909TIP3    H251143   0.817   6.291   4.748 -1.7269  0.3030  0.5766
 9910TIP3   OH251144   5.392   4.684  15.515 -0.4057  0.0381  0.6519
 9910TIP3    H151145   5.319   4.650  15.567 -1.1166 -0.4575 -0.6382
 9910TIP3    H251146   5.353   4.703  15.429  0.5648  1.5770  0.5236
 9911TIP3   OH251147   6.440   2.065  10.814  0.1180 -0.0067  0.3940
 9911TIP3    H151148   6.502   1.993  10.830 -0.2326 -0.2543  0.6466
 9911TIP3    H251149   6.448   2.082  10.720 -0.0515 -0.6154  0.2657
 9912TIP3   OH251150   3.664   2.616   0.273  0.3241  0.4879 -0.2663
 9912TIP3    H151151   3.594   2.614   0.208 -0.3293  1.0015  0.4216
 9912TIP3    H251152   3.745   2.622   0.221 -0.1541  0.2142 -1.0451
 9913TIP3   OH251153   2.046   3.863  15.525  0.0562 -0.5380  0.2382
 9913TIP3    H151154   2.037   3.955  15.500  2.7358  0.5951  3.0598
 9913TIP3    H251155   1.979   3.817  15.475 -0.1556  2.6925 -2.5645
 9914TIP3   OH251156   1.792   3.312   4.362 -0.3039 -0.0272 -0.2136
 9914TIP3    H151157   1.781   3.242   4.297 -1.4496 -1.2686  1.2889
 9914TIP3    H251158   1.830   3.268   4.438 -1.0778  0.9786  0.7567
 9915TIP3   OH251159   2.390   2.295   1.337 -0.2120  0.0899 -0.8224
 9915TIP3    H151160   2.295   2.307   1.338 -0.0120  1.8438  1.2893
 9915TIP3    H251161   2.402   2.200   1.343 -1.8081 -0.1439 -1.0093
 9916TIP3   OH251162   2.432   2.612  15.948  0.6083  0.3882  0.1059
 9916TIP3    H151163   2.424   2.636  15.856  2.5347 -0.1242 -0.2321
 9916TIP3    H251164   2.371   2.539  15.960  0.8996 -0.0382 -0.9603
 9917TIP3   OH251165   6.749   4.990   5.343 -0.4475  0.3572  0.3981
 9917TIP3    H151166   6.839   5.004   5.314 -0.5861 -2.8859 -1.8397
 9917TIP3    H251167   6.696   5.044   5.285 -0.0284  1.9416  1.4476
 9918TIP3   OH251168   3.517   6.544   2.994 -0.1897 -0.1260  0.3933
 9918TIP3    H151169   3.460   6.472   2.966 -1.5552  1.3320 -0.6933
 9918TIP3    H251170   3.593   6.538   2.935 -1.0197  0.2665 -0.7223
 9919TIP3   OH251171   6.534   1.253   2.176 -0.1345 -0.1957  0.6085
 9919TIP3    H151172   6.607   1.199   2.206 -0.7105 -1.9528 -1.0710
 9919TIP3    H251173   6.555   1.274   2.085 -1.7829 -0.8956  0.0400
 9920TIP3   OH251174   5.908   1.888   4.294 -0.4142  0.8152 -0.2886
 9920TIP3    H151175   5.849   1.963   4.304 -0.7967  0.4584  0.1262
 9920TIP3    H251176   5.951   1.880   4.379  0.5341  1.3240 -0.7135
 9921TIP3   OH251177   1.270   5.012   3.342 -0.2922 -0.8436 -0.1309
 9921TIP3    H151178   1.216   5.014   3.421 -1.3117  0.4536 -0.8430
 9921TIP3    H251179   1.225   4.952   3.284 -0.2460 -0.7968 -0.2146
 9922TIP3   OH251180   2.568   0.706   1.788  0.3667 -0.2943  0.0462
 9922TIP3    H151181   2.587   0.648   1.862  0.3274  0.9619  1.0480
 9922TIP3    H251182   2.653   0.720   1.747  0.5738 -0.0737  0.5435
 9923TIP3   OH251183   5.338   6.595   0.660 -0.5357 -0.2689 -0.3673
 9923TIP3    H151184   5.369   6.618   0.572  1.2924  4.4395  1.3581
 9923TIP3    H251185   5.413   6.553   0.702  0.3265  2.0986  0.5392
 9924TIP3   OH251186   1.188   2.996   1.052 -0.2801 -0.4510  0.3151
 9924TIP3    H151187   1.143   2.912   1.041  0.3750 -0.6288 -1.2105
 9924TIP3    H251188   1.204   3.003   1.146 -2.9086 -0.6712  0.8120
 9925TIP3   OH251189   5.981   2.992  11.471  0.4279  0.0776 -0.1987
 9925TIP3    H151190   5.921   2.937  11.520 -0.6049  0.3285 -1.1503
 9925TIP3    H251191   5.995   3.069  11.526 -1.1638  0.6159 -0.5315
 9926TIP3   OH251192   0.686   1.814   4.410 -0.4580  0.0044  0.0272
 9926TIP3    H151193   0.737   1.751   4.461  2.6940  1.3928 -1.2481
 9926TIP3    H251194   0.715   1.801   4.320 -2.1139  1.1069 -0.6951
 9927TIP3   OH251195   4.893   1.139  14.857  0.0441 -0.2718  0.2377
 9927TIP3    H151196   4.877   1.183  14.940  2.3530 -1.5106  1.3769
 9927TIP3    H251197   4.973   1.180  14.823 -0.8484  0.1975 -1.3816
 9928TIP3   OH251198   1.697   1.242  13.892 -0.2045 -0.3070  0.5046
 9928TIP3    H151199   1.643   1.165  13.873 -0.6702  0.4576 -1.3745
 9928TIP3    H251200   1.643   1.293  13.953 -0.8263 -0.4380  0.0754
 9929TIP3   OH251201   4.730   4.288  16.671  0.1937 -0.7009 -0.8479
 9929TIP3    H151202   4.705   4.217  16.613 -0.6735 -2.0079  1.0761
 9929TIP3    H251203   4.783   4.246  16.739 -0.5272  0.4233  0.4351
 9930TIP3   OH251204   2.624   5.893  16.643 -0.0109  0.1923  0.2762
 9930TIP3    H151205   2.694   5.948  16.609 -1.8893  1.2133 -2.0915
 9930TIP3    H251206   2.667   5.809  16.663  2.0641  1.1366 -0.1345
 9931TIP3   OH251207   0.327   1.964  11.492  0.2623 -0.2478 -0.0595
 9931TIP3    H151208   0.344   1.978  11.585  1.1795  0.0289 -0.2642
 9931TIP3    H251209   0.233   1.981  11.482 -0.0098 -1.0691  0.9586
 9932TIP3   OH251210   3.648   5.493   0.864 -0.6031 -0.1852  0.4785
 9932TIP3    H151211   3.687   5.511   0.778 -1.4330 -1.6995 -0.2356
 9932TIP3    H251212   3.608   5.576   0.890  1.9657  1.0466  0.6568
 9933TIP3   OH251213   3.924   1.693   2.959 -0.3178  0.2089 -0.1697
 9933TIP3    H151214   3.906   1.662   3.048  0.1412 -1.8450 -0.7696
 9933TIP3    H251215   3.893   1.784   2.959 -3.7479 -0.8709  1.0198
 9934TIP3   OH251216   5.271   6.703  16.160 -0.4372  0.2907  0.1982
 9934TIP3    H151217   5.270   6.798  16.160 -0.3803  0.3206 -2.2749
 9934TIP3    H251218   5.179   6.678  16.152 -0.3797  0.1664 -0.1091
 9935TIP3   OH251219   3.267   1.030   2.463  0.0983  0.0631 -0.6964
 9935TIP3    H151220   3.219   0.950   2.445 -0.6390 -0.0190  1.4872
 9935TIP3    H251221   3.205   1.100   2.440  0.7497  0.0210 -2.6211
 9936TIP3   OH251222   3.317   0.006   4.828  0.5849  0.0712 -0.1925
 9936TIP3    H151223   3.305   0.100   4.822  0.6527  0.0728 -0.3024
 9936TIP3    H251224   3.356  -0.008   4.915 -0.2376  0.0617  0.1720
 9937TIP3   OH251225   1.789   5.251   1.135  0.0309 -0.3262 -0.1081
 9937TIP3    H151226   1.759   5.198   1.061  1.4001 -0.3756 -0.6528
 9937TIP3    H251227   1.798   5.339   1.098 -3.3713  0.6004  1.0832
 9938TIP3   OH251228   2.143   4.890  11.914  0.6998 -0.3657 -0.1714
 9938TIP3    H151229   2.102   4.816  11.869 -0.3492 -0.8435  1.5374
 9938TIP3    H251230   2.218   4.852  11.961  0.1925 -0.3371  0.6647
 9939TIP3   OH251231   1.037   5.253   2.734 -0.4242  0.0264 -0.2736
 9939TIP3    H151232   0.980   5.191   2.687  0.6674 -0.6081 -0.7731
 9939TIP3    H251233   1.067   5.204   2.811 -1.5499  0.7917  0.6858
 9940TIP3   OH251234   0.516   5.120   6.102  0.3107  0.3246  0.3950
 9940TIP3    H151235   0.468   5.198   6.075  0.5799  0.3612  0.0188
 9940TIP3    H251236   0.490   5.106   6.193 -0.1990  0.5009  0.2776
 9941TIP3   OH251237   2.370   2.678  15.108 -0.3863 -0.0583 -0.2235
 9941TIP3    H151238   2.320   2.608  15.150 -0.0084 -0.3136 -0.1976
 9941TIP3    H251239   2.437   2.702  15.172  0.3187 -0.5870 -0.7565
 9942TIP3   OH251240   2.260   2.599   1.485 -0.1950 -0.0567 -0.7182
 9942TIP3    H151241   2.283   2.651   1.409 -0.4068  2.5921  0.9549
 9942TIP3    H251242   2.341   2.591   1.536 -0.1993 -1.2578 -0.8670
 9943TIP3   OH251243   0.932   0.464   4.012  0.0570 -0.0409  0.1557
 9943TIP3    H151244   0.893   0.498   3.931  0.1473  0.8991  0.5069
 9943TIP3    H251245   0.951   0.542   4.064  0.2339 -0.6329  0.9795
 9944TIP3   OH251246   3.035   6.478  13.149  0.0098  0.3072 -0.0879
 9944TIP3    H151247   3.063   6.568  13.135  0.0639  0.5677  1.5952
 9944TIP3    H251248   2.953   6.486  13.198  0.5689 -0.5708  1.0076
 9945TIP3   OH251249   2.131   4.888   3.072  0.7296 -0.0459 -0.3942
 9945TIP3    H151250   2.048   4.840   3.071 -1.0395  2.9048 -0.2958
 9945TIP3    H251251   2.188   4.837   3.130 -1.5904 -1.2204  0.9198
 9946TIP3   OH251252   6.008   0.435  12.625 -0.6050 -0.5551  0.1627
 9946TIP3    H151253   6.092   0.403  12.593 -0.7261 -0.9317  0.2193
 9946TIP3    H251254   6.027   0.472  12.711 -0.6442 -1.4015  0.5394
 9947TIP3   OH251255   3.666   1.672  14.734 -0.2760 -0.0285  0.4445
 9947TIP3    H151256   3.572   1.658  14.725 -0.2957  0.3386  0.0419
 9947TIP3    H251257   3.688   1.733  14.664  0.3401 -0.4546  0.2574
 9948TIP3   OH251258   2.320   0.113  17.043  0.4297 -0.1934 -0.0190
 9948TIP3    H151259   2.398   0.163  17.019  0.2667 -0.8435 -2.0068
 9948TIP3    H251260   2.269   0.107  16.962 -1.0819 -0.8513  0.9533
 9949TIP3   OH251261   3.323   5.847   2.166 -0.5522  0.0926 -0.4421
 9949TIP3    H151262   3.369   5.897   2.234 -1.6690 -2.9642  2.6718
 9949TIP3    H251263   3.232   5.877   2.173 -0.8878 -1.0782  0.2210
 9950TIP3   OH251264   3.919   2.161   5.289  0.3639  0.6939  0.3733
 9950TIP3    H151265   3.931   2.238   5.233 -0.9900  2.2354  2.1682
 9950TIP3    H251266   3.856   2.188   5.355 -0.3618 -2.0609  0.8821
 9951TIP3   OH251267   5.550   2.499   2.675 -0.3527  0.9057 -0.0789
 9951TIP3    H151268   5.638   2.528   2.653 -0.5379 -0.9360 -3.5363
 9951TIP3    H251269   5.493   2.546   2.614 -1.4719 -0.0400  0.2141
 9952TIP3   OH251270   5.355   3.552  16.144 -0.1254 -0.2814  0.5908
 9952TIP3    H151271   5.336   3.605  16.221  0.1185  0.0204  0.4434
 9952TIP3    H251272   5.450   3.561  16.131 -0.2740  0.2604 -0.1694
 9953TIP3   OH251273   4.118   2.699  10.855 -0.3548 -0.4625 -0.1160
 9953TIP3    H151274   4.114   2.651  10.772  1.1208 -0.5038 -0.1784
 9953TIP3    H251275   4.033   2.744  10.861 -1.3024 -2.1426 -0.6097
 9954TIP3   OH251276   1.692   5.416   2.173 -0.2669  0.0437 -0.1717
 9954TIP3    H151277   1.683   5.321   2.181  1.5310 -0.0140  1.4187
 9954TIP3    H251278   1.718   5.445   2.260  1.4729  1.7234 -1.2271
 9955TIP3   OH251279   5.616   5.857   5.667  0.2746  0.1786  0.1354
 9955TIP3    H151280   5.609   5.928   5.731  0.6417  2.5579 -2.3804
 9955TIP3    H251281   5.704   5.821   5.681  0.6556  1.2063  0.3998
 9956TIP3   OH251282   3.362   0.693   0.842 -0.0443  0.3958  0.5169
 9956TIP3    H151283   3.374   0.736   0.927  1.1327  0.4297  0.3501
 9956TIP3    H251284   3.366   0.764   0.778 -0.0602  0.2683  0.3746
 9957TIP3   OH251285   3.487   3.460   2.523 -1.0713  0.1794 -0.3143
 9957TIP3    H151286   3.421   3.436   2.587  0.6229  1.7234  2.0909
 9957TIP3    H251287   3.475   3.554   2.510  0.3783  0.3946 -0.1642
 9958TIP3   OH251288   4.088   1.921   0.377 -0.2912 -0.3284  0.2879
 9958TIP3    H151289   4.183   1.933   0.383 -0.2151  0.0322 -1.2929
 9958TIP3    H251290   4.054   2.008   0.355 -0.9413 -0.5441  0.4170
 9959TIP3   OH251291   2.140   4.111   5.284  0.4997  0.4014  0.1791
 9959TIP3    H151292   2.103   4.139   5.368  0.1445  2.0312 -0.4926
 9959TIP3    H251293   2.128   4.187   5.227 -0.6911 -1.2262 -1.7823
 9960TIP3   OH251294   0.856   1.518   0.219 -0.4407  0.2349 -0.7039
 9960TIP3    H151295   0.886   1.608   0.232 -0.2622  0.2699 -1.3328
 9960TIP3    H251296   0.766   1.517   0.253  0.2429  0.1358  1.1840
 9961TIP3   OH251297   0.446   0.443   1.496 -0.1453  0.0677  0.0308
 9961TIP3    H151298   0.425   0.520   1.443  0.9046  0.7308  0.5737
 9961TIP3    H251299   0.371   0.385   1.483 -0.5291  0.7922 -1.1034
 9962TIP3   OH251300   0.156   3.055   1.630 -0.8334  0.0033  0.8359
 9962TIP3    H151301   0.217   2.983   1.615 -1.0119  0.2273 -1.0940
 9962TIP3    H251302   0.172   3.082   1.720  1.6762 -0.1725  0.4705
 9963TIP3   OH251303   1.919   2.494   1.810  0.0383  0.1898 -0.1135
 9963TIP3    H151304   1.904   2.574   1.862 -2.2813  0.3857 -1.0519
 9963TIP3    H251305   1.962   2.526   1.731  0.7827  0.2555  0.3030
 9964TIP3   OH251306   2.544   2.021   4.848  0.1857 -0.1892  0.2426
 9964TIP3    H151307   2.615   2.038   4.911 -0.5816  1.6549  0.6639
 9964TIP3    H251308   2.546   2.096   4.789  0.6985 -1.7634 -1.7777
 9965TIP3   OH251309   5.303   0.882   1.082 -0.5048 -0.4250 -0.4756
 9965TIP3    H151310   5.359   0.805   1.079 -0.0388 -0.1277  0.6394
 9965TIP3    H251311   5.218   0.848   1.110 -0.5643 -0.6783 -0.9494
 9966TIP3   OH251312   0.204   1.873  13.124  0.3241 -0.3885  0.0861
 9966TIP3    H151313   0.234   1.963  13.107 -1.2088  0.1528  0.1795
 9966TIP3    H251314   0.116   1.871  13.088  1.1394 -2.5131 -1.9025
 9967TIP3   OH251315   0.513   1.133   2.305 -0.0754  0.4421 -0.4072
 9967TIP3    H151316   0.452   1.145   2.377  0.6726  0.0049  0.3041
 9967TIP3    H251317   0.578   1.202   2.316 -0.3036  0.7552 -1.0194
 9968TIP3   OH251318   3.849   1.583   3.250 -0.1276  0.3595  0.5381
 9968TIP3    H151319   3.855   1.488   3.245 -1.2800  0.3324 -1.0781
 9968TIP3    H251320   3.756   1.602   3.235  0.3131  1.7895 -0.5379
 9969TIP3   OH251321   1.058   2.097   1.683  0.1670  0.3193 -0.3814
 9969TIP3    H151322   0.973   2.055   1.700  0.6223 -0.0131  1.2302
 9969TIP3    H251323   1.038   2.190   1.678 -0.2609  0.2728  0.3238
 9970TIP3   OH251324   2.021   3.211  11.301  0.6222  0.4938  0.6259
 9970TIP3    H151325   1.990   3.190  11.213  0.5255  0.7221  0.6054
 9970TIP3    H251326   2.115   3.194  11.298  0.5863  0.3151  0.5339
 9971TIP3   OH251327   4.971   3.267   3.221  0.2633  0.0179  0.1674
 9971TIP3    H151328   5.015   3.189   3.255 -0.6905 -1.5099 -1.9826
 9971TIP3    H251329   5.043   3.326   3.196  0.9831 -0.0367  2.0290
 9972TIP3   OH251330   3.592   2.078   2.344  0.5665  1.0549 -0.4441
 9972TIP3    H151331   3.681   2.094   2.313  0.8779  2.8149  1.2681
 9972TIP3    H251332   3.546   2.160   2.327 -0.6462  0.2724 -1.0103
 9973TIP3   OH251333   3.664   0.027  12.858 -0.0040 -0.5740 -0.3781
 9973TIP3    H151334   3.579   0.015  12.817  0.0331 -1.1589 -0.2841
 9973TIP3    H251335   3.653  -0.004  12.947  0.0542  0.2279 -0.0854
 9974TIP3   OH251336   5.498   3.783   5.482  0.2679  0.4988 -0.4415
 9974TIP3    H151337   5.486   3.875   5.504 -2.9058 -0.1182  0.6696
 9974TIP3    H251338   5.543   3.746   5.558 -1.5004  0.4741  0.6268
 9975TIP3   OH251339   4.754   2.460  15.644  0.1329 -0.6728 -0.3345
 9975TIP3    H151340   4.838   2.440  15.685  0.7909 -2.5528 -2.5300
 9975TIP3    H251341   4.754   2.411  15.563 -3.8823 -2.1561  0.4415
 9976TIP3   OH251342   3.051   1.912   4.232 -0.3932 -0.1199 -0.2175
 9976TIP3    H151343   2.974   1.968   4.227 -0.4861 -0.4070 -2.4029
 9976TIP3    H251344   3.114   1.952   4.174 -0.0174 -1.5967 -0.8579
 9977TIP3   OH251345   6.428   6.310  12.342  0.2072 -0.3101  0.3825
 9977TIP3    H151346   6.497   6.250  12.312 -0.1627 -0.0121 -1.1480
 9977TIP3    H251347   6.465   6.397  12.326 -0.6951 -0.1467 -0.9384
 9978TIP3   OH251348   6.387   5.753  15.229 -0.2392  0.1729 -0.2158
 9978TIP3    H151349   6.376   5.833  15.280 -0.7596  0.1627 -0.3055
 9978TIP3    H251350   6.399   5.783  15.139 -1.7542  0.1176 -0.4557
 9979TIP3   OH251351   5.673   2.017   0.786 -0.5091  0.6077 -0.3452
 9979TIP3    H151352   5.703   2.107   0.774  0.5817  0.4729  1.2466
 9979TIP3    H251353   5.636   2.015   0.874  1.8165 -1.1072  0.6371
 9980TIP3   OH251354   3.133   3.825   5.321  0.3620  0.1949  0.4225
 9980TIP3    H151355   3.173   3.893   5.266  2.4333 -0.5126  1.0233
 9980TIP3    H251356   3.087   3.873   5.389 -3.4411  1.1624 -2.6099
 9981TIP3   OH251357   6.776   4.016  11.702 -0.1464 -0.2783 -0.2454
 9981TIP3    H151358   6.744   3.929  11.727  0.8304 -1.1122 -1.8632
 9981TIP3    H251359   6.740   4.031  11.615 -0.2429  0.9297 -0.0116
 9982TIP3   OH251360   0.352   2.818  12.556 -0.5488 -0.5442  0.0900
 9982TIP3    H151361   0.328   2.782  12.470  0.2736 -0.5514 -0.1395
 9982TIP3    H251362   0.444   2.795  12.566  0.2133  2.1628 -0.4052
 9983TIP3   OH251363   3.384   1.848  14.345 -0.3898 -0.0462 -0.1272
 9983TIP3    H151364   3.453   1.782  14.345  0.1983  0.5516  0.6267
 9983TIP3    H251365   3.334   1.832  14.265 -0.4157 -1.5635  0.1699
 9984TIP3   OH251366   0.422   3.759  15.763 -0.1360  0.2133 -0.1882
 9984TIP3    H151367   0.407   3.767  15.857 -1.8592 -1.1247 -0.3323
 9984TIP3    H251368   0.514   3.785  15.751  0.5794 -1.1629  2.0588
 9985TIP3   OH251369   0.355   3.319   4.084 -0.9665 -0.5454  0.2957
 9985TIP3    H151370   0.431   3.292   4.032 -2.3863  0.8562 -2.6103
 9985TIP3    H251371   0.373   3.409   4.108 -1.0751 -0.6512  0.7701
 9986TIP3   OH251372   3.084   1.699  10.765 -0.2782  1.0124  0.2984
 9986TIP3    H151373   3.161   1.659  10.805 -1.7543 -1.8569  0.4230
 9986TIP3    H251374   3.093   1.793  10.782  3.1755  0.7326  0.2572
 9987TIP3   OH251375   5.387   2.194  15.630 -0.1467 -0.8642  0.5321
 9987TIP3    H151376   5.313   2.214  15.572  0.9023 -2.4009 -1.4028
 9987TIP3    H251377   5.350   2.137  15.697 -0.7842 -1.3901 -0.2595
 9988TIP3   OH251378   4.158   2.777   1.315 -0.2532 -0.0512  0.1439
 9988TIP3    H151379   4.205   2.859   1.324  0.1476 -0.2341 -0.2711
 9988TIP3    H251380   4.222   2.716   1.278 -0.4707 -0.6152  0.6647
 9989TIP3   OH251381   6.373   5.118   4.570 -0.6291 -0.2299 -0.2326
 9989TIP3    H151382   6.432   5.060   4.617 -1.8709 -1.3365 -0.0411
 9989TIP3    H251383   6.431   5.185   4.533  0.2132  1.7063  4.2937
 9990TIP3   OH251384   2.957   5.426  15.953 -0.1943 -0.1992 -0.3169
 9990TIP3    H151385   3.051   5.432  15.939  0.3325 -1.6100  2.3039
 9990TIP3    H251386   2.941   5.480  16.030 -1.0886 -2.0518  0.8358
 9991TIP3   OH251387   1.870   5.645  14.291 -0.4291  0.1239  0.1537
 9991TIP3    H151388   1.790   5.656  14.342 -0.4343 -0.9171  0.3732
 9991TIP3    H251389   1.843   5.658  14.200 -1.0379 -1.1254  0.1411
 9992TIP3   OH251390   3.013   2.988   3.394 -0.1704  0.6676  0.6131
 9992TIP3    H151391   3.081   3.053   3.378  0.4934 -0.1239  0.1647
 9992TIP3    H251392   2.993   2.951   3.308 -1.3069  1.0190  0.7161
 9993TIP3   OH251393   4.157   0.813   2.240 -0.3179 -0.1569  0.2242
 9993TIP3    H151394   4.134   0.747   2.174  0.2239  0.6995 -0.8394
 9993TIP3    H251395   4.080   0.869   2.246 -0.8648 -1.0163  1.2981
 9994TIP3   OH251396   4.061   0.995  14.945  0.0009 -0.4783 -0.3513
 9994TIP3    H151397   3.980   0.953  14.916 -0.5026  1.5345 -1.9824
 9994TIP3    H251398   4.035   1.045  15.022 -0.4029  0.4686 -1.0950
 9995TIP3   OH251399   4.919   3.923  15.287 -0.5732 -0.1787 -0.7942
 9995TIP3    H151400   4.897   3.832  15.307 -0.8317  0.1115  0.2737
 9995TIP3    H251401   5.001   3.938  15.334 -1.1993  0.5200  0.0809
 9996TIP3   OH251402   5.980   2.154   2.468  0.4797 -0.8317  0.5698
 9996TIP3    H151403   5.917   2.226   2.468  0.6588 -0.6652 -0.4542
 9996TIP3    H251404   5.935   2.082   2.512  0.2107 -0.1673  1.3720
 9997TIP3   OH251405   1.425   6.440   3.063 -0.3531  0.2751  0.4248
 9997TIP3    H151406   1.402   6.352   3.035  3.7411 -0.8278  0.2310
 9997TIP3    H251407   1.451   6.485   2.982  0.2783  0.7992  0.9161
 9998TIP3   OH251408   0.855   2.773   4.176  0.4206  0.2345 -1.0777
 9998TIP3    H151409   0.860   2.868   4.166  1.1531 -0.0172 -3.4979
 9998TIP3    H251410   0.932   2.741   4.130  0.5725 -1.5221  0.3389
 9999TIP3   OH251411   4.631   5.075  10.430  0.5841 -0.1713 -0.1242
 9999TIP3    H151412   4.547   5.085  10.385  0.1723 -1.1289  0.4103
 9999TIP3    H251413   4.624   5.131  10.507  0.9796  0.8384 -0.8116
10000TIP3   OH251414   6.312   5.985   2.304  0.6455  0.0720  0.2046
10000TIP3    H151415   6.265   5.981   2.221  0.3189  1.4297  0.3162
10000TIP3    H251416   6.291   5.901   2.347 -1.1268  0.3513 -0.0477
10001TIP3   OH251417   6.251   4.140   2.453  0.4021 -0.8400 -0.2172
10001TIP3    H151418   6.305   4.216   2.477  0.5224 -0.8380 -0.5017
10001TIP3    H251419   6.208   4.115   2.535  0.7930 -0.8110 -0.0043
10002TIP3   OH251420   1.488   6.461  15.516 -0.4492 -0.1518  0.3296
10002TIP3    H151421   1.400   6.491  15.494 -0.8825 -1.7132 -0.1304
10002TIP3    H251422   1.543   6.494  15.444 -0.8064  0.0768  0.1605
10003TIP3   OH251423   2.123   0.226   3.936 -0.1510  0.0719  0.2342
10003TIP3    H151424   2.207   0.212   3.891  0.0833  0.7535  0.4445
10003TIP3    H251425   2.062   0.248   3.865  0.4377  2.1079  0.3037
10004TIP3   OH251426   5.013   5.455  13.538  0.0260 -0.0273 -0.5036
10004TIP3    H151427   5.036   5.371  13.498 -0.9267  0.2440 -1.6361
10004TIP3    H251428   5.076   5.517  13.502  0.4406 -0.1546 -0.0145
10005TIP3   OH251429   2.218   0.508  15.486  0.1780  0.0613 -0.2214
10005TIP3    H151430   2.301   0.554  15.470  1.1952 -1.7765 -0.3481
10005TIP3    H251431   2.214   0.441  15.418 -0.1672 -1.5470  1.3565
10006TIP3   OH251432   5.132   3.512   0.638  0.5855 -0.0235  0.2962
10006TIP3    H151433   5.058   3.500   0.697  0.9326  0.3806  0.8232
10006TIP3    H251434   5.189   3.437   0.655  0.1569 -0.4878 -0.3198
10007TIP3   OH251435   5.463   3.545  12.822  0.3727  0.0078  0.3146
10007TIP3    H151436   5.450   3.639  12.836 -1.5679 -0.1718 -0.2151
10007TIP3    H251437   5.502   3.539  12.735  1.0143  0.3467  0.5741
10008TIP3   OH251438   6.400   5.218  16.509 -0.0430  0.0218 -0.0939
10008TIP3    H151439   6.445   5.188  16.430 -0.3502  1.7581 -0.9369
10008TIP3    H251440   6.315   5.249  16.479 -0.0966  0.8622  0.8926
10009TIP3   OH251441   0.546   1.881  15.967  0.2600 -0.3017  0.1412
10009TIP3    H151442   0.605   1.817  16.007  0.6122 -0.1216 -0.0818
10009TIP3    H251443   0.472   1.887  16.028 -0.6567 -2.2776 -0.7651
10010TIP3   OH251444   5.546   4.600   1.788 -0.0066  0.0424  0.8010
10010TIP3    H151445   5.626   4.651   1.768 -0.1074 -0.2832 -0.4955
10010TIP3    H251446   5.525   4.556   1.706 -0.1107 -1.8659  1.8206
10011TIP3   OH251447   3.223   2.365  16.789 -0.0496  0.2608 -0.7040
10011TIP3    H151448   3.244   2.289  16.736  1.0261  0.6041 -0.7860
10011TIP3    H251449   3.282   2.434  16.757 -0.5824  0.9537 -0.2255
10012TIP3   OH251450   1.714   2.259   1.865 -0.1991  0.4796  0.4134
10012TIP3    H151451   1.740   2.340   1.822 -2.8145  1.2508  0.2150
10012TIP3    H251452   1.673   2.288   1.947  2.2741 -0.8415  2.1796
10013TIP3   OH251453   5.242   3.045  16.773  0.0297  0.0431 -0.2404
10013TIP3    H151454   5.284   3.079  16.695 -0.0730 -1.0965 -0.7986
10013TIP3    H251455   5.159   3.093  16.779 -0.0619 -0.0302 -0.9474
10014TIP3   OH251456   6.378   5.289   5.950  0.0850 -0.5175 -0.5368
10014TIP3    H151457   6.469   5.270   5.931  0.8706  1.4738  1.0052
10014TIP3    H251458   6.379   5.330   6.037 -2.2798 -0.6174 -0.4134
10015TIP3   OH251459   4.178   0.472  15.011 -0.0292 -0.4620  0.2627
10015TIP3    H151460   4.238   0.415  14.962 -1.3698 -1.8927  0.2181
10015TIP3    H251461   4.231   0.547  15.037  0.7161  0.4325 -3.5327
10016TIP3   OH251462   1.922   4.284   2.386 -0.0986  0.6779 -0.2115
10016TIP3    H151463   1.841   4.317   2.345 -0.2107  0.0329 -0.5115
10016TIP3    H251464   1.978   4.362   2.393 -1.1263  1.3319  0.9426
10017TIP3   OH251465   6.330   1.511  10.933 -0.0484 -0.3933 -0.0887
10017TIP3    H151466   6.411   1.502  10.984 -0.5280  0.3573  0.8179
10017TIP3    H251467   6.260   1.509  10.998 -0.6647  0.7302 -0.6979
10018TIP3   OH251468   3.256   5.331   2.918 -0.7199 -0.1206 -0.4689
10018TIP3    H151469   3.235   5.315   2.826  0.0944 -0.1678 -0.6537
10018TIP3    H251470   3.347   5.303   2.927 -0.6663  0.2687  0.2545
10019TIP3   OH251471   0.667   0.714   5.475  0.0566 -0.0209 -0.1899
10019TIP3    H151472   0.593   0.687   5.529  0.7313  0.5334  1.0390
10019TIP3    H251473   0.678   0.644   5.412 -2.0596  0.2944 -0.9410
10020TIP3   OH251474   1.498   4.993   2.972 -0.5733 -0.0832 -0.6418
10020TIP3    H151475   1.485   5.003   3.067  2.2513 -1.4779 -0.0584
10020TIP3    H251476   1.425   4.938   2.944 -0.6071 -0.9189  1.0077
10021TIP3   OH251477   3.595   4.696  11.702 -0.0144 -0.1119  0.2214
10021TIP3    H151478   3.680   4.681  11.661 -0.6720 -0.4141 -1.0605
10021TIP3    H251479   3.563   4.777  11.663 -0.1483  0.1922  0.9656
10022TIP3   OH251480   0.922   6.359   1.523 -0.0084 -0.1043  0.4475
10022TIP3    H151481   0.909   6.265   1.522 -0.3825 -0.0564  1.2648
10022TIP3    H251482   1.005   6.372   1.476  0.1195 -0.8422  0.4739
10023TIP3   OH251483   3.641   1.473   3.456 -0.2277 -0.1359 -0.1038
10023TIP3    H151484   3.686   1.507   3.533  0.4576  1.1793 -1.0731
10023TIP3    H251485   3.611   1.551   3.409  0.7944 -0.8681 -2.0157
10024TIP3   OH251486   0.944   0.319  12.760  0.1784 -0.0982  0.0350
10024TIP3    H151487   1.029   0.361  12.775 -0.4996  0.9068  1.0694
10024TIP3    H251488   0.961   0.226  12.776  1.8992 -0.4240 -3.1661
10025TIP3   OH251489   1.926   1.428  11.770 -0.3635  0.3603 -0.1689
10025TIP3    H151490   1.856   1.362  11.774 -1.8347  1.8743 -0.1840
10025TIP3    H251491   1.927   1.467  11.858  1.4603 -0.6200  0.2729
10026TIP3   OH251492   6.692   4.351   2.247  0.1355  0.0357  0.0095
10026TIP3    H151493   6.725   4.437   2.275 -1.5110  1.1715 -1.4460
10026TIP3    H251494   6.741   4.332   2.167  0.5253 -0.4161  0.3514
10027TIP3   OH251495   5.698   3.988  12.490 -0.1853  0.2147  0.1775
10027TIP3    H151496   5.774   3.931  12.503  0.4259  1.1427  0.7846
10027TIP3    H251497   5.631   3.931  12.453  1.2194 -0.3540 -1.5703
10028TIP3   OH251498   2.912   2.445  13.514 -0.1602  0.6952  0.6466
10028TIP3    H151499   2.834   2.450  13.569 -0.4218 -0.5466  0.3903
10028TIP3    H251500   2.879   2.461  13.425 -0.5262 -2.2315  0.2149
10029TIP3   OH251501   4.427   3.312  14.810 -0.9777  0.1082  0.3708
10029TIP3    H151502   4.378   3.262  14.874 -0.9584 -0.5457 -0.1158
10029TIP3    H251503   4.416   3.403  14.836 -1.2365 -0.1329  1.1049
10030TIP3   OH251504   2.549   6.239  12.858  0.3066  0.3459  0.0697
10030TIP3    H151505   2.548   6.213  12.950  3.0041 -0.5503 -0.1052
10030TIP3    H251506   2.476   6.192  12.819  1.2614 -2.0414  1.0790
10031TIP3   OH251507   2.675   5.493   1.577 -0.3282  0.0812  0.0778
10031TIP3    H151508   2.665   5.581   1.614 -0.3342  0.6865 -1.3279
10031TIP3    H251509   2.752   5.499   1.521 -1.4099 -0.3184 -1.4669
10032TIP3   OH251510   3.510   4.209   0.558  0.3051 -0.3923 -0.3196
10032TIP3    H151511   3.560   4.281   0.520 -1.1402  0.7260 -0.1500
10032TIP3    H251512   3.516   4.222   0.652 -0.1060 -0.3851 -0.2927
10033TIP3   OH251513   0.931   6.111   3.521 -0.2904  0.5318  0.8864
10033TIP3    H151514   1.006   6.053   3.509 -1.2692 -0.7428  0.8960
10033TIP3    H251515   0.949   6.186   3.463  0.9276  0.1867  0.8115
10034TIP3   OH251516   2.752   0.785   6.276 -0.1195  0.0415 -0.1671
10034TIP3    H151517   2.702   0.703   6.267  0.9137 -0.6376  0.1904
10034TIP3    H251518   2.843   0.757   6.282  0.1265  1.1437  1.3931
10035TIP3   OH251519   6.192   1.468  12.571  0.1966 -0.1127  1.0339
10035TIP3    H151520   6.281   1.460  12.605  0.3503 -2.2581  0.2040
10035TIP3    H251521   6.141   1.407  12.624 -0.2160 -0.9497 -0.2975
10036TIP3   OH251522   3.562   2.489  15.310  0.4367 -0.0272  0.3562
10036TIP3    H151523   3.625   2.513  15.378  0.9447 -1.9893  0.5903
10036TIP3    H251524   3.536   2.399  15.331 -0.7255 -0.0389 -1.0449
10037TIP3   OH251525   6.255   2.590   5.487  0.3652  0.1004 -0.5816
10037TIP3    H151526   6.236   2.669   5.435  0.7641  1.1833  0.8682
10037TIP3    H251527   6.346   2.603   5.515  0.9986 -1.7022 -1.7335
10038TIP3   OH251528   4.862   2.290  11.889 -0.2178  0.2102 -0.0652
10038TIP3    H151529   4.934   2.328  11.940  0.2344  0.3196 -0.7798
10038TIP3    H251530   4.898   2.209  11.854 -1.1549 -0.8641  1.3900
10039TIP3   OH251531   6.472   3.161  13.958 -0.0742 -0.0828  0.6052
10039TIP3    H151532   6.508   3.102  13.892  0.6781 -0.7228  1.5849
10039TIP3    H251533   6.377   3.150  13.951 -0.0112  0.0493 -0.5434
10040TIP3   OH251534   1.815   0.879  12.733 -0.3909  0.2621  0.3844
10040TIP3    H151535   1.820   0.857  12.640  0.5433  1.9315  0.0290
10040TIP3    H251536   1.832   0.796  12.778 -1.5730 -0.7103 -0.9158
10041TIP3   OH251537   0.899   6.555   3.400  0.0131 -0.3614 -0.0364
10041TIP3    H151538   0.962   6.584   3.335 -0.0068  1.4999  0.7418
10041TIP3    H251539   0.939   6.575   3.485 -0.3116 -1.9929  0.5330
10042TIP3   OH251540   4.924   0.675   4.298 -0.1019 -0.0186  0.4931
10042TIP3    H151541   4.974   0.711   4.371 -0.1767 -0.6231  0.8448
10042TIP3    H251542   4.918   0.581   4.317 -2.0949  0.1691  0.8776
10043TIP3   OH251543   1.447   5.899   6.565  0.4124 -0.2516 -0.3284
10043TIP3    H151544   1.528   5.855   6.539  0.8232  0.5189 -0.3470
10043TIP3    H251545   1.425   5.858   6.649  0.1529 -1.3246 -0.9019
10044TIP3   OH251546   0.497   6.458   0.507  0.3244  0.2872  0.2421
10044TIP3    H151547   0.501   6.541   0.461 -0.6037  0.5282  0.5970
10044TIP3    H251548   0.575   6.411   0.477  0.4905  1.0037 -0.4782
10045TIP3   OH251549   5.687   4.617  14.499  0.2525 -0.1684 -0.5233
10045TIP3    H151550   5.747   4.691  14.486  1.0801 -0.8246 -0.5360
10045TIP3    H251551   5.714   4.554  14.432  2.2688 -2.1662  2.0517
10046TIP3   OH251552   3.723   1.369  15.442  0.1749  0.0807 -0.0081
10046TIP3    H151553   3.670   1.296  15.475 -0.8199  0.2051 -1.2523
10046TIP3    H251554   3.739   1.424  15.518 -1.6358  0.1084  0.3797
10047TIP3   OH251555   4.891   6.523  11.610  0.1182 -0.2225 -0.3520
10047TIP3    H151556   4.849   6.583  11.549 -0.2966  0.9751  1.0696
10047TIP3    H251557   4.835   6.525  11.688  1.4081 -0.6133  0.6049
10048TIP3   OH251558   1.781   4.613  13.725 -0.0851  0.0688 -0.6468
10048TIP3    H151559   1.702   4.656  13.757 -0.6551 -1.0905 -0.4702
10048TIP3    H251560   1.767   4.605  13.630 -1.8805 -3.4719 -0.1756
10049TIP3   OH251561   5.473   5.614  12.900 -0.0159  0.0887  0.1650
10049TIP3    H151562   5.393   5.566  12.879  0.5783 -0.3423 -1.1746
10049TIP3    H251563   5.460   5.644  12.990 -2.5993  1.8968 -0.7407
10050TIP3   OH251564   5.285   5.099  11.216 -0.0340  0.3622 -0.1388
10050TIP3    H151565   5.333   5.161  11.162  2.6733 -0.2784  1.4134
10050TIP3    H251566   5.326   5.105  11.302 -1.4913 -1.6302  0.7496
10051TIP3   OH251567   4.806   0.033  14.771  0.8579  0.0062  0.3792
10051TIP3    H151568   4.875  -0.009  14.822  1.0194  0.2304  0.3477
10051TIP3    H251569   4.755  -0.040  14.735  1.9523 -0.2022 -0.8024
10052TIP3   OH251570   2.581   1.713   3.574 -0.2947 -0.1744  0.0659
10052TIP3    H151571   2.602   1.806   3.580  1.1480 -0.4062 -1.1642
10052TIP3    H251572   2.647   1.670   3.628 -0.8998 -0.4951  0.5510
10053TIP3   OH251573   0.799   5.745   0.137  0.1855  0.4341 -0.0305
10053TIP3    H151574   0.729   5.681   0.122  2.3696 -1.2577 -3.5274
10053TIP3    H251575   0.821   5.734   0.230 -2.6233 -0.5779  0.5784
10054TIP3   OH251576   4.922   6.706  13.038 -0.1143  0.3677 -0.1343
10054TIP3    H151577   4.951   6.655  12.962 -2.9869 -0.3172 -0.8362
10054TIP3    H251578   4.865   6.647  13.086 -0.5733  1.7353  1.0300
10055TIP3   OH251579   5.932   3.265   2.011  0.0300 -1.1278 -0.0684
10055TIP3    H151580   5.949   3.339   2.070  0.7018 -1.7125  0.4780
10055TIP3    H251581   5.852   3.290   1.964 -0.9495 -0.9789  1.6160
10056TIP3   OH251582   4.154   0.025  10.854 -0.2571 -0.2665 -0.0406
10056TIP3    H151583   4.110   0.045  10.772 -2.5284 -1.3124  0.8966
10056TIP3    H251584   4.223  -0.037  10.830  1.3188  2.0364 -1.6386
10057TIP3   OH251585   2.203   2.601  11.986 -0.0172  0.1970 -0.1352
10057TIP3    H151586   2.252   2.650  11.920  1.6697 -3.3225 -1.6328
10057TIP3    H251587   2.116   2.590  11.946 -0.1622  1.2630 -0.1302
10058TIP3   OH251588   0.023   0.998  13.970 -0.4025  0.4022  0.0684
10058TIP3    H151589   0.041   1.077  14.020 -0.6722  1.2731 -1.1979
10058TIP3    H251590  -0.047   0.954  14.019 -0.1613  0.8679  0.8421
10059TIP3   OH251591   0.959   5.910  15.715 -0.3585 -0.4834  0.3986
10059TIP3    H151592   1.044   5.929  15.755 -0.4094  0.4971  0.0452
10059TIP3    H251593   0.974   5.920  15.621 -1.1457  0.8039  0.4069
10060TIP3   OH251594   5.863   4.368   2.103 -0.1211 -0.3741 -0.0277
10060TIP3    H151595   5.897   4.286   2.140 -0.2733 -0.7937 -0.8090
10060TIP3    H251596   5.840   4.421   2.180  3.8257  0.6138  0.6064
10061TIP3   OH251597   2.688   5.770  11.914 -0.0545 -0.1457 -0.5179
10061TIP3    H151598   2.660   5.682  11.887  0.6378 -0.0197 -1.6695
10061TIP3    H251599   2.783   5.761  11.928  0.3331  0.8351 -2.3900
10062TIP3   OH251600   2.050   6.569  14.777 -0.3910  0.6228  0.4187
10062TIP3    H151601   2.077   6.479  14.793  0.9903  0.2847 -3.2264
10062TIP3    H251602   1.959   6.573  14.804 -0.5252 -1.9284  0.4054
10063TIP3   OH251603   3.115   3.476  12.234 -0.1604 -0.1402  0.1367
10063TIP3    H151604   3.049   3.544  12.243 -0.5852 -0.7460  1.8153
10063TIP3    H251605   3.080   3.417  12.167 -1.8801 -1.0557  1.8058
10064TIP3   OH251606   4.574   5.698  13.923 -0.2801 -0.2567  0.6072
10064TIP3    H151607   4.621   5.774  13.958 -0.7895  0.2232  0.2553
10064TIP3    H251608   4.642   5.632  13.911  0.1971  0.2024  0.7451
10065TIP3   OH251609   4.662   4.102   0.009  0.9295 -0.5260  0.1142
10065TIP3    H151610   4.746   4.130   0.045  0.2457  1.1872  0.4141
10065TIP3    H251611   4.596   4.139   0.068 -0.0565 -1.6262 -0.2699
10066TIP3   OH251612   4.744   0.176  12.039  0.3904  0.0430 -0.2461
10066TIP3    H151613   4.732   0.081  12.032  0.7795  0.0860 -1.8223
10066TIP3    H251614   4.757   0.205  11.948 -0.6018  1.7259  0.1274
10067TIP3   OH251615   5.174   0.420  12.991 -0.1390 -0.0370  0.1137
10067TIP3    H151616   5.163   0.332  13.028  0.8195 -0.3321 -0.2846
10067TIP3    H251617   5.220   0.469  13.059  0.5175 -0.2279 -0.1872
10068TIP3   OH251618   6.057   5.926  11.559 -0.1470  0.8599 -0.2350
10068TIP3    H151619   5.981   5.891  11.606 -0.1423 -0.5194 -1.2359
10068TIP3    H251620   6.044   5.898  11.469  2.2683 -0.6062 -0.1655
10069TIP3   OH251621   2.820   1.531  14.948  0.6274 -0.4920  0.5273
10069TIP3    H151622   2.811   1.622  14.919  2.2145 -0.5267 -0.1070
10069TIP3    H251623   2.893   1.532  15.009  0.6635 -1.3470  0.5053
10070TIP3   OH251624   4.524   4.517   5.631  0.1226 -0.0360  0.2875
10070TIP3    H151625   4.545   4.428   5.662 -1.6693 -0.7589 -0.5406
10070TIP3    H251626   4.503   4.565   5.711  0.7400 -0.4462  0.7051
10071TIP3   OH251627   5.656   5.732  15.856  0.4394 -0.6164  0.7558
10071TIP3    H151628   5.725   5.789  15.892  1.1730 -0.6331 -0.5762
10071TIP3    H251629   5.646   5.662  15.920  2.1465 -0.9671  0.6568
10072TIP3   OH251630   2.901   1.471   2.679  0.6579 -0.2254 -0.1225
10072TIP3    H151631   2.827   1.411   2.678 -0.0194  0.6014 -0.3143
10072TIP3    H251632   2.972   1.421   2.719 -0.0487 -0.9674  0.2167
10073TIP3   OH251633   5.238   4.166   0.406 -0.3784  0.1614 -0.4602
10073TIP3    H151634   5.271   4.245   0.450  1.5274 -0.4892 -0.6829
10073TIP3    H251635   5.214   4.107   0.477 -2.3925  1.1403 -0.2839
10074TIP3   OH251636   1.725   2.621   4.233  0.1729  0.3914  0.2852
10074TIP3    H151637   1.758   2.656   4.316 -0.1184  2.1610 -0.3161
10074TIP3    H251638   1.642   2.667   4.219 -0.3104 -0.6956 -0.4526
10075TIP3   OH251639   1.026   4.570  16.513 -0.4872  0.0779 -0.2187
10075TIP3    H151640   1.105   4.532  16.475 -1.5763  0.1813 -2.6517
10075TIP3    H251641   0.972   4.495  16.538  0.2690  0.0095  1.2924
10076TIP3   OH251642   5.800   4.226   3.806 -0.3133 -0.0934  0.9639
10076TIP3    H151643   5.709   4.248   3.821 -0.1933  0.1332  1.3628
10076TIP3    H251644   5.847   4.264   3.881 -0.0482 -1.2707  1.3970
10077TIP3   OH251645   1.285   5.879  17.185 -0.0847 -0.0273 -0.4257
10077TIP3    H151646   1.331   5.944  17.132  0.6039 -1.0666 -1.1175
10077TIP3    H251647   1.241   5.823  17.121 -1.9154  0.6487  0.2113
10078TIP3   OH251648   3.657   5.401  14.686 -0.7384 -0.0764 -0.0633
10078TIP3    H151649   3.588   5.384  14.621 -1.3143  2.0397 -0.0402
10078TIP3    H251650   3.617   5.462  14.748  0.7756  0.2362  0.6295
10079TIP3   OH251651   4.641   0.644   3.159  0.0915  0.1070  0.0330
10079TIP3    H151652   4.703   0.692   3.105  0.1042 -0.0772 -0.1174
10079TIP3    H251653   4.631   0.560   3.115  0.7601 -0.3758  0.7701
10080TIP3   OH251654   1.451   1.963   3.608  0.1958 -0.1865  0.1235
10080TIP3    H151655   1.411   2.043   3.642  0.0302  0.3141 -1.2147
10080TIP3    H251656   1.409   1.892   3.656 -0.3124  0.4856  0.6713
10081TIP3   OH251657   2.454   5.633   4.540 -0.2547 -0.4981 -0.0918
10081TIP3    H151658   2.437   5.727   4.546  1.6283 -0.1749  0.5825
10081TIP3    H251659   2.447   5.602   4.631  2.2676 -0.3915  0.1950
10082TIP3   OH251660   0.204   6.475   1.792  0.1219 -0.8122  0.1396
10082TIP3    H151661   0.177   6.552   1.841  2.2558  0.8013 -1.1335
10082TIP3    H251662   0.290   6.452   1.828  0.8750 -0.7123 -1.5287
10083TIP3   OH251663   5.354   0.902   4.871  0.2043 -0.2755 -0.0702
10083TIP3    H151664   5.439   0.946   4.878 -0.6183  0.9879  2.5746
10083TIP3    H251665   5.358   0.833   4.938 -1.1776  0.3781  0.7053
10084TIP3   OH251666   5.307   0.142  10.987 -0.2206 -0.5480  0.6248
10084TIP3    H151667   5.231   0.174  11.037 -0.4556 -0.8175  0.4394
10084TIP3    H251668   5.281   0.055  10.957 -0.2927 -0.1552 -0.4418
10085TIP3   OH251669   4.995   3.844  10.760  0.3654  0.0029 -0.3903
10085TIP3    H151670   4.928   3.912  10.748  0.9348  0.1530 -2.9327
10085TIP3    H251671   5.073   3.892  10.787  0.2868  0.1518 -0.4279
10086TIP3   OH251672   4.548   3.612   1.723 -0.3690 -0.2692 -0.1243
10086TIP3    H151673   4.577   3.697   1.689 -0.9687 -0.5357 -1.3548
10086TIP3    H251674   4.597   3.548   1.671 -1.6088 -0.6936 -0.7836
10087TIP3   OH251675   3.752   0.226  11.565  0.3253 -0.1910  0.2257
10087TIP3    H151676   3.658   0.213  11.572  0.2388 -0.0977 -0.6533
10087TIP3    H251677   3.782   0.154  11.510  0.6082  0.3652 -0.3625
10088TIP3   OH251678   3.822   6.239   5.250  0.2314  0.4436  0.3791
10088TIP3    H151679   3.820   6.194   5.165 -0.5766 -0.7122  0.9932
10088TIP3    H251680   3.799   6.329   5.230 -1.2192 -0.0967 -0.4800
10089TIP3   OH251681   3.088   0.567  15.366  0.4218  0.8427 -0.2676
10089TIP3    H151682   3.148   0.632  15.403 -0.1616  0.5642  1.1634
10089TIP3    H251683   3.067   0.509  15.438  1.0903 -1.0752 -1.5861
10090TIP3   OH251684   3.313   0.965  11.202  0.2176 -0.7124 -0.8083
10090TIP3    H151685   3.346   0.964  11.292  0.3993 -1.9053 -0.8797
10090TIP3    H251686   3.392   0.970  11.148  0.1091 -0.0138 -0.9082
10091TIP3   OH251687   5.571   3.744   2.069 -0.6644  0.0819 -0.4499
10091TIP3    H151688   5.611   3.816   2.119 -1.4777 -0.4360  0.9801
10091TIP3    H251689   5.565   3.778   1.980 -1.0385  1.8107  0.2074
10092TIP3   OH251690   0.117   6.034   2.830  0.2593  0.5485 -0.2142
10092TIP3    H151691   0.050   6.053   2.764  1.3838 -0.7461 -1.7750
10092TIP3    H251692   0.197   6.019   2.779  0.9737 -1.2668  1.3895
10093TIP3   OH251693   1.757   6.371  11.785 -0.6285 -0.1321  0.0238
10093TIP3    H151694   1.728   6.279  11.788 -1.3601 -0.0117 -2.0506
10093TIP3    H251695   1.805   6.377  11.702 -0.0529  1.2116  0.4558
10094TIP3   OH251696   1.010   0.903  14.389 -0.4313  1.1141 -0.4151
10094TIP3    H151697   1.060   0.825  14.410 -0.7653  0.5682 -1.5714
10094TIP3    H251698   1.076   0.971  14.374 -0.0512  0.5855 -1.2088
10095TIP3   OH251699   1.179   0.071   6.333 -0.4496  0.4803 -0.2318
10095TIP3    H151700   1.270   0.045   6.322 -0.6542  0.3364 -1.7230
10095TIP3    H251701   1.129  -0.002   6.297 -1.1821  0.1191  1.5010
10096TIP3   OH251702   4.480   0.688  11.319 -0.4173 -0.7130 -0.2939
10096TIP3    H151703   4.443   0.732  11.395  1.2508  3.4248 -1.7232
10096TIP3    H251704   4.405   0.675  11.260 -0.7348  1.5489 -0.4198
10097TIP3   OH251705   6.117   3.695  14.824 -0.5066  0.2682  0.3433
10097TIP3    H151706   6.194   3.751  14.839 -1.3286  1.7711 -0.9279
10097TIP3    H251707   6.152   3.606  14.824  1.0199  0.8518  1.1939
10098TIP3   OH251708   1.790   3.941   0.720 -0.3283  0.5315  0.6515
10098TIP3    H151709   1.799   3.985   0.804  0.7777 -0.1277  0.8865
10098TIP3    H251710   1.880   3.924   0.691 -0.6934 -3.0082  1.3298
10099TIP3   OH251711   4.514   6.660  17.072  0.3486  0.6224 -0.9261
10099TIP3    H151712   4.436   6.605  17.079  0.7973  0.0979 -0.0402
10099TIP3    H251713   4.560   6.648  17.155  0.6592  2.0200 -0.8888
10100TIP3   OH251714   3.769   1.511   2.096  0.3661 -0.0907  0.2076
10100TIP3    H151715   3.738   1.590   2.052  0.7820  0.4929  0.9330
10100TIP3    H251716   3.865   1.515   2.087  0.4253 -0.1877  0.7740
10101TIP3   OH251717   4.552   0.594   2.894 -0.3869 -0.3047  0.8652
10101TIP3    H151718   4.572   0.652   2.820 -0.7501 -0.7107  0.4449
10101TIP3    H251719   4.470   0.552   2.869 -0.6941 -0.1792  1.6636
10102TIP3   OH251720   0.626   5.807   4.460  0.2411 -0.0018 -0.2616
10102TIP3    H151721   0.716   5.780   4.441  0.1653 -0.0883 -0.5054
10102TIP3    H251722   0.572   5.747   4.409 -0.0883 -2.1257  2.4623
10103TIP3   OH251723   4.808   2.580  11.860 -0.5229 -0.4595 -0.3095
10103TIP3    H151724   4.765   2.584  11.946  1.0353 -1.4158  0.5454
10103TIP3    H251725   4.736   2.578  11.797 -1.6819  2.6629  0.8390
10104TIP3   OH251726   1.126   1.961  14.367  0.2796  0.0085 -0.0975
10104TIP3    H151727   1.063   1.912  14.315 -1.9017  1.7003  0.8565
10104TIP3    H251728   1.182   1.894  14.407 -1.6381 -1.5837 -0.0453
10105TIP3   OH251729   3.122   1.328  15.756 -0.1485 -0.6582  0.3840
10105TIP3    H151730   3.164   1.346  15.672 -1.7202 -1.5122 -0.6057
10105TIP3    H251731   3.038   1.373  15.750 -1.1216 -2.3982  0.6824
10106TIP3   OH251732   5.696   5.433  13.501 -0.4659  0.2921  0.2713
10106TIP3    H151733   5.734   5.374  13.437 -0.8520 -0.5637  0.8082
10106TIP3    H251734   5.763   5.499  13.517 -0.3398  0.4548 -0.9364
10107TIP3   OH251735   5.331   4.629  16.527  0.1815 -0.1795  0.4147
10107TIP3    H151736   5.291   4.627  16.614  0.5560 -1.5645  0.5646
10107TIP3    H251737   5.418   4.592  16.540 -0.0633 -1.1657 -0.6923
10108TIP3   OH251738   1.947   1.890   4.186  0.0832  0.2761 -0.3290
10108TIP3    H151739   1.957   1.883   4.281 -1.0080 -0.3127 -0.2511
10108TIP3    H251740   1.906   1.807   4.160  1.9185 -0.2899 -1.5371
10109TIP3   OH251741   0.546   0.409   3.113 -0.2027  0.5128  0.1537
10109TIP3    H151742   0.504   0.474   3.169  2.9690  0.8994  2.2378
10109TIP3    H251743   0.572   0.458   3.035  0.0899  1.2271  0.6957
10110TIP3   OH251744   0.462   4.743   6.318 -0.4510  0.0351  0.1361
10110TIP3    H151745   0.524   4.782   6.257 -1.3269 -0.2848 -0.9780
10110TIP3    H251746   0.497   4.656   6.337  0.5858  0.6840  1.2472
10111TIP3   OH251747   5.082   0.425   5.856 -0.1738 -0.3400 -0.1095
10111TIP3    H151748   5.061   0.332   5.843  0.8765 -0.7084  0.7355
10111TIP3    H251749   5.140   0.426   5.932 -0.1864  1.0147 -0.1105
10112TIP3   OH251750   3.211   2.902   4.338  0.2364  0.1390 -0.6734
10112TIP3    H151751   3.204   2.997   4.331 -1.4108  0.0895  0.0055
10112TIP3    H251752   3.122   2.870   4.322  0.6059 -1.2299 -0.0926
10113TIP3   OH251753   2.081   1.730   3.061  0.2963  0.1631 -0.5999
10113TIP3    H151754   1.993   1.694   3.074 -0.0389  1.1373 -0.0567
10113TIP3    H251755   2.128   1.663   3.011  0.1558 -1.6123  1.6118
10114TIP3   OH251756   3.445   1.391  15.019 -0.0367 -0.0423 -0.1983
10114TIP3    H151757   3.421   1.404  15.110 -0.1914  0.7449 -0.3518
10114TIP3    H251758   3.481   1.302  15.016  1.2610  0.4266  0.8917
10115TIP3   OH251759   1.768   2.888   4.750  0.4543 -0.3004  0.6948
10115TIP3    H151760   1.726   2.821   4.804 -1.6125  0.6222  0.2709
10115TIP3    H251761   1.720   2.968   4.770  2.1941  0.8472  0.3675
10116TIP3   OH251762   4.211   0.379  16.612  0.3409 -0.7460  0.0384
10116TIP3    H151763   4.292   0.422  16.584 -0.8226  1.2598 -0.3810
10116TIP3    H251764   4.211   0.388  16.707  0.3904 -0.3444 -0.0006
10117TIP3   OH251765   0.704   2.030  11.352  0.3164  0.7026  0.3988
10117TIP3    H151766   0.725   1.993  11.438 -0.1049 -0.6400 -0.0735
10117TIP3    H251767   0.789   2.038  11.308  0.1845 -1.9384 -0.3895
10118TIP3   OH251768   0.012   5.566  13.551 -0.1223 -0.1541 -0.7665
10118TIP3    H151769   0.023   5.660  13.569 -0.4280  0.4991 -3.7066
10118TIP3    H251770  -0.083   5.554  13.545 -0.1000 -0.7531 -0.0338
10119TIP3   OH251771   4.693   4.558  16.607  0.5698  0.5635 -0.3481
10119TIP3    H151772   4.696   4.468  16.639  3.5703  0.5531 -0.4999
10119TIP3    H251773   4.644   4.553  16.525  0.5021 -0.8990 -0.2215
10120TIP3   OH251774   6.187   3.982  14.474 -0.2558 -0.2622  0.2073
10120TIP3    H151775   6.098   4.013  14.460 -0.5147 -0.5328  1.2197
10120TIP3    H251776   6.196   3.907  14.416 -1.0134 -0.8208  0.7912
10121TIP3   OH251777   1.970   6.431  12.548  0.1927  0.1626 -0.5251
10121TIP3    H151778   1.942   6.512  12.591 -0.8332 -0.0537 -0.7817
10121TIP3    H251779   1.889   6.392  12.515  0.2244 -2.8223  2.7493
10122TIP3   OH251780   2.616   2.076  13.944  0.4295 -0.2684 -0.1161
10122TIP3    H151781   2.585   2.151  13.893 -0.7825  0.4851  1.6600
10122TIP3    H251782   2.545   2.012  13.938  0.9571 -0.8178 -0.6475
10123TIP3   OH251783   1.080   1.473  11.220 -0.4374 -0.0115 -0.3396
10123TIP3    H151784   1.129   1.554  11.223  0.2692 -0.4850  1.0877
10123TIP3    H251785   0.993   1.499  11.190 -0.3472  1.3374  0.5170
10124TIP3   OH251786   5.534   1.742  12.079 -0.0251 -0.2153 -0.2048
10124TIP3    H151787   5.533   1.646  12.082 -1.5641 -0.2249 -0.7966
10124TIP3    H251788   5.467   1.765  12.015  0.4749  1.2651 -0.2236
10125TIP3   OH251789   1.143   3.608  13.144  0.1712  0.3257  0.2565
10125TIP3    H151790   1.175   3.521  13.167  1.1987  0.3511 -0.9958
10125TIP3    H251791   1.062   3.618  13.194 -0.0844 -1.4299  0.2249
10126TIP3   OH251792   3.460   1.435   2.405 -0.5674  0.1747 -0.0899
10126TIP3    H151793   3.501   1.364   2.355  0.9848  0.9558  0.0420
10126TIP3    H251794   3.426   1.495   2.338 -0.4907  0.1006 -0.1947
10127TIP3   OH251795   6.086   4.720  14.563 -0.2903  0.0327 -0.5141
10127TIP3    H151796   6.011   4.705  14.619  0.6941 -1.0823  0.5331
10127TIP3    H251797   6.049   4.737  14.476 -1.7356 -0.2235  0.0492
10128TIP3   OH251798   6.566   1.699  15.926  0.6661 -0.3237 -0.0678
10128TIP3    H151799   6.577   1.636  15.997  1.4602  0.9845  0.9962
10128TIP3    H251800   6.473   1.721  15.927  0.9326  0.8366  1.5890
10129TIP3   OH251801   5.023   2.865   5.072  0.5299  0.3802  1.1256
10129TIP3    H151802   4.934   2.900   5.064  0.4498 -0.0259  0.0971
10129TIP3    H251803   5.026   2.828   5.160 -1.0466 -1.5506  0.4051
10130TIP3   OH251804   3.284   1.248  10.714  0.0742  0.0640  0.2091
10130TIP3    H151805   3.214   1.196  10.676  1.5802 -0.7133 -1.5831
10130TIP3    H251806   3.257   1.339  10.700  0.4904 -0.2021 -2.5705
10131TIP3   OH251807   5.010   5.285  10.737 -0.0119 -0.1898 -0.4949
10131TIP3    H151808   4.940   5.259  10.677 -0.0069  1.4491 -1.2314
10131TIP3    H251809   5.089   5.246  10.700 -0.3617 -1.1450 -0.2513
10132TIP3   OH251810   6.174   4.249   3.903 -0.8360  0.0891  0.4124
10132TIP3    H151811   6.102   4.267   3.962 -1.4093 -3.6555  1.0214
10132TIP3    H251812   6.231   4.189   3.952  0.6955 -0.0315 -1.4210
10133TIP3   OH251813   5.257   6.622   2.510  0.0002 -0.5505 -0.5902
10133TIP3    H151814   5.304   6.635   2.428  3.8567  0.4888  1.6903
10133TIP3    H251815   5.283   6.695   2.565  0.6488 -3.2891  2.9441
10134TIP3   OH251816   2.187   0.159   2.406  0.2643 -0.2444 -0.0550
10134TIP3    H151817   2.171   0.136   2.498 -0.0391 -1.9355 -0.5004
10134TIP3    H251818   2.273   0.121   2.386  0.1925 -0.1601 -0.5444
10135TIP3   OH251819   1.240   5.602   6.067 -0.6592 -0.3404 -0.2148
10135TIP3    H151820   1.329   5.633   6.084 -1.2627  1.2420  0.1450
10135TIP3    H251821   1.184   5.672   6.099 -2.0323 -1.0848 -0.9550
10136TIP3   OH251822   4.680   2.743   1.785 -0.0618  0.3041  0.0955
10136TIP3    H151823   4.683   2.673   1.850 -1.6921 -0.5812 -0.7569
10136TIP3    H251824   4.597   2.789   1.803  1.4627  2.6813  1.3044
10137TIP3   OH251825   6.594   2.356  14.831 -0.3768 -0.1863 -0.2497
10137TIP3    H151826   6.618   2.441  14.795 -3.8861  0.6856 -0.6191
10137TIP3    H251827   6.576   2.301  14.755 -1.6431 -0.1872  0.0428
10138TIP3   OH251828   0.860   3.773  12.795  0.1826  0.5587 -0.2143
10138TIP3    H151829   0.810   3.706  12.842 -0.8164  0.7147 -1.0553
10138TIP3    H251830   0.915   3.724  12.735  1.0426  0.3877  0.6985
10139TIP3   OH251831   0.958   2.984   5.683 -0.0692  0.2387  0.0520
10139TIP3    H151832   0.984   2.959   5.772 -0.7301  0.5449  0.3354
10139TIP3    H251833   0.863   2.992   5.688 -0.0183  1.1281 -0.4652
10140TIP3   OH251834   1.621   0.782   0.129  0.0008 -0.4157  0.2730
10140TIP3    H151835   1.632   0.762   0.036 -1.6164 -0.3960  0.0556
10140TIP3    H251836   1.580   0.703   0.165 -0.5988  0.0797  0.6878
10141TIP3   OH251837   3.045   2.667  11.531 -0.3643  0.2683 -0.2238
10141TIP3    H151838   3.009   2.754  11.544  2.0469  1.5495 -1.7708
10141TIP3    H251839   3.077   2.667  11.441  1.9318 -1.3282  0.5436
10142TIP3   OH251840   2.011   1.022   4.647 -0.0988  0.4698 -0.0271
10142TIP3    H151841   1.957   1.098   4.627  1.2855  0.9446 -2.2296
10142TIP3    H251842   2.084   1.029   4.585  0.6751 -1.9809  0.5758
10143TIP3   OH251843   1.164   1.809  11.946  0.0891  0.4849  0.1235
10143TIP3    H151844   1.215   1.882  11.911 -0.2091  0.1227 -1.0875
10143TIP3    H251845   1.228   1.757  11.996  0.4447  1.2065  0.4229
10144TIP3   OH251846   1.212   4.068   1.761 -0.1328  0.3379 -0.0885
10144TIP3    H151847   1.160   4.000   1.804 -0.2670 -0.0982 -0.9105
10144TIP3    H251848   1.282   4.020   1.716 -0.8983  0.6191 -1.6250
10145TIP3   OH251849   5.965   1.875   5.944 -0.3852  0.0779 -0.1314
10145TIP3    H151850   5.985   1.896   6.035 -3.7151 -0.3487  0.7290
10145TIP3    H251851   5.928   1.956   5.908  0.3387  0.0547 -0.9473
10146TIP3   OH251852   6.327   6.184  16.758  0.5041 -0.5317 -0.5548
10146TIP3    H151853   6.285   6.204  16.674 -0.7604 -2.7362 -0.5004
10146TIP3    H251854   6.337   6.269  16.801 -2.0598  0.2857 -1.4626
10147TIP3   OH251855   0.919   0.115  11.059 -0.5099 -0.2491 -0.1873
10147TIP3    H151856   0.869   0.127  10.978  0.2702  0.3234 -0.5937
10147TIP3    H251857   0.941   0.204  11.087 -0.9001 -0.4358  0.7420
10148TIP3   OH251858   1.519   5.912   3.561  0.2378  0.1505  0.3902
10148TIP3    H151859   1.531   5.823   3.594 -2.4453  0.4750  2.4822
10148TIP3    H251860   1.443   5.945   3.610  0.6633  3.2871 -0.9538
10149TIP3   OH251861   5.504   2.403  15.415  0.3339  0.0320  0.0376
10149TIP3    H151862   5.446   2.329  15.400  1.1135 -0.8319  1.2088
10149TIP3    H251863   5.462   2.476  15.369 -1.1263 -0.8187 -0.0173
10150TIP3   OH251864   3.520   4.257   0.826 -0.0560 -0.1732 -0.6896
10150TIP3    H151865   3.494   4.189   0.889 -0.6269 -0.0951 -0.8382
10150TIP3    H251866   3.462   4.330   0.845 -0.0953 -0.0754 -1.1765
10151TIP3   OH251867   5.993   3.662  14.374 -0.4865 -0.4331 -0.1999
10151TIP3    H151868   5.951   3.582  14.405  0.0479 -1.1107 -1.1946
10151TIP3    H251869   5.994   3.654  14.279 -0.0390  0.5545 -0.2872
10152TIP3   OH251870   1.219   4.856  16.025  0.1438  0.7501 -0.2385
10152TIP3    H151871   1.181   4.912  15.958  0.3887  0.6886 -0.4289
10152TIP3    H251872   1.177   4.884  16.106 -1.4689 -0.3975 -0.6678
10153TIP3   OH251873   5.504   2.050  11.890 -0.3645  0.1144 -0.7090
10153TIP3    H151874   5.470   1.962  11.876 -0.1794  0.0923 -1.0229
10153TIP3    H251875   5.482   2.070  11.981  0.4040 -0.6176 -0.3519
10154TIP3   OH251876   6.490   0.214   1.000  0.5471  0.5330 -0.3551
10154TIP3    H151877   6.464   0.255   0.918  2.4562  1.3138 -0.5940
10154TIP3    H251878   6.413   0.163   1.027 -0.0873  0.2190 -2.6422
10155TIP3   OH251879   6.063   1.604  13.351 -0.6828  0.4193  0.2695
10155TIP3    H151880   6.048   1.653  13.432 -3.2020 -0.1392  0.1695
10155TIP3    H251881   6.077   1.514  13.380 -1.0558  0.3126  0.1125
10156TIP3   OH251882   4.969   5.624  12.519  0.2786 -0.6314  0.4231
10156TIP3    H151883   5.016   5.698  12.480 -1.3186 -0.4743 -1.2687
10156TIP3    H251884   4.891   5.664  12.560 -1.5161 -1.5152 -2.0044
10157TIP3   OH251885   6.194   1.133  12.216 -0.4954  0.2642  0.8278
10157TIP3    H151886   6.256   1.179  12.274 -0.0808 -1.2660  1.6343
10157TIP3    H251887   6.214   1.040  12.229  1.1520 -0.1104 -3.4517
10158TIP3   OH251888   3.696   1.781   4.992 -0.1841  0.6220  0.0270
10158TIP3    H151889   3.778   1.831   4.998 -0.5492  1.2944 -0.4146
10158TIP3    H251890   3.684   1.743   5.078  0.4356  0.7799  0.1858
10159TIP3   OH251891   5.173   5.124   2.050 -0.0563 -0.2034 -0.5000
10159TIP3    H151892   5.159   5.079   2.134  1.8563 -0.2647 -0.1841
10159TIP3    H251893   5.172   5.217   2.073 -2.3712 -0.1159 -0.8864
10160TIP3   OH251894   6.074   3.459   1.777 -0.0338  0.1888 -0.7094
10160TIP3    H151895   6.008   3.449   1.709  0.4992  0.8526 -1.3225
10160TIP3    H251896   6.025   3.450   1.859 -0.6021 -1.0911 -1.1662
10161TIP3   OH251897   6.280   1.083   0.307  0.5168  0.0188  0.4584
10161TIP3    H151898   6.192   1.099   0.273  0.7768  0.6278  0.0648
10161TIP3    H251899   6.280   1.125   0.393  0.4326  0.0553  0.4406
10162TIP3   OH251900   5.315   2.339  13.170  0.2562 -0.2698  0.2859
10162TIP3    H151901   5.308   2.343  13.074 -0.0729 -0.6201  0.2959
10162TIP3    H251902   5.409   2.332  13.186  0.4207  1.2337  0.0428
10163TIP3   OH251903   0.808   0.040  12.784  0.1749  0.4669  0.6509
10163TIP3    H151904   0.883   0.039  12.843  3.1999  0.3809 -2.9706
10163TIP3    H251905   0.751  -0.030  12.815  1.8409  0.2039  3.2194
10164TIP3   OH251906   3.534   4.470  12.901  0.0775 -0.5447  0.5899
10164TIP3    H151907   3.527   4.389  12.851 -2.9035  1.3241 -2.2322
10164TIP3    H251908   3.592   4.526  12.848 -1.8732  0.8989 -0.0832
10165TIP3   OH251909   4.739   2.323  15.384  0.5378 -0.1247 -0.6483
10165TIP3    H151910   4.820   2.371  15.401  0.6547 -0.6099  0.1679
10165TIP3    H251911   4.720   2.340  15.291  0.2570  1.9976 -0.2276
10166TIP3   OH251912   1.829   5.035   3.231  0.1005  0.1815 -0.1137
10166TIP3    H151913   1.829   4.950   3.186 -0.6424 -0.3405  0.8733
10166TIP3    H251914   1.737   5.056   3.244  0.1723  2.4044 -2.6663
10167TIP3   OH251915   6.067   3.413   5.925  0.6372 -0.3106 -0.0182
10167TIP3    H151916   6.059   3.498   5.883 -1.8702 -1.1633 -1.3534
10167TIP3    H251917   6.095   3.433   6.014 -3.3764  2.2132  0.8012
10168TIP3   OH251918   1.021   0.569  13.265 -0.0384 -0.1234  0.1351
10168TIP3    H151919   1.027   0.484  13.307 -0.7123  0.2882  1.0892
10168TIP3    H251920   1.091   0.621  13.305 -0.3522  0.1154  0.3740
10169TIP3   OH251921   4.433   0.432  15.422  0.1130 -0.3602 -0.6008
10169TIP3    H151922   4.366   0.365  15.407  0.7256 -1.0369 -0.3363
10169TIP3    H251923   4.407   0.472  15.506 -1.8939  1.7311 -2.1562
10170TIP3   OH251924   1.151   1.626   1.426 -0.3712 -0.5374 -0.6179
10170TIP3    H151925   1.216   1.676   1.474  0.4346 -2.4908  0.4074
10170TIP3    H251926   1.176   1.634   1.334  0.6941 -0.4144 -0.3168
10171TIP3   OH251927   1.337   2.059   2.763 -0.2023  0.4161  0.0496
10171TIP3    H151928   1.245   2.067   2.786  0.2940  1.4635  1.7751
10171TIP3    H251929   1.384   2.069   2.846  1.4220 -1.4764 -0.5922
10172TIP3   OH251930   4.132   5.215   3.281  0.5188 -0.2783 -0.1855
10172TIP3    H151931   4.211   5.163   3.263  1.8328  1.3956  0.6697
10172TIP3    H251932   4.070   5.152   3.319  1.8404 -1.3695  0.1953
10173TIP3   OH251933   4.104   0.608  11.215  0.4568  0.2231  0.7742
10173TIP3    H151934   4.051   0.560  11.151 -0.4922  1.0300  0.9305
10173TIP3    H251935   4.172   0.651  11.163 -0.3599  0.9462  0.2917
10174TIP3   OH251936   5.712   5.297   0.633 -0.2007  0.5238  1.0130
10174TIP3    H151937   5.771   5.312   0.707  0.6348  3.3604 -0.1390
10174TIP3    H251938   5.764   5.320   0.557 -1.9868  0.4840 -0.2396
10175TIP3   OH251939   5.196   6.373   4.333  0.0869  0.0134  0.3931
10175TIP3    H151940   5.150   6.353   4.251 -0.5148 -0.5029  0.8542
10175TIP3    H251941   5.285   6.340   4.319  0.0525  0.1435 -0.1423
10176TIP3   OH251942   4.799   3.755   3.406 -0.2093 -0.7888  0.3464
10176TIP3    H151943   4.812   3.676   3.354  0.8074 -0.1464 -0.4071
10176TIP3    H251944   4.753   3.815   3.348 -0.0431 -0.4556  0.5536
10177TIP3   OH251945   0.196   5.468  13.121 -0.0670  0.0879  0.5475
10177TIP3    H151946   0.175   5.537  13.058  1.5050 -0.2631 -0.4023
10177TIP3    H251947   0.115   5.417  13.128 -0.1939 -0.0385 -1.4385
10178TIP3   OH251948   1.791   4.161  12.156 -0.3523 -0.4087 -0.4576
10178TIP3    H151949   1.722   4.177  12.221  1.0850 -0.2666  1.0644
10178TIP3    H251950   1.810   4.248  12.120 -1.2281 -0.5028 -1.1499
10179TIP3   OH251951   6.297   0.104  14.472 -0.3916  0.3129  0.0539
10179TIP3    H151952   6.381   0.107  14.425  0.1371 -1.5906  0.8078
10179TIP3    H251953   6.311   0.158  14.549  0.3325 -0.4110  0.4387
10180TIP3   OH251954   3.992   3.836  14.438 -0.8357  0.6098  0.2555
10180TIP3    H151955   3.941   3.756  14.448 -0.4614  0.3457  0.0169
10180TIP3    H251956   4.018   3.859  14.527 -1.5186  0.8423  0.4036
10181TIP3   OH251957   3.567   3.713  12.343 -0.1194 -0.3387  0.1821
10181TIP3    H151958   3.565   3.789  12.401 -2.2131 -0.2286 -0.0037
10181TIP3    H251959   3.562   3.638  12.403  0.1651 -0.2945  0.2646
10182TIP3   OH251960   4.195   5.616   4.937  0.4005  0.0865 -0.4162
10182TIP3    H151961   4.279   5.654   4.959  0.2843  0.0796  0.0562
10182TIP3    H251962   4.154   5.598   5.022 -0.7850  1.6595 -0.6248
10183TIP3   OH251963   6.712   1.695  13.211 -0.5271 -0.4996  0.1998
10183TIP3    H151964   6.726   1.711  13.118  0.1820 -1.6902  0.1033
10183TIP3    H251965   6.635   1.748  13.232 -0.2212  0.4048 -0.8766
10184TIP3   OH251966   5.826   6.673  14.503  0.1775  0.6460  0.1533
10184TIP3    H151967   5.769   6.706  14.434 -1.0776 -1.3923  0.1786
10184TIP3    H251968   5.796   6.718  14.582 -0.8521  0.2000  0.0212
10185TIP3   OH251969   4.445   5.119  16.568 -0.0843  0.4610 -0.0205
10185TIP3    H151970   4.466   5.053  16.503 -0.1979  0.7649 -0.3674
10185TIP3    H251971   4.526   5.170  16.577  1.5119 -2.4662  3.5465
10186TIP3   OH251972   0.571   6.462   1.353  0.4808  0.1474  0.2974
10186TIP3    H151973   0.626   6.404   1.300 -0.4660  0.3077 -0.8527
10186TIP3    H251974   0.612   6.548   1.344  0.0176  0.2759 -0.5962
10187TIP3   OH251975   0.803   6.395  16.939 -0.0133  0.0805  0.0426
10187TIP3    H151976   0.714   6.373  16.912 -0.2031  0.4706  0.3558
10187TIP3    H251977   0.805   6.376  17.032  0.6638 -1.3378 -0.2435
10188TIP3   OH251978   3.803   2.566  10.574 -0.6992  0.1753 -0.1715
10188TIP3    H151979   3.809   2.655  10.540 -0.7761 -0.0421 -0.7659
10188TIP3    H251980   3.823   2.574  10.667 -1.8726  0.9822  0.0173
10189TIP3   OH251981   6.409   0.797  14.369  0.2315  0.3664 -0.1654
10189TIP3    H151982   6.374   0.728  14.313  0.9851 -1.4028  1.4971
10189TIP3    H251983   6.386   0.770  14.458 -0.3648  2.7842  0.4614
10190TIP3   OH251984   2.990   2.684   2.272  0.0600 -0.0272 -0.5718
10190TIP3    H151985   2.971   2.677   2.179 -0.1604  2.2651 -0.7384
10190TIP3    H251986   2.905   2.702   2.313  0.4826  1.2712 -0.2260
10191TIP3   OH251987   3.611   6.713   3.510 -0.0074 -0.5268 -0.3767
10191TIP3    H151988   3.692   6.763   3.498 -0.2550 -0.4484 -1.7920
10191TIP3    H251989   3.541   6.777   3.497 -0.3349 -1.3179 -2.7329
10192TIP3   OH251990   5.442   2.736   4.729 -0.1117 -0.1574  0.1729
10192TIP3    H151991   5.476   2.824   4.748  1.9089 -0.3887 -2.1486
10192TIP3    H251992   5.359   2.753   4.683 -0.5723  0.4843  1.2054
10193TIP3   OH251993   1.441   5.630  17.118 -0.1676  0.0291  0.1377
10193TIP3    H151994   1.437   5.683  17.039 -1.8670  0.9924  0.8457
10193TIP3    H251995   1.431   5.693  17.190 -0.2899 -1.0240  1.0571
10194TIP3   OH251996   4.100   4.193  16.491  0.1926  0.4319  0.7050
10194TIP3    H151997   4.097   4.280  16.531 -0.2159  0.5603  0.3938
10194TIP3    H251998   4.088   4.209  16.398 -0.0346  0.0290  0.6621
10195TIP3   OH251999   2.512   4.418  15.934  0.1083 -0.3610  0.0125
10195TIP3    H152000   2.479   4.499  15.896  1.8201 -0.1777 -1.1307
10195TIP3    H252001   2.497   4.428  16.028 -1.0010  0.6479 -0.2533
10196TIP3   OH252002   3.052   5.599   4.136 -0.5709 -0.3726  0.2616
10196TIP3    H152003   3.028   5.538   4.067 -0.1042 -0.6944  0.3907
10196TIP3    H252004   2.977   5.659   4.141  0.6027  1.3783 -2.4616
10197TIP3   OH252005   1.464   4.088   6.156 -0.3628 -0.5208  0.0914
10197TIP3    H152006   1.410   4.100   6.078  0.7809 -0.4817 -0.6959
10197TIP3    H252007   1.411   4.032   6.213 -1.6801  0.3584 -0.2295
10198TIP3   OH252008   0.209   5.288  14.156  0.0785 -0.2146 -0.1778
10198TIP3    H152009   0.115   5.269  14.157  0.1469 -0.5270  1.3578
10198TIP3    H252010   0.214   5.380  14.129 -0.8623  0.6689  2.5270
10199TIP3   OH252011   5.934   3.767  14.607  0.1762 -0.2767  0.6669
10199TIP3    H152012   5.990   3.763  14.530  0.5924 -1.0025  1.0007
10199TIP3    H252013   5.988   3.732  14.678  0.2565  1.6002  1.5599
10200TIP3   OH252014   0.548   5.995   5.208 -0.1674  0.0437 -0.4165
10200TIP3    H152015   0.466   6.041   5.226  0.6170  1.2794  0.0690
10200TIP3    H252016   0.587   5.982   5.295  0.8602  0.8006 -0.7618
10201TIP3   OH252017   4.637   5.257   2.088 -0.3235 -0.2687  0.2233
10201TIP3    H152018   4.683   5.340   2.083 -2.1951  0.8268  0.8557
10201TIP3    H252019   4.564   5.273   2.148 -1.5546 -1.9647 -0.7752
10202TIP3   OH252020   0.347   0.390   6.068 -0.2324 -0.0490 -0.3392
10202TIP3    H152021   0.311   0.366   5.982  1.1063  0.6349 -1.1075
10202TIP3    H252022   0.322   0.481   6.080 -0.6621 -0.2248  0.1418
10203TIP3   OH252023   2.490   5.638   3.494  0.2658 -0.4545  0.0844
10203TIP3    H152024   2.519   5.579   3.424  1.4557 -2.9471  2.5765
10203TIP3    H252025   2.568   5.649   3.548 -0.9715  0.4092  1.7055
10204TIP3   OH252026   3.430   1.755   4.919 -0.0812 -0.4295  0.1141
10204TIP3    H152027   3.524   1.759   4.938  0.1287 -1.5541 -0.6113
10204TIP3    H252028   3.393   1.832   4.962  0.9882 -0.6533  1.4804
10205TIP3   OH252029   2.320   6.152  12.737  0.2610  0.5706  0.0330
10205TIP3    H152030   2.232   6.123  12.761  0.3021 -0.4689 -1.0331
10205TIP3    H252031   2.308   6.201  12.656  1.0121 -2.1604 -1.7964
10206TIP3   OH252032   2.823   2.671   1.767 -0.1691 -0.0891 -0.0422
10206TIP3    H152033   2.840   2.578   1.754  2.4358 -0.0273  2.3997
10206TIP3    H252034   2.752   2.674   1.831 -0.8092 -0.3698 -0.7283
10207TIP3   OH252035   5.812   2.698   4.179 -0.2450 -0.1924  0.5913
10207TIP3    H152036   5.848   2.613   4.202 -1.0155 -0.3596  1.2046
10207TIP3    H252037   5.816   2.748   4.260 -1.9292 -0.4077  0.8190
10208TIP3   OH252038   0.963   2.295  11.997  0.3884  0.0327 -0.2293
10208TIP3    H152039   0.868   2.282  12.002  0.3925 -0.0550 -0.3598
10208TIP3    H252040   0.987   2.256  11.913  0.1410  2.4619 -1.4858
10209TIP3   OH252041   5.693   3.678  13.615  0.2988  0.2444 -0.3052
10209TIP3    H152042   5.639   3.677  13.536  1.0197  2.0132 -0.8572
10209TIP3    H252043   5.774   3.723  13.588  1.2600 -0.6640  0.9976
10210TIP3   OH252044   1.012   1.150   3.580  0.4451  0.1851  0.1765
10210TIP3    H152045   1.024   1.243   3.565  1.7185  0.1250  0.7939
10210TIP3    H252046   0.941   1.146   3.645  0.5176  0.7345  0.2950
10211TIP3   OH252047   3.082   0.986   5.821  0.4858 -0.6389 -0.3720
10211TIP3    H152048   3.033   1.019   5.895  1.1042  0.6397 -0.5237
10211TIP3    H252049   3.174   0.993   5.848  0.6974 -0.5371 -1.0985
10212TIP3   OH252050   0.500   3.652   0.031 -0.3733 -0.4160 -0.1431
10212TIP3    H152051   0.570   3.596  -0.000  0.9560  1.0592  0.1123
10212TIP3    H252052   0.464   3.606   0.107  0.5539 -1.0051 -0.0576
10213TIP3   OH252053   2.380   1.872   3.946 -0.0830 -0.4824 -0.3772
10213TIP3    H152054   2.448   1.860   4.012 -1.8008 -1.3476  1.2763
10213TIP3    H252055   2.402   1.955   3.904  2.2600 -0.9919 -0.2221
10214TIP3   OH252056   2.737   5.252  13.348  1.0122  0.2248  0.0731
10214TIP3    H152057   2.761   5.159  13.345  0.9937  0.2596 -2.1951
10214TIP3    H252058   2.725   5.276  13.256 -0.6381  2.0573  0.7373
10215TIP3   OH252059   4.786   3.477  14.409 -0.1158 -0.3499  0.0023
10215TIP3    H152060   4.761   3.388  14.383 -0.9203  0.2258 -1.2383
10215TIP3    H252061   4.753   3.532  14.339  2.6216  0.7080 -0.4898
10216TIP3   OH252062   0.337   5.699   5.897 -0.1500 -0.3214  0.7330
10216TIP3    H152063   0.279   5.657   5.961  0.3341 -0.6547  0.9549
10216TIP3    H252064   0.424   5.693   5.936 -0.1740  1.5614  1.0984
10217TIP3   OH252065   5.938   6.309   3.389  0.0967  0.0281 -0.3654
10217TIP3    H152066   5.896   6.317   3.304 -0.3048  1.5685 -0.0391
10217TIP3    H252067   6.025   6.273   3.370 -0.0715  0.1600 -1.4012
10218TIP3   OH252068   2.795   1.482   5.656 -0.4671 -0.3582  0.0822
10218TIP3    H152069   2.871   1.492   5.600 -0.3030  0.2638  0.4081
10218TIP3    H252070   2.824   1.422   5.726  0.1691  0.9686  0.9806
10219TIP3   OH252071   5.019   3.376   4.503 -0.3630 -0.5893 -0.0430
10219TIP3    H152072   4.980   3.449   4.455  1.1798 -0.4355 -1.0646
10219TIP3    H252073   4.997   3.299   4.451  1.6150 -0.3856 -1.2420
10220TIP3   OH252074   1.513   3.412   0.895  0.6036 -0.1325  0.6768
10220TIP3    H152075   1.500   3.506   0.899  0.0379 -0.2369  1.5306
10220TIP3    H252076   1.445   3.376   0.952  1.3434 -1.0070  1.0247
10221TIP3   OH252077   2.471   4.012  16.860  0.2246 -0.1663  1.0737
10221TIP3    H152078   2.431   4.033  16.775 -2.0673 -3.0160  1.3477
10221TIP3    H252079   2.565   4.012  16.843 -0.0659  2.0135 -0.7764
10222TIP3   OH252080   0.184   6.169   3.735 -0.1363  0.1088 -0.0963
10222TIP3    H152081   0.257   6.214   3.776  1.7328 -1.9244 -1.1066
10222TIP3    H252082   0.210   6.157   3.644 -1.2644 -1.5979 -0.2203
10223TIP3   OH252083   4.794   0.368  11.826 -0.9612  0.1052  0.9766
10223TIP3    H152084   4.832   0.395  11.743 -0.2620 -0.5560  1.0746
10223TIP3    H252085   4.840   0.421  11.892 -2.2345  1.3740  0.8731
10224TIP3   OH252086   5.806   1.303  16.885  0.3704 -0.1005 -0.3693
10224TIP3    H152087   5.725   1.339  16.922  0.2428 -0.9047  0.1577
10224TIP3    H252088   5.784   1.212  16.865  1.5168 -0.6886  0.9927
10225TIP3   OH252089   5.408   5.303   2.560  0.0958 -0.2189 -0.0873
10225TIP3    H152090   5.387   5.378   2.504 -1.3394 -0.6100 -0.0751
10225TIP3    H252091   5.500   5.286   2.542  0.4418  1.5217 -0.1183
10226TIP3   OH252092   0.002   3.137   3.641 -0.0468 -0.1747  0.0426
10226TIP3    H152093   0.084   3.170   3.604  0.0521  0.7233  1.0406
10226TIP3    H252094  -0.056   3.214   3.644 -1.0849 -0.8876 -1.0650
10227TIP3   OH252095   2.409   1.336   2.799  0.4117 -0.5223  0.2824
10227TIP3    H152096   2.342   1.324   2.732  0.8111  0.4822 -0.3157
10227TIP3    H252097   2.399   1.261   2.857 -2.1919  0.3573  1.0453
10228TIP3   OH252098   4.303   2.107   1.119 -0.1486 -0.6089 -0.2281
10228TIP3    H152099   4.303   2.179   1.056 -0.5907  0.7838  1.3272
10228TIP3    H252100   4.355   2.038   1.078  0.8435  0.8595 -1.4494
10229TIP3   OH252101   3.590   1.359  15.968  0.1127 -0.1921  0.4560
10229TIP3    H152102   3.627   1.383  15.884 -0.5444  0.0026  0.2228
10229TIP3    H252103   3.501   1.394  15.967  1.0924  2.5549  2.4578
10230TIP3   OH252104   4.286   6.345  16.189  0.5191  0.4148 -0.4372
10230TIP3    H152105   4.246   6.259  16.201  0.5577  0.7219  2.2094
10230TIP3    H252106   4.340   6.336  16.111 -1.0181 -1.3778 -1.3246
10231TIP3   OH252107   2.710   0.355   5.774 -0.2258 -0.0722  0.1244
10231TIP3    H152108   2.715   0.388   5.863  0.2977 -0.1386  0.1185
10231TIP3    H252109   2.751   0.423   5.721  0.3064 -0.4561  0.0415
10232TIP3   OH252110   2.304   2.409   2.390  0.3976 -0.2890  0.4126
10232TIP3    H152111   2.298   2.348   2.315 -2.0650 -0.5158  0.7555
10232TIP3    H252112   2.354   2.484   2.356  1.2339 -1.3555 -0.7748
10233TIP3   OH252113   3.468   6.588   5.843  0.1092 -0.2874 -0.0573
10233TIP3    H152114   3.465   6.540   5.925  1.2629  0.4813  0.4386
10233TIP3    H252115   3.559   6.581   5.813  0.3702  1.7707  0.1551
10234TIP3   OH252116   4.084   3.807   0.743 -0.5842 -0.0110  0.0630
10234TIP3    H152117   4.014   3.741   0.743  1.0541 -1.8049 -0.5130
10234TIP3    H252118   4.150   3.771   0.684  1.6706  0.7157  2.0572
10235TIP3   OH252119   0.176   6.506  11.806 -0.0601  0.1028  0.3498
10235TIP3    H152120   0.240   6.574  11.788 -1.9357  1.3200 -2.0456
10235TIP3    H252121   0.142   6.482  11.720 -0.7602 -2.5620  1.3320
10236TIP3   OH252122   5.892   6.741   1.779 -0.1235  0.1804  0.0456
10236TIP3    H152123   5.837   6.815   1.756 -1.6260 -0.1790  2.2977
10236TIP3    H252124   5.981   6.775   1.775 -0.6697  1.4966 -1.0951
10237TIP3   OH252125   6.467   1.942   5.015 -0.0142 -0.1752 -0.1228
10237TIP3    H152126   6.514   1.962   4.935  1.2744  0.4254  0.7722
10237TIP3    H252127   6.485   2.015   5.073 -2.7498  0.4934 -0.0419
10238TIP3   OH252128   4.819   6.414   2.599 -0.2280 -0.4758 -0.1158
10238TIP3    H152129   4.860   6.499   2.583  1.7873 -0.9466  2.2915
10238TIP3    H252130   4.846   6.360   2.524  1.0513  0.1004 -0.0718
10239TIP3   OH252131   3.886   3.843   3.193 -0.1791  0.0977  0.2016
10239TIP3    H152132   3.875   3.822   3.100 -2.0836  0.0582  0.4081
10239TIP3    H252133   3.846   3.769   3.239  0.7582  0.1146  1.0597
10240TIP3   OH252134   2.857   3.223  12.304 -0.0372  0.3709 -0.5612
10240TIP3    H152135   2.808   3.141  12.294  1.3599 -1.0231  2.9633
10240TIP3    H252136   2.882   3.248  12.216 -1.3804 -2.4692 -1.8047
10241TIP3   OH252137   5.835   5.446  15.621  0.6722  0.0938 -0.3488
10241TIP3    H152138   5.771   5.469  15.554  2.5181 -0.2110 -2.2535
10241TIP3    H252139   5.913   5.498  15.599  0.7527  1.3150  2.5884
10242TIP3   OH252140   1.600   4.943  13.161 -0.1253 -0.2405 -0.6442
10242TIP3    H152141   1.539   4.952  13.088  0.5510 -1.4521 -1.3861
10242TIP3    H252142   1.644   5.027  13.167 -0.3025 -0.0846 -1.5327
10243TIP3   OH252143   3.907   5.937  11.562 -0.3833 -0.2080  0.4481
10243TIP3    H152144   3.824   5.960  11.605 -0.1499 -0.2129  0.9011
10243TIP3    H252145   3.903   5.982  11.478 -0.5488  0.3475  0.7464
10244TIP3   OH252146   4.460   6.323  13.987 -0.2118  0.2893  0.0284
10244TIP3    H152147   4.538   6.358  13.945 -0.5634  1.6251  0.4692
10244TIP3    H252148   4.492   6.246  14.035  0.8448  0.8406  0.2327
10245TIP3   OH252149   6.336   4.895  15.936 -0.5965 -0.1665 -0.1570
10245TIP3    H152150   6.276   4.881  15.863 -1.3003  1.2258  0.1435
10245TIP3    H252151   6.403   4.954  15.902  0.3268 -1.2804 -0.3254
10246TIP3   OH252152   4.664   1.459  10.812 -0.0114 -0.3411 -0.9977
10246TIP3    H152153   4.697   1.369  10.817 -0.0075 -0.2741  0.3776
10246TIP3    H252154   4.655   1.486  10.903 -1.3255  0.5773 -1.3807
10247TIP3   OH252155   2.795   2.062  16.152 -0.5313 -0.8072  0.0517
10247TIP3    H152156   2.827   2.008  16.224 -2.6598 -1.8644  0.2492
10247TIP3    H252157   2.763   2.142  16.194  1.1690 -0.0573 -0.0705
10248TIP3   OH252158   3.143   3.372  14.064 -0.1230  0.1483 -0.7552
10248TIP3    H152159   3.173   3.435  14.129 -2.3683 -0.4396  0.9182
10248TIP3    H252160   3.166   3.287  14.101 -0.7301 -0.1685 -1.1009
10249TIP3   OH252161   6.077   1.843   1.742 -0.4132  0.2737 -0.4349
10249TIP3    H152162   6.085   1.752   1.713 -1.2905  0.5383 -1.5461
10249TIP3    H252163   6.027   1.838   1.823 -0.8845 -0.2074 -0.7484
10250TIP3   OH252164   2.339   5.850  12.629  0.3135  0.0328  0.2964
10250TIP3    H152165   2.315   5.915  12.695 -0.8744  0.7680 -0.8321
10250TIP3    H252166   2.345   5.899  12.548  0.3641 -1.0982 -0.3996
10251TIP3   OH252167   2.347   6.433  13.906  0.1041  0.1560 -0.5268
10251TIP3    H152168   2.286   6.449  13.977  0.5948  0.5207 -0.1887
10251TIP3    H252169   2.401   6.359  13.936  0.3787  0.3759 -0.4742
10252TIP3   OH252170   4.042   2.175   1.538 -0.0442 -0.7595 -0.7490
10252TIP3    H152171   4.049   2.257   1.487 -0.1147 -1.3067 -1.6529
10252TIP3    H252172   3.999   2.202   1.619  2.1606  0.5516  0.0241
10253TIP3   OH252173   5.239   1.904   0.520  0.1112  0.2961 -0.2340
10253TIP3    H152174   5.223   1.847   0.595 -1.9860  1.7952  0.5292
10253TIP3    H252175   5.329   1.934   0.531  0.6637 -1.4871  0.2711
10254TIP3   OH252176   3.611   5.295  15.938  0.5781  0.7673  0.2683
10254TIP3    H152177   3.643   5.229  16.000 -0.4781  2.5424  2.8011
10254TIP3    H252178   3.536   5.253  15.895  0.3595  0.0465  1.3360
10255TIP3   OH252179   2.754   5.014   2.831 -0.0146  0.0291  0.6612
10255TIP3    H152180   2.774   5.104   2.859 -0.7534 -0.0699  1.5436
10255TIP3    H252181   2.795   4.959   2.898  1.4978 -0.3454 -0.5402
10256TIP3   OH252182   4.422   1.389   3.895 -0.0955 -0.2929  0.2868
10256TIP3    H152183   4.403   1.296   3.905 -1.2443  0.0432  1.3453
10256TIP3    H252184   4.372   1.416   3.818 -0.1115 -0.4492  0.2421
10257TIP3   OH252185   0.559   6.646  12.108  0.0087  0.0180 -0.0651
10257TIP3    H152186   0.581   6.596  12.030  0.3274 -0.5947  0.4080
10257TIP3    H252187   0.644   6.674  12.143  0.0693 -2.2181  1.6809
10258TIP3   OH252188   2.808   0.077   0.729  0.1451 -0.0622 -0.2414
10258TIP3    H152189   2.899   0.104   0.744 -0.1080  1.1156 -0.7913
10258TIP3    H252190   2.776   0.052   0.815  0.6810  0.4655  0.1163
10259TIP3   OH252191   0.188   1.783  14.262 -0.7014 -0.0741  0.1502
10259TIP3    H152192   0.186   1.819  14.351  0.5240  2.7941 -0.9187
10259TIP3    H252193   0.277   1.748  14.253 -0.1235  1.5173 -0.5989
10260TIP3   OH252194   3.755   2.069  12.348  0.8808 -0.1247 -0.0083
10260TIP3    H152195   3.766   2.154  12.391  0.8305 -0.0007 -0.2345
10260TIP3    H252196   3.844   2.033  12.343  1.0980  0.5528 -1.1937
10261TIP3   OH252197   6.320   4.616   5.838  0.2023  0.2996  0.0522
10261TIP3    H152198   6.242   4.664   5.866  0.9187  1.3359  0.3209
10261TIP3    H252199   6.381   4.684   5.809  0.7882 -0.5347 -0.7110
10262TIP3   OH252200   3.019   4.593  13.813 -0.5448 -0.6231 -0.6020
10262TIP3    H152201   3.063   4.510  13.833  1.0770  0.4040  0.2087
10262TIP3    H252202   2.934   4.586  13.857  1.4984  0.0678  3.7505
10263TIP3   OH252203   5.272   2.871   2.024 -0.4758 -0.2978  0.3013
10263TIP3    H152204   5.225   2.894   2.105  1.1525 -1.9233  1.7489
10263TIP3    H252205   5.294   2.779   2.035  1.0988 -0.1267 -1.3511
10264TIP3   OH252206   1.554   1.708  15.037  0.2031  0.4617  0.2222
10264TIP3    H152207   1.518   1.722  14.950  1.9228  2.8017 -0.1493
10264TIP3    H252208   1.482   1.728  15.097 -0.1186  1.8182 -0.5995
10265TIP3   OH252209   4.891   3.383   5.546  0.5464  0.0270  0.3030
10265TIP3    H152210   4.819   3.388   5.609 -0.0915  0.8596 -0.4767
10265TIP3    H252211   4.896   3.470   5.508  0.9955 -0.4306 -0.7178
10266TIP3   OH252212   5.705   0.142  15.504  0.4422  0.4803 -0.1095
10266TIP3    H152213   5.725   0.170  15.593  2.8702 -0.1059 -0.4220
10266TIP3    H252214   5.732   0.216  15.449 -0.9793  0.8111 -0.3664
10267TIP3   OH252215   5.934   1.101   1.039 -0.0972 -0.6119 -1.2116
10267TIP3    H152216   5.924   1.139   1.126  0.0053 -0.8050 -1.1158
10267TIP3    H252217   5.935   1.177   0.980 -0.5570 -0.5032 -1.0832
10268TIP3   OH252218   2.885   2.498  13.818  0.1541  0.3024 -0.1741
10268TIP3    H152219   2.908   2.586  13.790  0.2730 -0.0024 -1.0416
10268TIP3    H252220   2.797   2.483  13.783 -0.6176  0.7352  1.4906
10269TIP3   OH252221   4.255   6.323  15.105 -0.2476 -0.0276 -0.1701
10269TIP3    H152222   4.345   6.294  15.096  0.9953  3.4167  0.2926
10269TIP3    H252223   4.227   6.340  15.015 -0.0924 -0.1554 -0.2428
10270TIP3   OH252224   0.253   2.022   1.816  0.2698 -0.2807  0.4330
10270TIP3    H152225   0.228   1.933   1.840 -0.9909  0.3655  1.5646
10270TIP3    H252226   0.329   2.011   1.758  0.4848 -2.0517  1.0312
10271TIP3   OH252227   5.446   4.787   2.916 -0.6978  0.8294  0.1736
10271TIP3    H152228   5.470   4.879   2.930 -0.0767  0.4856  1.4946
10271TIP3    H252229   5.472   4.744   2.997  0.4350 -0.7947 -1.0367
10272TIP3   OH252230   1.416   3.269  11.589  0.3871 -0.1801 -0.0675
10272TIP3    H152231   1.495   3.275  11.536 -0.5834  0.5023 -1.4580
10272TIP3    H252232   1.397   3.175  11.595  0.5381 -0.2602 -0.8695
10273TIP3   OH252233   3.441   2.885  13.254  0.5007  0.2608 -0.1688
10273TIP3    H152234   3.420   2.892  13.161  1.1318  3.1060 -0.1402
10273TIP3    H252235   3.359   2.859  13.296  0.1887 -0.9309 -1.4932
10274TIP3   OH252236   1.152   0.001   2.038 -0.0713  0.3232 -0.6043
10274TIP3    H152237   1.097   0.059   1.985  0.3128  0.3953 -0.9287
10274TIP3    H252238   1.209  -0.042   1.974 -1.1138 -1.2437 -0.4870
10275TIP3   OH252239   4.146   3.405  10.724  0.4835 -0.8417  0.1877
10275TIP3    H152240   4.173   3.423  10.634  0.1024 -2.7022 -0.3255
10275TIP3    H252241   4.165   3.485  10.772 -0.3443  0.5757 -1.7864
10276TIP3   OH252242   5.259   3.430  15.059  0.0768 -0.2427  0.1636
10276TIP3    H152243   5.269   3.525  15.061  0.6033 -0.3019  0.5068
10276TIP3    H252244   5.203   3.413  14.983  1.6087  0.2073 -1.0975
10277TIP3   OH252245   6.631   2.586  13.400 -0.3197 -0.4934 -0.2244
10277TIP3    H152246   6.667   2.536  13.327 -0.7597 -1.5040  0.2323
10277TIP3    H252247   6.586   2.520  13.454  1.2480 -0.0076  1.7389
10278TIP3   OH252248   5.698   2.268  16.996  0.2490  0.1047 -0.7619
10278TIP3    H152249   5.783   2.312  16.999  0.3369 -0.1046  0.1094
10278TIP3    H252250   5.637   2.331  17.034  0.3074 -0.3627  0.1238
10279TIP3   OH252251   4.332   3.547  17.175 -0.1250 -0.2210 -0.1597
10279TIP3    H152252   4.296   3.608  17.239 -0.7098 -0.4815 -0.2350
10279TIP3    H252253   4.293   3.463  17.197 -0.6169 -0.2427 -1.0790
10280TIP3   OH252254   0.244   5.167  11.363  0.0210  0.4575  0.1483
10280TIP3    H152255   0.265   5.198  11.275  0.5833  0.1052  0.1574
10280TIP3    H252256   0.274   5.077  11.364  1.4998  0.9559  1.2325
10281TIP3   OH252257   4.524   1.421   1.608  0.1325 -0.4905  0.3270
10281TIP3    H152258   4.573   1.405   1.528  0.3178  1.0534  0.1214
10281TIP3    H252259   4.480   1.338   1.626 -0.2274 -0.7403 -1.5902
10282TIP3   OH252260   4.266   5.878   4.809 -0.4706 -0.8373  0.4489
10282TIP3    H152261   4.250   5.785   4.797 -0.6692 -0.7514  0.0494
10282TIP3    H252262   4.217   5.921   4.739 -1.4844 -0.3403  1.4503
10283TIP3   OH252263   4.406   4.038   1.567  0.8508  0.4256  0.1151
10283TIP3    H152264   4.422   4.130   1.588  0.6070  0.4170  0.3281
10283TIP3    H252265   4.315   4.035   1.538  0.9717  0.3151 -0.2574
10284TIP3   OH252266   1.650   3.455  13.730 -0.1838  0.2417 -0.1092
10284TIP3    H152267   1.647   3.424  13.640 -0.5638 -2.1590  0.7043
10284TIP3    H252268   1.572   3.509  13.739 -1.3730 -1.3729 -0.5670
10285TIP3   OH252269   4.069   0.491  13.749 -0.3941 -0.0347  0.1393
10285TIP3    H152270   4.092   0.494  13.657 -1.7436  0.6440 -0.1839
10285TIP3    H252271   3.978   0.463  13.751  0.0422 -1.4759  1.3413
10286TIP3   OH252272   4.692   3.786  14.937  0.3110  0.1569 -0.1872
10286TIP3    H152273   4.761   3.741  14.889  0.7259  0.4944  0.0840
10286TIP3    H252274   4.640   3.716  14.977  1.5426 -0.0759  1.0591
10287TIP3   OH252275   6.484   0.976   1.422 -0.3756  0.0255 -0.0842
10287TIP3    H152276   6.448   0.983   1.334  0.3321  0.2704 -0.3512
10287TIP3    H252277   6.526   1.060   1.439  1.2926 -0.7453 -0.3112
10288TIP3   OH252278   4.728   6.317   5.486 -0.8410  0.5522 -0.4114
10288TIP3    H152279   4.689   6.339   5.401  1.8873  0.1336 -1.8431
10288TIP3    H252280   4.786   6.391   5.505 -1.2909  0.5428  0.9897
10289TIP3   OH252281   5.872   1.382  15.117  0.0524 -0.4244 -0.5725
10289TIP3    H152282   5.859   1.330  15.037  2.5709  0.0582 -1.3223
10289TIP3    H252283   5.851   1.471  15.091 -0.3228 -0.4445 -0.3504
10290TIP3   OH252284   0.731   4.556  15.239 -0.7230 -0.9781  0.4830
10290TIP3    H152285   0.670   4.535  15.309 -0.4080 -0.8272  0.8078
10290TIP3    H252286   0.792   4.619  15.278 -2.4290  1.5853 -0.8711
10291TIP3   OH252287   6.287   1.450   3.568 -0.1006  0.1869  0.2706
10291TIP3    H152288   6.257   1.505   3.495  1.9106  2.9995  1.4937
10291TIP3    H252289   6.378   1.431   3.548 -0.5219 -2.0398  0.3144
10292TIP3   OH252290   1.963   6.441  16.468  0.0280 -0.1739 -0.6162
10292TIP3    H152291   1.869   6.439  16.451 -0.4620  0.8988  1.8685
10292TIP3    H252292   1.983   6.354  16.502 -0.7449  0.6681  2.1188
10293TIP3   OH252293   0.504   5.199  15.773 -0.8694  0.0524 -0.3602
10293TIP3    H152294   0.579   5.234  15.725 -0.1129  1.2306  1.6087
10293TIP3    H252295   0.427   5.232  15.726 -0.1490  1.2772 -0.7026
10294TIP3   OH252296   1.289   6.426  13.103 -0.1497  1.3227 -0.2942
10294TIP3    H152297   1.367   6.442  13.157  0.3283 -1.4509 -0.0760
10294TIP3    H252298   1.224   6.392  13.163 -0.5243  0.7574 -1.0079
10295TIP3   OH252299   5.489   5.854   3.650 -0.1973 -0.5287  0.3075
10295TIP3    H152300   5.477   5.948   3.637 -1.5366 -0.5341  1.3715
10295TIP3    H252301   5.509   5.844   3.743 -0.4338 -1.3244  0.2827
10296TIP3   OH252302   0.222   0.282   0.929  0.2213 -0.3212  0.1668
10296TIP3    H152303   0.201   0.333   0.852  0.0456  0.0072  0.4305
10296TIP3    H252304   0.154   0.215   0.933 -0.3298  0.2588  0.5803
10297TIP3   OH252305   0.718   6.757   0.612 -0.4272 -0.2851 -0.2498
10297TIP3    H152306   0.697   6.681   0.666 -2.9633 -0.1627 -0.9600
10297TIP3    H252307   0.796   6.732   0.564 -0.8667 -2.2173 -0.0135
10298TIP3   OH252308   6.696   2.419  16.294  0.2210  0.0958 -0.0434
10298TIP3    H152309   6.790   2.433  16.300  0.5082 -0.9481 -1.5775
10298TIP3    H252310   6.678   2.418  16.199 -1.4225  0.8996  0.2448
10299TIP3   OH252311   6.437   4.534   4.745 -0.9123 -0.0005 -0.0528
10299TIP3    H152312   6.511   4.545   4.806 -0.2343  0.9353 -1.0267
10299TIP3    H252313   6.409   4.444   4.759  0.4194 -0.3794  0.3358
10300TIP3   OH252314   4.125   1.788  14.920 -0.0648  0.1114 -0.1324
10300TIP3    H152315   4.220   1.773  14.920 -0.1506 -0.4735  0.7396
10300TIP3    H252316   4.087   1.702  14.902 -0.4584  0.0350  0.9659
10301TIP3   OH252317   1.181   6.314   1.425 -0.2590  0.7785  0.5036
10301TIP3    H152318   1.258   6.358   1.463 -0.0868 -0.7581  1.9605
10301TIP3    H252319   1.198   6.221   1.437 -1.4618  0.3480 -0.9500
10302TIP3   OH252320   5.901   6.318   1.376 -0.0838  0.3515  0.7190
10302TIP3    H152321   5.968   6.384   1.395 -0.7787  1.6620 -1.2232
10302TIP3    H252322   5.845   6.317   1.454  1.7324 -0.1963  2.0382
10303TIP3   OH252323   0.930   6.647   0.467 -0.2918  0.5471  0.3791
10303TIP3    H152324   0.887   6.596   0.399  1.2465 -3.4597  2.2600
10303TIP3    H252325   1.009   6.681   0.426 -0.2547 -0.3467 -0.2922
10304TIP3   OH252326   3.790   2.154   6.213 -0.4457  0.5738  0.2608
10304TIP3    H152327   3.715   2.205   6.184  0.1895  0.2531 -2.0496
10304TIP3    H252328   3.847   2.217   6.257  0.3475  1.9392 -2.5907
10305TIP3   OH252329   0.154   3.054  12.034  0.6027 -0.0225 -0.0940
10305TIP3    H152330   0.118   3.095  11.956  1.7082  2.3002  0.5748
10305TIP3    H252331   0.102   2.974  12.045  0.6686 -0.5890 -3.3733
10306TIP3   OH252332   5.411   2.174   3.078  0.0396 -0.4366 -0.4411
10306TIP3    H152333   5.410   2.261   3.038 -0.6781 -0.9484 -1.5483
10306TIP3    H252334   5.499   2.140   3.059  0.2938  0.0066 -0.0780
10307TIP3   OH252335   0.438   2.111  11.300  0.1514  0.6375 -0.1518
10307TIP3    H152336   0.529   2.104  11.273  0.5059  1.1104  0.9035
10307TIP3    H252337   0.427   2.043  11.368 -1.0915 -1.4688 -2.3679
10308TIP3   OH252338   4.636   0.344   4.449  0.0125 -0.0466  0.5337
10308TIP3    H152339   4.680   0.423   4.481  1.1129 -0.2122 -0.5394
10308TIP3    H252340   4.656   0.277   4.514  2.6220 -0.4995 -0.6803
10309TIP3   OH252341   6.044   6.276  14.306 -0.3088  0.0089 -0.2293
10309TIP3    H152342   6.046   6.288  14.401  3.9055  0.8218 -0.3267
10309TIP3    H252343   6.028   6.364  14.272  0.3950  0.1108 -0.3038
10310TIP3   OH252344   5.246   4.104  16.629  0.3792  0.2664 -0.4785
10310TIP3    H152345   5.216   4.135  16.714 -2.3513 -1.0463 -0.8806
10310TIP3    H252346   5.209   4.166  16.566  0.4552 -0.0407 -0.8305
10311TIP3   OH252347   0.778   6.097   0.187 -0.0068 -0.4021 -0.3161
10311TIP3    H152348   0.760   6.042   0.263 -2.5569 -0.8285 -1.1525
10311TIP3    H252349   0.781   6.035   0.113 -1.1923  0.3569 -1.0265
10312TIP3   OH252350   5.550   4.553   2.492 -0.1161 -0.2013 -0.3624
10312TIP3    H152351   5.565   4.541   2.585 -0.2466  1.9319 -0.0406
10312TIP3    H252352   5.518   4.643   2.484 -2.7440 -1.2152 -2.1458
10313TIP3   OH252353   0.448   5.406  12.891 -0.1623 -0.2343  0.2512
10313TIP3    H152354   0.496   5.326  12.870  0.1131  0.0497 -0.2204
10313TIP3    H252355   0.462   5.419  12.985  0.2838 -0.4175  0.2129
10314TIP3   OH252356   4.248   5.738  14.791  0.6913 -0.2580  0.2898
10314TIP3    H152357   4.323   5.691  14.829  0.0028  0.4556  2.6003
10314TIP3    H252358   4.201   5.671  14.742  2.2924 -0.9238 -0.4046
10315TIP3   OH252359   1.816   3.388  17.015  0.4334 -0.1983 -0.0414
10315TIP3    H152360   1.789   3.477  17.039  0.8733 -0.2668  0.7260
10315TIP3    H252361   1.790   3.334  17.090 -0.7054 -0.8843 -0.9162
10316TIP3   OH252362   4.719   0.324   3.686  0.2780 -0.5444 -0.1819
10316TIP3    H152363   4.790   0.288   3.634  0.2971 -0.4228 -0.2414
10316TIP3    H252364   4.656   0.357   3.621  0.3332 -0.3315 -0.1290
10317TIP3   OH252365   3.749   4.293  14.849 -0.0774 -0.1322 -0.0486
10317TIP3    H152366   3.693   4.216  14.840 -0.2682  0.1047 -0.9555
10317TIP3    H252367   3.831   4.268  14.807 -0.5676  0.5852 -1.4619
10318TIP3   OH252368   6.454   3.406   4.722 -0.4159  0.6125  0.2323
10318TIP3    H152369   6.380   3.383   4.779 -1.1272  0.4696 -0.7251
10318TIP3    H252370   6.501   3.324   4.710  1.2464  1.1332  2.6797
10319TIP3   OH252371   3.123   3.321   2.933 -0.4776 -0.2601 -0.2263
10319TIP3    H152372   3.037   3.347   2.967  0.2349 -0.3805  1.7605
10319TIP3    H252373   3.111   3.232   2.901 -0.4535 -1.4254  2.7831
10320TIP3   OH252374   5.373   5.203  14.800 -0.5245  0.3329 -0.0195
10320TIP3    H152375   5.405   5.260  14.730 -0.8131  1.3689  0.6764
10320TIP3    H252376   5.436   5.215  14.871 -0.5521 -0.2737  0.1066
10321TIP3   OH252377   1.077   4.222   4.547 -0.2959 -0.2353 -0.1909
10321TIP3    H152378   1.113   4.306   4.573 -1.2769 -0.0027  0.4611
10321TIP3    H252379   1.015   4.243   4.477  0.0889 -0.5180 -0.6220
10322TIP3   OH252380   5.787   6.183  15.310 -0.0886 -0.0403 -0.2317
10322TIP3    H152381   5.874   6.179  15.269  0.3437 -0.2198  0.6960
10322TIP3    H252382   5.788   6.265  15.359  1.2506 -2.2014  3.5244
10323TIP3   OH252383   0.010   2.095  13.093  0.3037  0.4540  0.1876
10323TIP3    H152384  -0.040   2.084  13.012  1.8158  2.0766 -0.9956
10323TIP3    H252385  -0.056   2.093  13.163 -1.0706 -0.3965 -1.1158
10324TIP3   OH252386   5.707   2.305  15.671 -0.3869  0.1671 -0.1630
10324TIP3    H152387   5.621   2.312  15.630 -0.4741 -0.9346 -0.1824
10324TIP3    H252388   5.759   2.375  15.631 -1.1373  0.5397 -0.4879
10325TIP3   OH252389   2.862   2.597   2.549 -0.1935 -0.3037  0.1327
10325TIP3    H152390   2.800   2.670   2.544  0.8983  0.5463 -1.2653
10325TIP3    H252391   2.859   2.556   2.462  2.5516  0.9037 -0.5870
10326TIP3   OH252392   1.380   6.034  15.703  0.3437  0.5132  0.1856
10326TIP3    H152393   1.317   6.080  15.758  0.9685  2.0191 -0.3368
10326TIP3    H252394   1.423   5.972  15.762  0.6575  1.7649  1.2741
10327TIP3   OH252395   5.554   1.771  13.058  0.3829  0.6307 -0.4105
10327TIP3    H152396   5.635   1.767  13.007 -0.9221  0.8754 -2.5759
10327TIP3    H252397   5.550   1.861  13.090  1.3629  0.3923  0.4239
10328TIP3   OH252398   5.259   1.782   2.568 -0.9287  0.7845  0.1598
10328TIP3    H152399   5.170   1.750   2.583 -1.2140  1.9356  0.9455
10328TIP3    H252400   5.314   1.727   2.624 -1.1675  0.2766 -0.0957
10329TIP3   OH252401   5.329   3.537  13.488  0.6006  0.2134 -0.0597
10329TIP3    H152402   5.320   3.493  13.572 -2.5533  0.3101 -0.3093
10329TIP3    H252403   5.341   3.465  13.425 -0.0290 -0.0362  0.1020
10330TIP3   OH252404   0.898   1.283   1.259  0.0487 -0.2832 -0.4094
10330TIP3    H152405   0.873   1.352   1.321 -2.2102 -0.4336 -1.0899
10330TIP3    H252406   0.815   1.240   1.236  0.8160 -0.2686 -3.4761
10331TIP3   OH252407   5.891   5.980   5.693 -0.3623 -0.2541  0.2224
10331TIP3    H152408   5.830   6.048   5.665  0.2505 -0.3295 -1.3342
10331TIP3    H252409   5.942   6.021   5.762 -0.0900  0.8272 -0.6070
10332TIP3   OH252410   3.862   1.638   0.968 -0.8205  0.5368  0.2013
10332TIP3    H152411   3.907   1.695   0.906 -1.5117  1.1992  0.3065
10332TIP3    H252412   3.840   1.695   1.042 -0.0188 -0.2418  1.0566
10333TIP3   OH252413   3.492   2.379   1.931 -0.7464  0.6914 -0.1428
10333TIP3    H152414   3.457   2.467   1.919 -2.5360  0.5171  3.1035
10333TIP3    H252415   3.568   2.390   1.987 -0.8230  0.2190  0.0648
10334TIP3   OH252416   0.011   5.369  11.137 -0.3659 -0.5509  0.2215
10334TIP3    H152417  -0.010   5.426  11.211  0.2561  0.2993 -0.2506
10334TIP3    H252418   0.106   5.376  11.127 -0.7352  1.6275 -2.4746
10335TIP3   OH252419   0.328   0.750  17.220 -0.7431 -1.3808  0.3708
10335TIP3    H152420   0.382   0.674  17.243  1.2946 -0.4157 -1.1159
10335TIP3    H252421   0.342   0.812  17.291  0.0531 -1.1678  0.0323
10336TIP3   OH252422   0.869   3.093   0.877 -0.2841  0.2953 -0.3305
10336TIP3    H152423   0.826   3.150   0.940  1.0383  0.8302  0.0990
10336TIP3    H252424   0.888   3.150   0.802  0.7039  0.3402 -0.0518
10337TIP3   OH252425   3.310   5.688  11.364  0.1201 -0.0909  0.4299
10337TIP3    H152426   3.338   5.772  11.327 -0.0583  0.2123  0.9581
10337TIP3    H252427   3.313   5.626  11.291 -2.1919  0.9242 -0.5906
10338TIP3   OH252428   4.454   1.080  15.798  0.3399  0.1881  0.1340
10338TIP3    H152429   4.381   1.136  15.772 -1.5220 -1.9498  0.6449
10338TIP3    H252430   4.464   1.018  15.725 -0.3958 -1.4608  1.4039
10339TIP3   OH252431   2.591   3.255  14.556  0.2605 -0.1084  0.5214
10339TIP3    H152432   2.503   3.287  14.537  0.3544  0.6328  1.2729
10339TIP3    H252433   2.579   3.166  14.588  0.0255 -1.0299 -2.0440
10340TIP3   OH252434   0.377   2.508  16.837 -0.2077  1.0388  0.1755
10340TIP3    H152435   0.433   2.574  16.879  1.2372  1.4325 -2.2723
10340TIP3    H252436   0.396   2.427  16.883  1.9408  1.2979 -0.2347
10341TIP3   OH252437   0.103   0.246  13.855  0.2880 -0.6930 -0.1703
10341TIP3    H152438   0.194   0.234  13.829  0.5284 -2.6589  1.4369
10341TIP3    H252439   0.107   0.266  13.949 -1.0178 -3.4577  0.5513
10342TIP3   OH252440   1.598   1.874   2.008 -0.2421 -0.2022 -0.0915
10342TIP3    H152441   1.548   1.933   1.952 -0.0246 -0.1763 -0.2642
10342TIP3    H252442   1.533   1.830   2.062 -0.6599 -1.6861 -1.7512
10343TIP3   OH252443   6.033   2.441   0.596  0.0371 -0.1090 -0.7530
10343TIP3    H152444   6.084   2.379   0.545 -0.2503 -0.5744 -0.4880
10343TIP3    H252445   5.943   2.408   0.590 -0.0378 -0.0174 -0.1764
10344TIP3   OH252446   3.884   1.903  11.762  0.2743  0.7602  0.3329
10344TIP3    H152447   3.896   1.885  11.669 -2.0046  0.3120  0.0737
10344TIP3    H252448   3.968   1.883  11.802  1.3602  1.1938 -1.6540
10345TIP3   OH252449   3.095   6.781   6.116 -0.3960 -0.6705 -0.4555
10345TIP3    H152450   3.044   6.862   6.124  0.6520 -0.0228 -0.2570
10345TIP3    H252451   3.094   6.743   6.204  0.7815  0.1517 -0.0790
10346TIP3   OH252452   6.056   0.338   0.192  0.1929  0.5002  0.3397
10346TIP3    H152453   5.968   0.376   0.197  0.5098  1.4380 -0.9078
10346TIP3    H252454   6.051   0.258   0.245 -1.7574 -0.1072 -0.7087
10347TIP3   OH252455   0.550   3.556   3.404 -0.7100  0.2074  0.1627
10347TIP3    H152456   0.454   3.563   3.406 -0.7883 -0.9861  1.2519
10347TIP3    H252457   0.580   3.623   3.466 -0.8050  0.9816 -0.6192
10348TIP3   OH252458   3.383   4.490   0.734 -0.6062 -0.3435  0.4156
10348TIP3    H152459   3.364   4.413   0.680 -1.5530  0.2940 -0.1830
10348TIP3    H252460   3.300   4.538   0.737  0.3449  1.4141 -0.4474
10349TIP3   OH252461   6.476   6.740  11.608 -0.1957  0.1179  0.3033
10349TIP3    H152462   6.487   6.663  11.553  0.1203  0.3717  0.0075
10349TIP3    H252463   6.383   6.761  11.603 -0.5585 -1.0979  1.5386
10350TIP3   OH252464   4.331   6.211   2.263 -0.1500  0.5102 -0.5988
10350TIP3    H152465   4.381   6.292   2.253 -0.5344  1.3515  3.3550
10350TIP3    H252466   4.243   6.240   2.289 -0.3232 -1.1407  0.7410
10351TIP3   OH252467   1.420   2.092   1.557  0.2311  0.6323 -0.1959
10351TIP3    H152468   1.488   2.078   1.492  0.3754  1.5216 -0.2490
10351TIP3    H252469   1.407   2.187   1.558 -1.1575  0.4571 -0.3353
10352TIP3   OH252470   1.492   2.555  11.362 -0.3749 -0.0275 -0.0728
10352TIP3    H152471   1.485   2.485  11.297 -0.9439  0.5469 -0.6248
10352TIP3    H252472   1.408   2.553  11.408  0.6183 -1.5305  1.7806
10353TIP3   OH252473   3.185   1.595   0.747 -0.4711  0.2861  0.4649
10353TIP3    H152474   3.275   1.581   0.717 -0.9666  2.2654 -2.1986
10353TIP3    H252475   3.132   1.540   0.688 -1.2902  2.4235 -0.8594
10354TIP3   OH252476   4.094   0.104   5.447  0.1223 -0.5602  0.4070
10354TIP3    H152477   4.047   0.096   5.364  1.5247 -1.2700 -0.3370
10354TIP3    H252478   4.101   0.198   5.462 -0.5737 -0.4366 -0.0209
10355TIP3   OH252479   5.623   4.060  12.069 -0.2779 -0.4198  0.1643
10355TIP3    H152480   5.643   4.147  12.105  0.2615 -0.1829 -0.6949
10355TIP3    H252481   5.705   4.012  12.076 -0.2494 -0.4644 -0.4849
10356TIP3   OH252482   3.051   6.767   4.201  0.0182 -0.0634 -0.0126
10356TIP3    H152483   3.019   6.800   4.285  0.3747  0.1035  0.0608
10356TIP3    H252484   3.119   6.830   4.175  0.6744 -0.7135  0.1081
10357TIP3   OH252485   5.761   3.822  11.800  0.3593 -0.2144 -0.7437
10357TIP3    H152486   5.826   3.752  11.801  1.2554  0.5702 -1.9659
10357TIP3    H252487   5.777   3.872  11.880  0.4987 -0.6946 -0.4707
10358TIP3   OH252488   4.723   2.670   4.700  0.1246  0.1306 -0.2144
10358TIP3    H152489   4.777   2.630   4.768  0.5275  0.8226 -0.1248
10358TIP3    H252490   4.696   2.754   4.737  0.4435  0.5639 -0.9590
10359TIP3   OH252491   2.957   3.486  11.471  0.5443 -0.5015 -0.1093
10359TIP3    H152492   3.045   3.489  11.508  1.6245  2.4926 -2.7149
10359TIP3    H252493   2.917   3.569  11.496 -0.5383 -0.6323 -1.3426
10360TIP3   OH252494   5.867   2.768   3.903  0.5658 -0.1366  0.2108
10360TIP3    H152495   5.847   2.721   3.983 -0.2808  1.4468  0.9378
10360TIP3    H252496   5.962   2.761   3.895  0.7992  0.7714  2.0214
10361TIP3   OH252497   3.490   0.630  11.899  0.4531  0.2475 -0.1030
10361TIP3    H152498   3.486   0.626  11.994 -0.7476  1.1116 -0.1088
10361TIP3    H252499   3.401   0.610  11.870  0.9555 -0.6359 -1.0776
10362TIP3   OH252500   0.780   4.467   1.275  0.0291 -0.0929  0.1409
10362TIP3    H152501   0.846   4.515   1.326 -1.4752  0.2658  1.7960
10362TIP3    H252502   0.812   4.377   1.273  2.2202  0.6952 -1.8882
10363TIP3   OH252503   1.383   2.360  14.628  0.0347  0.2545  0.2236
10363TIP3    H152504   1.389   2.401  14.542 -0.0897  1.8153  0.9456
10363TIP3    H252505   1.366   2.433  14.688 -2.8479 -1.1550  1.1915
10364TIP3   OH252506   2.456   5.933  15.852 -0.6560  1.0324 -1.0182
10364TIP3    H152507   2.480   5.955  15.941 -1.1646  1.1898 -0.9172
10364TIP3    H252508   2.370   5.974  15.839  0.0101  2.1295 -2.0143
10365TIP3   OH252509   3.883   6.006  13.906  0.1840  0.1122 -0.1068
10365TIP3    H152510   3.863   6.040  13.819 -0.1788 -0.1701 -0.1333
10365TIP3    H252511   3.818   6.046  13.963  0.6016  0.5256  0.0889
10366TIP3   OH252512   3.123   6.493   0.268 -0.4202  0.3710 -0.2979
10366TIP3    H152513   3.051   6.512   0.208 -0.0444  0.0891 -0.8388
10366TIP3    H252514   3.086   6.430   0.330 -0.4801 -0.2037 -0.9093
10367TIP3   OH252515   1.298   0.649  12.292 -0.4828  0.0139 -0.4991
10367TIP3    H152516   1.288   0.666  12.198  1.2491  1.1766 -0.5028
10367TIP3    H252517   1.327   0.733  12.328  0.7684 -0.9312  0.7538
10368TIP3   OH252518   5.563   2.228   5.894 -0.2036  0.3095 -0.4005
10368TIP3    H152519   5.496   2.173   5.934  1.2977 -0.7028  0.7742
10368TIP3    H252520   5.625   2.166   5.857  1.7385  1.1875  1.3044
10369TIP3   OH252521   1.294   4.824   2.916  0.1612  0.0335  0.1458
10369TIP3    H152522   1.214   4.849   2.962  0.4765  1.3595 -0.0160
10369TIP3    H252523   1.275   4.737   2.881 -1.3830  0.5270 -0.2947
10370TIP3   OH252524   0.193   1.631  11.063 -0.5098  0.2295 -0.4972
10370TIP3    H152525   0.186   1.704  11.003 -0.9380 -0.0431 -0.7843
10370TIP3    H252526   0.163   1.666  11.147  1.1923  0.9231 -0.1754
10371TIP3   OH252527   1.584   4.457  11.341  0.2626 -0.4439 -0.1545
10371TIP3    H152528   1.619   4.496  11.421 -1.4764 -0.3581  0.5916
10371TIP3    H252529   1.654   4.468  11.276  1.5231 -0.1330  1.2314
10372TIP3   OH252530   6.433   6.681  14.145  0.2645 -0.0030  0.7100
10372TIP3    H152531   6.517   6.640  14.166 -0.8207 -1.7722  1.7641
10372TIP3    H252532   6.437   6.696  14.051  1.7942  0.0418  0.7584
10373TIP3   OH252533   3.683   1.088  16.822 -0.6392  0.3459  0.4113
10373TIP3    H152534   3.767   1.089  16.776 -0.1354  0.7108  1.3174
10373TIP3    H252535   3.620   1.120  16.758  0.0559  0.8252 -0.0379
10374TIP3   OH252536   6.673   4.606   1.283  0.0883 -0.0492  0.1069
10374TIP3    H152537   6.642   4.537   1.341 -0.2364 -1.2072 -1.4147
10374TIP3    H252538   6.699   4.560   1.204  0.9582  1.4628 -0.4902
10375TIP3   OH252539   2.877   2.795   0.341 -0.2148  0.6416 -0.2643
10375TIP3    H152540   2.853   2.728   0.276 -0.0518  0.5412 -0.2188
10375TIP3    H252541   2.863   2.753   0.425 -0.9966  0.9654 -0.2259
10376TIP3   OH252542   3.307   1.499  15.986  0.0369 -0.2412  0.2663
10376TIP3    H152543   3.235   1.548  15.945 -0.6236 -0.6286  0.9643
10376TIP3    H252544   3.271   1.412  16.003  0.6256 -0.3935  0.7517
10377TIP3   OH252545   1.646   2.489   1.666  0.5783  0.2240  0.3375
10377TIP3    H152546   1.727   2.446   1.637  0.7197  1.9942 -2.0744
10377TIP3    H252547   1.645   2.572   1.618 -2.4763  0.3861  0.6025
10378TIP3   OH252548   6.184   5.856   0.968 -0.0980  0.0181 -0.1645
10378TIP3    H152549   6.152   5.927   0.913  1.0240 -0.9555 -2.0979
10378TIP3    H252550   6.265   5.890   1.006 -0.0086  0.0848 -0.4136
10379TIP3   OH252551   4.135   1.093   0.761 -0.8830  0.1019 -0.1629
10379TIP3    H152552   4.228   1.072   0.767 -0.8445 -0.6627 -2.7564
10379TIP3    H252553   4.091   1.014   0.793 -0.6378  0.1888  0.3885
10380TIP3   OH252554   4.747   0.760  13.132  0.1513 -0.5780  0.0949
10380TIP3    H152555   4.716   0.849  13.149  1.8541 -0.0083  0.3710
10380TIP3    H252556   4.843   0.767  13.138  0.3353 -2.2686 -0.6588
10381TIP3   OH252557   5.150   2.838   0.496 -0.0603 -0.4926 -0.8578
10381TIP3    H152558   5.089   2.803   0.561  2.4049 -0.7560  1.4492
10381TIP3    H252559   5.128   2.793   0.415  0.0668 -4.1344  0.9814
10382TIP3   OH252560   5.321   3.708   0.739 -0.0995 -0.1120 -0.1896
10382TIP3    H152561   5.267   3.652   0.684  0.2524 -2.1935  1.5209
10382TIP3    H252562   5.384   3.649   0.780  1.2058  1.7499  0.5804
10383TIP3   OH252563   1.467   2.298   6.099 -0.3205 -0.2154 -0.0478
10383TIP3    H152564   1.519   2.366   6.142 -1.2354  0.1596  0.4811
10383TIP3    H252565   1.437   2.242   6.170 -0.1894 -0.7498 -0.4092
10384TIP3   OH252566   5.055   2.057  13.809  0.3912 -0.4418 -0.5290
10384TIP3    H152567   5.120   2.000  13.849  0.8153  0.4398  0.0510
10384TIP3    H252568   5.105   2.131  13.775 -0.3933  0.6633  0.6844
10385TIP3   OH252569   1.192   6.442   3.714  0.0774  0.5512 -0.2277
10385TIP3    H152570   1.113   6.478   3.754  0.5664  0.8158  0.4964
10385TIP3    H252571   1.165   6.421   3.624 -0.4882  1.7707 -0.3562
10386TIP3   OH252572   3.632   1.687   1.899 -0.0092 -0.1679 -0.1186
10386TIP3    H152573   3.650   1.775   1.933 -0.2212 -0.0111 -0.4091
10386TIP3    H252574   3.539   1.688   1.878  0.0399 -0.3851 -0.3482
10387TIP3   OH252575   5.578   4.464  12.656  0.1457 -0.2206 -0.7955
10387TIP3    H152576   5.540   4.538  12.704  0.0813 -1.5008  1.2112
10387TIP3    H252577   5.663   4.496  12.625  0.3959  0.5187  0.5969
10388TIP3   OH252578   3.515   3.136   5.433  0.2472  0.2734 -0.3302
10388TIP3    H152579   3.596   3.161   5.478 -0.5323  0.5713  0.9288
10388TIP3    H252580   3.459   3.100   5.502  0.0309 -1.7605 -1.5101
10389TIP3   OH252581   5.195   6.198  11.638  0.8123 -0.3834 -0.4510
10389TIP3    H152582   5.188   6.107  11.609  1.8425 -0.5044 -0.3520
10389TIP3    H252583   5.164   6.196  11.728  0.5576 -0.5810 -0.5387
10390TIP3   OH252584   6.640   6.601  16.400 -0.2583  0.5813 -0.3042
10390TIP3    H152585   6.575   6.642  16.457  0.1172 -0.4207  0.8490
10390TIP3    H252586   6.675   6.528  16.451  1.8277  1.1500 -0.8849
10391TIP3   OH252587   6.506   5.744   4.368  0.2621 -0.3922  0.0323
10391TIP3    H152588   6.544   5.724   4.453  1.4646 -1.6391 -0.7728
10391TIP3    H252589   6.411   5.747   4.384  0.3268 -2.6742  1.0253
10392TIP3   OH252590   3.009   4.825   2.720 -0.2621  0.0672 -0.0481
10392TIP3    H152591   3.024   4.915   2.692 -1.3504  0.2724  0.0292
10392TIP3    H252592   3.032   4.772   2.644  0.7430  0.3754  0.0285
10393TIP3   OH252593   1.984   0.183   6.030 -0.7714 -0.6022 -0.3133
10393TIP3    H152594   1.984   0.098   6.073  1.7449 -0.4940 -0.0332
10393TIP3    H252595   1.907   0.228   6.064  0.0930 -1.2695  2.6017
10394TIP3   OH252596   2.091   1.358  15.074  0.4576 -0.1069  0.0141
10394TIP3    H152597   2.129   1.332  15.158  0.8895 -0.2364 -0.2206
10394TIP3    H252598   2.001   1.382  15.095  0.2728 -1.0738  0.3550
10395TIP3   OH252599   6.673   1.415  13.055  0.3987  0.0108  0.5426
10395TIP3    H152600   6.633   1.499  13.030  3.0644  1.4587  0.9805
10395TIP3    H252601   6.713   1.383  12.974  1.7106  0.5194  0.9762
10396TIP3   OH252602   4.898   4.927   5.701  0.1822  0.5348  0.6415
10396TIP3    H152603   4.908   4.984   5.625  0.5092 -2.2586 -1.4553
10396TIP3    H252604   4.983   4.883   5.709 -0.6514 -1.0102  1.1208
10397TIP3   OH252605   1.767   6.649  14.863 -0.2722  0.2656  0.1085
10397TIP3    H152606   1.742   6.574  14.916  2.0602  0.6130  1.7909
10397TIP3    H252607   1.755   6.620  14.773  2.4556 -2.8950  0.6657
10398TIP3   OH252608   5.172   4.257   4.623 -0.0329  0.0491 -0.0901
10398TIP3    H152609   5.169   4.353   4.622 -1.0569  0.0158 -0.2325
10398TIP3    H252610   5.226   4.236   4.699  1.5274  0.7605 -0.9758
10399TIP3   OH252611   5.187   2.341  15.084  0.2620  0.1295 -0.4953
10399TIP3    H152612   5.142   2.343  14.999  1.2329 -0.7989 -1.0458
10399TIP3    H252613   5.236   2.423  15.088 -1.5233  1.1903  0.1459
10400TIP3   OH252614   5.420   5.606   1.786  0.4254  0.3960 -0.1282
10400TIP3    H152615   5.444   5.696   1.809  0.1084  0.4352  0.0511
10400TIP3    H252616   5.501   5.556   1.795  0.2815  0.3822  1.2151
10401TIP3   OH252617   6.204   1.119   3.700  0.3769 -0.1876 -0.0808
10401TIP3    H152618   6.113   1.133   3.674  0.7210  1.7411 -0.2944
10401TIP3    H252619   6.214   1.170   3.781  1.2878 -0.3484 -0.0844
10402TIP3   OH252620   4.028   0.870  11.661 -0.4197 -0.7779 -0.4036
10402TIP3    H152621   3.983   0.792  11.692 -2.0097  1.0715  2.0946
10402TIP3    H252622   4.089   0.893  11.731 -3.0780  2.6606  0.9528
10403TIP3   OH252623   0.892   2.722   3.511 -0.4563 -0.3473 -0.6739
10403TIP3    H152624   0.803   2.714   3.546  0.1834 -2.2261  0.5828
10403TIP3    H252625   0.910   2.638   3.469  1.0293 -0.3033 -0.1667
10404TIP3   OH252626   4.097   3.876  13.311 -0.0658 -0.0009  0.1178
10404TIP3    H152627   4.116   3.783  13.303 -0.1767 -0.0570  0.4941
10404TIP3    H252628   4.129   3.900  13.398 -1.4668 -0.0346  0.6569
10405TIP3   OH252629   6.706   0.422   3.207 -0.0348 -0.5767  0.1730
10405TIP3    H152630   6.656   0.454   3.132 -1.1468 -3.2972 -0.3142
10405TIP3    H252631   6.645   0.426   3.280  0.2512 -0.3455  0.4032
10406TIP3   OH252632   0.927   0.189   1.284 -0.2095  0.1761  0.6342
10406TIP3    H152633   0.877   0.147   1.214 -1.7918  0.8587  1.3344
10406TIP3    H252634   0.926   0.282   1.261 -1.2557  0.4864  1.8518
10407TIP3   OH252635   0.901   5.860   4.409 -0.0714 -0.1839 -0.0493
10407TIP3    H152636   0.939   5.883   4.494 -1.2854  1.1928  0.1441
10407TIP3    H252637   0.885   5.944   4.367 -3.1175 -0.6980 -0.0172
10408TIP3   OH252638   5.949   4.612   5.577  0.0242  0.6654  0.2385
10408TIP3    H152639   5.858   4.636   5.596  0.2179  0.5218  1.3452
10408TIP3    H252640   5.962   4.529   5.622 -0.4136 -1.2296 -2.9492
10409TIP3   OH252641   2.556   0.031   1.463 -0.5327  0.3581  0.0241
10409TIP3    H152642   2.638   0.010   1.417 -1.3342 -0.1057 -1.2207
10409TIP3    H252643   2.522   0.108   1.416  0.0333  1.6261  1.6242
10410TIP3   OH252644   4.320   6.680   1.282  0.1322  0.2025  0.4365
10410TIP3    H152645   4.329   6.647   1.193 -1.5603  1.2550 -0.1576
10410TIP3    H252646   4.369   6.617   1.336  1.4705 -0.2541 -1.2497
10411TIP3   OH252647   4.151   2.020   5.289 -0.4787  0.5197  0.5904
10411TIP3    H152648   4.125   2.108   5.315  1.0086  1.6049 -1.4496
10411TIP3    H252649   4.078   1.964   5.316 -1.7148  2.4583  1.3547
10412TIP3   OH252650   0.747   0.095   6.517  0.1810  0.4605  0.0704
10412TIP3    H152651   0.813   0.026   6.526 -1.0948 -0.7647  0.0328
10412TIP3    H252652   0.726   0.096   6.424 -0.2738  0.4634  0.1726
10413TIP3   OH252653   2.435   0.229  13.838 -0.0855 -0.5589  0.2193
10413TIP3    H152654   2.452   0.222  13.932 -0.0526  0.2783  0.2763
10413TIP3    H252655   2.341   0.216  13.829 -0.0449 -0.9397  0.3369
10414TIP3   OH252656   6.174   5.450  14.211  0.6615  0.2699  0.2765
10414TIP3    H152657   6.202   5.483  14.297 -0.4803 -1.1734  1.2351
10414TIP3    H252658   6.242   5.388  14.186  0.2523 -0.4119  0.8374
10415TIP3   OH252659   1.999   4.327   0.737  0.2306 -0.0653 -0.7751
10415TIP3    H152660   2.008   4.415   0.775 -1.0800 -0.7451  1.1995
10415TIP3    H252661   1.905   4.316   0.724  0.3282 -1.3858 -0.4715
10416TIP3   OH252662   2.377   5.665   3.077 -0.0027  0.2537  0.0855
10416TIP3    H152663   2.316   5.604   3.036 -0.0969  0.3194  0.1292
10416TIP3    H252664   2.443   5.609   3.118  0.5815  0.1986 -0.9010
10417TIP3   OH252665   4.884   0.120   2.688  0.0923 -0.0469 -0.0298
10417TIP3    H152666   4.935   0.050   2.647  2.4239  1.5069  0.1041
10417TIP3    H252667   4.919   0.126   2.777  0.3177  1.6380 -0.2140
10418TIP3   OH252668   3.303   6.698   4.427  0.3257  0.5421 -0.0794
10418TIP3    H152669   3.309   6.656   4.341 -0.0261  1.8820 -0.7649
10418TIP3    H252670   3.216   6.675   4.459 -0.1171  1.2896 -0.7378
10419TIP3   OH252671   6.676   4.559   4.884 -0.1758  0.2827 -0.2398
10419TIP3    H152672   6.678   4.561   4.980  0.1484 -1.8163 -0.1597
10419TIP3    H252673   6.768   4.552   4.859 -0.2182  1.5408 -0.7290
10420TIP3   OH252674   1.718   4.413  16.410  0.3010 -0.1659  0.6093
10420TIP3    H152675   1.704   4.438  16.319 -0.1819 -2.5359  0.0050
10420TIP3    H252676   1.738   4.495  16.454  1.9500  0.8338 -1.8808
10421TIP3   OH252677   5.226   1.455  15.246 -0.6330 -0.4535 -0.1067
10421TIP3    H152678   5.131   1.468  15.235 -0.7557 -0.7743  0.5604
10421TIP3    H252679   5.234   1.365  15.278 -0.1735 -0.1049  0.7648
10422TIP3   OH252680   5.084   1.161   4.894  0.0965 -0.3111  0.2389
10422TIP3    H152681   5.113   1.190   4.981  0.7682 -1.2365  0.3332
10422TIP3    H252682   5.139   1.209   4.833 -0.1480  0.0963  0.3404
10423TIP3   OH252683   3.092   2.785  11.250  0.7126 -0.1270 -0.0120
10423TIP3    H152684   3.145   2.741  11.184  0.4691 -1.0618  0.4105
10423TIP3    H252685   3.006   2.795  11.209  0.1371 -2.0430  0.6947
10424TIP3   OH252686   6.283   1.057  13.381 -0.0001 -0.5103 -0.0156
10424TIP3    H152687   6.307   1.000  13.454 -0.5649  0.9573  1.3339
10424TIP3    H252688   6.195   1.028  13.356  0.7844 -2.0104 -1.1310
10425TIP3   OH252689   3.521   5.614  11.587  0.4274  0.0009  0.1769
10425TIP3    H152690   3.464   5.684  11.557 -0.1768 -0.5600 -0.0100
10425TIP3    H252691   3.607   5.637  11.554 -0.1749 -0.4731 -1.8066
10426TIP3   OH252692   5.337   2.210  15.296  0.0573  0.7614  0.2814
10426TIP3    H152693   5.274   2.230  15.227  0.4225  0.5524 -0.1160
10426TIP3    H252694   5.365   2.120  15.277  1.8030  1.4721 -0.5712
10427TIP3   OH252695   0.073   1.426   0.801  0.2251 -0.2935  0.5252
10427TIP3    H152696   0.148   1.385   0.757  1.6311  2.3065  0.4165
10427TIP3    H252697   0.096   1.426   0.894 -0.0485 -0.3350  0.5930
10428TIP3   OH252698   5.337   5.857   2.088  0.2551  0.3267  0.2135
10428TIP3    H152699   5.328   5.884   1.997 -0.0215  0.9706  0.4363
10428TIP3    H252700   5.349   5.938   2.136  0.0488  0.0096  0.7986
10429TIP3   OH252701   3.410   3.743   2.477  0.4569 -0.6070 -0.5424
10429TIP3    H152702   3.365   3.776   2.400  0.5780 -0.0264 -0.3704
10429TIP3    H252703   3.479   3.807   2.494 -0.3719 -0.0400  0.7995
10430TIP3   OH252704   5.852   5.045  14.818 -0.6794  0.4687  0.1309
10430TIP3    H152705   5.764   5.053  14.780 -0.0931  1.2664 -1.1219
10430TIP3    H252706   5.837   5.016  14.908 -2.2397  0.8609  0.0185
10431TIP3   OH252707   6.303   1.485   4.387 -0.1582 -0.3977  0.2093
10431TIP3    H152708   6.268   1.549   4.449  0.3939 -1.8631  2.0495
10431TIP3    H252709   6.397   1.484   4.404 -0.2562 -2.2233  0.7070
10432TIP3   OH252710   2.892   3.964  15.994  0.2186  0.3187 -0.1291
10432TIP3    H152711   2.957   4.030  15.971  0.4768 -0.1931 -0.8836
10432TIP3    H252712   2.843   4.003  16.067  0.1671  1.4722 -0.7633
10433TIP3   OH252713   5.969   5.420   1.381  0.4210  0.3986  0.0032
10433TIP3    H152714   5.950   5.500   1.331  0.3892  0.8714  0.7719
10433TIP3    H252715   5.979   5.449   1.471 -0.2365 -0.5490  0.3974
10434TIP3   OH252716   3.566   3.318  11.138 -0.3641  0.3453  0.6512
10434TIP3    H152717   3.652   3.342  11.173 -0.9497  2.0939  0.9459
10434TIP3    H252718   3.563   3.360  11.052 -1.5431  1.6632  1.3125
10435TIP3   OH252719   4.420   1.753  15.623 -0.1947 -0.6864 -0.1701
10435TIP3    H152720   4.516   1.759  15.617 -0.0607 -1.7324  0.7444
10435TIP3    H252721   4.392   1.839  15.652  0.5353 -0.6120  0.3253
10436TIP3   OH252722   6.352   1.554  13.391  0.3853 -0.1024 -0.7263
10436TIP3    H152723   6.339   1.460  13.376  2.2328 -0.5352  0.3708
10436TIP3    H252724   6.346   1.592  13.303 -0.0306 -1.2655 -1.2232
10437TIP3   OH252725   3.374   1.740  14.079  0.4339  0.0087 -0.0188
10437TIP3    H152726   3.284   1.773  14.079 -0.0641 -1.2678  1.3135
10437TIP3    H252727   3.422   1.799  14.020 -1.1378  1.0621 -0.2696
10438TIP3   OH252728   5.609   4.668  11.434  0.7475  0.6112 -0.2904
10438TIP3    H152729   5.675   4.598  11.438  1.6540  1.2804 -2.5511
10438TIP3    H252730   5.529   4.623  11.407  0.4937 -0.0553  1.5161
10439TIP3   OH252731   2.842   0.422  11.687  0.4264 -0.3215 -0.4173
10439TIP3    H152732   2.932   0.396  11.671  0.2116 -1.2366 -0.1619
10439TIP3    H252733   2.837   0.438  11.781  0.7366  1.3668 -0.6719
10440TIP3   OH252734   2.991   1.987   6.435  0.2118  0.0810  0.5646
10440TIP3    H152735   2.991   2.002   6.530  1.6475 -0.1982  0.6268
10440TIP3    H252736   3.075   2.022   6.406 -0.5639  0.9141 -0.7365
10441TIP3   OH252737   4.844   3.148   0.686 -0.1484 -0.1440 -0.0106
10441TIP3    H152738   4.910   3.213   0.712  0.2205 -0.2273 -0.7203
10441TIP3    H252739   4.775   3.157   0.752  0.3155  0.3337  0.4225
10442TIP3   OH252740   1.130   3.012  13.287  0.4219  0.2703  0.1257
10442TIP3    H152741   1.193   3.084  13.280  1.4438 -0.7637 -1.6401
10442TIP3    H252742   1.167   2.955  13.355  0.9849  0.0639 -0.3527
10443TIP3   OH252743   6.220   2.825  16.361  0.4328 -0.0626  0.4687
10443TIP3    H152744   6.216   2.765  16.287  0.8269 -0.7242  0.9794
10443TIP3    H252745   6.274   2.898  16.330  0.1959 -0.1110 -0.0539
10444TIP3   OH252746   0.067   0.663   5.238 -0.0642 -0.0623  0.5377
10444TIP3    H152747   0.121   0.587   5.215  0.2644  0.3699 -0.1572
10444TIP3    H252748  -0.014   0.626   5.271 -1.2574 -0.7579 -2.9586
10445TIP3   OH252749   3.868   2.069  15.274  0.5829  0.5017 -0.3038
10445TIP3    H152750   3.874   2.032  15.186 -0.1514 -2.8720  0.9706
10445TIP3    H252751   3.792   2.127  15.271  0.1326 -0.1516 -1.7182
10446TIP3   OH252752   3.406   1.711  15.166 -0.2019  0.1258 -0.1684
10446TIP3    H152753   3.478   1.658  15.201 -0.4928 -0.0891  0.1043
10446TIP3    H252754   3.447   1.765  15.098  0.5065  1.1033  1.0316
10447TIP3   OH252755   3.264   0.590  13.547  0.5202  0.3149 -0.2168
10447TIP3    H152756   3.315   0.656  13.500 -0.1016  0.1773 -1.0858
10447TIP3    H252757   3.200   0.641  13.597  0.8382  0.4343  0.0720
10448TIP3   OH252758   2.905   4.261   1.290  0.0400 -0.4967 -0.5698
10448TIP3    H152759   2.875   4.191   1.233  0.2847 -0.7283 -0.4144
10448TIP3    H252760   2.866   4.340   1.253 -0.5828 -0.7631 -0.4902
10449TIP3   OH252761   4.045   5.499   5.841 -0.3783  0.3754 -0.0966
10449TIP3    H152762   4.093   5.436   5.895  1.1511 -0.1307 -1.9947
10449TIP3    H252763   4.015   5.449   5.766  0.0020  1.6884 -1.1471
10450TIP3   OH252764   2.966   1.093  15.783 -0.1095 -0.0196 -0.3731
10450TIP3    H152765   3.013   1.172  15.809 -1.0661  0.8218 -1.1974
10450TIP3    H252766   2.991   1.079  15.692  0.9385 -1.3147  0.0960
10451TIP3   OH252767   4.170   1.380  15.411 -0.8197 -0.1436  0.3498
10451TIP3    H152768   4.121   1.375  15.329  1.3319 -0.1141 -0.9977
10451TIP3    H252769   4.201   1.470  15.415 -0.2727 -0.3509  0.8005
10452TIP3   OH252770   4.946   1.913   4.460  0.1865  0.5731 -0.5202
10452TIP3    H152771   5.006   1.883   4.392  1.5310  1.1644  0.3837
10452TIP3    H252772   4.859   1.899   4.423  0.8842  0.1364 -2.0391
10453TIP3   OH252773   1.881   4.768  10.371 -0.6546 -0.3296  0.4450
10453TIP3    H152774   1.860   4.843  10.315 -2.0532 -1.3035 -0.3643
10453TIP3    H252775   1.968   4.739  10.341 -0.6887  0.1496 -0.1238
10454TIP3   OH252776   1.942   6.289  15.702 -0.2315 -0.0829 -0.7716
10454TIP3    H152777   1.988   6.372  15.715 -0.3046  0.4061 -3.2378
10454TIP3    H252778   1.961   6.238  15.780  1.7001  1.4095 -0.2243
10455TIP3   OH252779   4.209   1.402   2.581 -0.3371  0.5400  0.1716
10455TIP3    H152780   4.294   1.402   2.538 -0.0100 -1.5670  0.7705
10455TIP3    H252781   4.225   1.440   2.668  0.1051 -0.2753  0.4548
10456TIP3   OH252782   2.306   2.424   4.588  0.1652 -0.0441 -0.1982
10456TIP3    H152783   2.212   2.424   4.568  0.0545 -0.7127  0.2827
10456TIP3    H252784   2.319   2.503   4.640 -0.3781 -0.5934  0.7936
10457TIP3   OH252785   1.661   0.849  13.573 -0.8703 -0.0576  0.7574
10457TIP3    H152786   1.744   0.804  13.590 -0.8270 -0.3404 -0.2259
10457TIP3    H252787   1.677   0.901  13.495 -2.3381 -1.9543 -0.8384
10458TIP3   OH252788   0.804   5.887   3.618  0.6109  0.0325  0.1683
10458TIP3    H152789   0.810   5.911   3.711  0.0203  0.2191  0.1673
10458TIP3    H252790   0.860   5.951   3.574  0.1841  0.5170  0.3126
10459TIP3   OH252791   0.763   5.350   2.194  0.0307  0.4216  0.2196
10459TIP3    H152792   0.701   5.399   2.140  0.5650  0.2964 -0.5058
10459TIP3    H252793   0.741   5.376   2.284 -2.3471 -1.1103  0.1141
10460TIP3   OH252794   4.376   2.998  16.297 -0.5784  0.3102 -0.3990
10460TIP3    H152795   4.361   3.066  16.232 -1.2242 -0.8193 -1.4538
10460TIP3    H252796   4.427   2.931  16.250 -0.8343 -0.3936  0.3104
10461TIP3   OH252797   6.664   1.206  13.767 -0.0513 -0.1298 -0.1185
10461TIP3    H152798   6.643   1.232  13.857  1.5411  3.2285 -0.6390
10461TIP3    H252799   6.591   1.239  13.715  0.4062  0.4319 -0.4049
10462TIP3   OH252800   0.446   1.984   3.889 -0.8065  0.1313  0.3129
10462TIP3    H152801   0.485   1.926   3.955  1.3295  0.7579 -0.3485
10462TIP3    H252802   0.417   2.060   3.938  2.2820  1.3499  0.3941
10463TIP3   OH252803   5.261   2.131   5.435  0.1253  0.8338 -0.3818
10463TIP3    H152804   5.259   2.107   5.528  1.6569  1.6160 -0.1195
10463TIP3    H252805   5.185   2.088   5.397 -0.8446  0.9883  1.3526
10464TIP3   OH252806   4.951   3.048  11.728 -0.5651 -0.0529 -0.2165
10464TIP3    H152807   4.998   2.984  11.780 -1.7842 -0.1533  0.7810
10464TIP3    H252808   4.874   3.072  11.781  0.0358  2.4728 -0.3984
10465TIP3   OH252809   2.030   6.289  11.251 -0.1612 -0.0336 -0.2726
10465TIP3    H152810   1.951   6.343  11.253  0.0174  0.1912  0.8980
10465TIP3    H252811   2.099   6.348  11.221 -0.0155  0.3369  0.7675
10466TIP3   OH252812   2.558   3.360  13.713 -0.2098 -0.2467 -0.2280
10466TIP3    H152813   2.471   3.321  13.725 -0.0413 -0.5586 -0.0280
10466TIP3    H252814   2.619   3.289  13.728  0.1048  0.1386  0.3568
10467TIP3   OH252815   6.333   5.041  13.320 -0.6798  0.2574 -0.0026
10467TIP3    H152816   6.408   4.986  13.299 -1.7362 -0.9703 -0.6778
10467TIP3    H252817   6.261   4.979  13.334 -1.7530  1.4360 -0.1523
10468TIP3   OH252818   3.656   3.316   3.323  0.0792  0.5944  0.1566
10468TIP3    H152819   3.600   3.383   3.364 -0.4551 -0.2778  0.8846
10468TIP3    H252820   3.600   3.238   3.319  1.9399 -0.9582  2.9828
10469TIP3   OH252821   0.012   6.146  13.532 -0.5296  0.3819  0.0180
10469TIP3    H152822   0.076   6.142  13.460 -0.5277 -3.0666  0.1402
10469TIP3    H252823   0.061   6.116  13.609 -1.3486  1.1556  0.8530
10470TIP3   OH252824   6.743   3.150  13.568  0.5856 -0.0400  0.1526
10470TIP3    H152825   6.803   3.076  13.576  1.1117  0.1107 -2.1157
10470TIP3    H252826   6.665   3.123  13.617  2.0516 -0.6932  2.1697
10471TIP3   OH252827   6.406   4.286   0.751 -0.4575 -0.4705  0.1122
10471TIP3    H152828   6.421   4.324   0.665 -0.7247  0.8612  0.6422
10471TIP3    H252829   6.427   4.193   0.741 -0.3053 -0.2793 -1.3312
10472TIP3   OH252830   5.499   3.904   4.717 -0.7040 -0.1637 -0.4124
10472TIP3    H152831   5.561   3.918   4.788  0.3134  1.1168 -1.5323
10472TIP3    H252832   5.512   3.813   4.690 -1.8198 -0.9814  1.6934
10473TIP3   OH252833   3.619   0.469  12.723  0.3494 -0.3558 -0.1526
10473TIP3    H152834   3.674   0.514  12.659 -1.5276  3.3341  0.7036
10473TIP3    H252835   3.659   0.489  12.807  0.2998 -1.4972  0.1457
10474TIP3   OH252836   4.601   3.336   3.391  0.1488 -1.0366  0.4711
10474TIP3    H152837   4.655   3.304   3.319 -1.9064 -2.8745 -0.3053
10474TIP3    H252838   4.624   3.428   3.399  1.5103 -1.1683 -1.5246
10475TIP3   OH252839   1.766   2.655  11.323  0.1899  0.1172  0.4244
10475TIP3    H152840   1.672   2.639  11.328  0.0715 -0.2668 -2.3940
10475TIP3    H252841   1.774   2.751  11.321 -0.3344  0.1357 -1.9702
10476TIP3   OH252842   4.637   5.873  11.743 -0.3155 -0.2331  0.5427
10476TIP3    H152843   4.564   5.836  11.692 -0.6286  2.3412 -0.9386
10476TIP3    H252844   4.662   5.802  11.803 -2.9231 -1.7463 -0.0755
10477TIP3   OH252845   4.846   0.985   4.382  0.2388  0.3565 -0.1697
10477TIP3    H152846   4.934   0.966   4.415  0.1671  0.8551  0.3162
10477TIP3    H252847   4.788   0.935   4.438  0.2028  0.0973 -0.4350
10478TIP3   OH252848   5.162   1.857   5.644  0.2377 -0.6710 -0.0557
10478TIP3    H152849   5.195   1.789   5.585 -0.9517 -2.0834  0.8704
10478TIP3    H252850   5.067   1.854   5.632  0.2977  2.7089 -2.0066
10479TIP3   OH252851   0.143   4.908   2.509 -0.4313 -0.0523  0.1701
10479TIP3    H152852   0.221   4.959   2.487 -0.0914  0.5513  2.6610
10479TIP3    H252853   0.071   4.956   2.469  0.2556  0.5297 -0.3781
10480TIP3   OH252854   3.343   6.640  12.068 -0.4932  0.6221 -0.4555
10480TIP3    H152855   3.392   6.582  12.126  0.7206  0.0831 -2.0015
10480TIP3    H252856   3.353   6.727  12.106  1.0655  0.4104 -0.3602
10481TIP3   OH252857   4.854   3.318  11.960  0.0871 -0.5692  0.3720
10481TIP3    H152858   4.862   3.409  11.990 -1.6220  0.2089 -1.4218
10481TIP3    H252859   4.941   3.296  11.928 -0.4283  1.9315 -3.0910
10482TIP3   OH252860   0.984   4.246   2.993  0.3684 -0.7019 -0.8607
10482TIP3    H152861   1.030   4.327   3.016  0.9905 -1.3511  0.2317
10482TIP3    H252862   1.035   4.177   3.035 -1.9950 -1.3835  0.9586
10483TIP3   OH252863   2.664   4.510  15.255  0.1295 -0.1653 -0.0272
10483TIP3    H152864   2.599   4.441  15.271  0.3798 -0.1401  1.1028
10483TIP3    H252865   2.665   4.561  15.336  2.1341 -0.6499  0.2608
10484TIP3   OH252866   0.120   0.352   0.286  0.8531 -0.1826  0.1077
10484TIP3    H152867   0.173   0.291   0.336  1.3890  0.0554 -0.1676
10484TIP3    H252868   0.128   0.435   0.332 -0.4675 -0.4742  0.9030
10485TIP3   OH252869   6.393   6.665  11.897  0.0140  0.3011  0.0712
10485TIP3    H152870   6.356   6.753  11.902 -1.5829 -0.4285  1.9631
10485TIP3    H252871   6.350   6.625  11.822 -2.3416 -0.1870  1.6290
10486TIP3   OH252872   3.196   1.967  13.772 -0.2616 -0.1592 -0.1640
10486TIP3    H152873   3.151   2.010  13.700 -0.3777 -0.1480 -0.0845
10486TIP3    H252874   3.213   2.037  13.835  0.2509 -0.0797 -0.3848
10487TIP3   OH252875   2.396   0.817  13.096  0.0106 -0.0515 -0.2014
10487TIP3    H152876   2.413   0.788  13.186  1.0295  2.5084  0.5022
10487TIP3    H252877   2.301   0.828  13.092 -0.2955 -2.5263 -0.2278
10488TIP3   OH252878   4.295   0.298   3.512  0.4487  0.2077 -0.5224
10488TIP3    H152879   4.286   0.203   3.511  1.6057  0.0909 -0.3123
10488TIP3    H252880   4.275   0.323   3.602  0.2202  0.1558 -0.5586
10489TIP3   OH252881   5.169   3.265   6.059 -0.1177 -0.6256  0.4544
10489TIP3    H152882   5.170   3.177   6.096 -1.2038 -1.1824 -0.8251
10489TIP3    H252883   5.092   3.306   6.097 -0.2915 -0.6340  0.1092
10490TIP3   OH252884   1.232   6.596  11.661 -0.0557  0.4733  0.5518
10490TIP3    H152885   1.138   6.580  11.653  0.1097 -0.5527  0.6038
10490TIP3    H252886   1.249   6.672  11.604 -0.9226  0.7221  0.6208
10491TIP3   OH252887   4.122   0.140   2.644  0.8923 -0.0968 -0.1083
10491TIP3    H152888   4.187   0.186   2.697  0.3186  0.6427 -0.0391
10491TIP3    H252889   4.153   0.149   2.554  0.6829  0.5799 -0.1111
10492TIP3   OH252890   4.852   2.103   6.168  0.6318  0.6047 -0.2436
10492TIP3    H152891   4.875   2.098   6.260  0.0823 -0.1043 -0.1394
10492TIP3    H252892   4.766   2.146   6.167  0.3202 -0.0232 -0.3774
10493TIP3   OH252893   4.332   5.324  16.249  0.2012  0.1519  0.5588
10493TIP3    H152894   4.281   5.251  16.283  0.6399 -0.0364  0.8158
10493TIP3    H252895   4.406   5.331  16.309  0.4046  0.5113  0.2630
10494TIP3   OH252896   1.934   2.396   1.229  0.0473  0.1408 -0.5689
10494TIP3    H152897   1.982   2.438   1.158  0.1709  0.4442 -0.3067
10494TIP3    H252898   2.002   2.352   1.280  0.1617  1.3096  0.3123
10495TIP3   OH252899   1.965   0.671   5.595 -0.3049  0.0646 -0.5635
10495TIP3    H152900   1.889   0.652   5.650 -0.1443 -1.4117 -0.8235
10495TIP3    H252901   1.944   0.754   5.553 -1.2128  0.3062  0.3362
10496TIP3   OH252902   1.306   1.500   3.671 -0.2449  0.5972  0.1917
10496TIP3    H152903   1.392   1.529   3.702 -0.2075  0.0367  0.6288
10496TIP3    H252904   1.297   1.411   3.706 -2.4319  1.8592  2.9430
10497TIP3   OH252905   5.840   5.483  11.623 -0.1800  0.7291 -0.1639
10497TIP3    H152906   5.837   5.443  11.536  1.0465 -1.5885  0.8330
10497TIP3    H252907   5.933   5.494  11.642 -0.4594  2.3040  0.4048
10498TIP3   OH252908   6.277   1.501   1.103 -0.6487 -0.9019 -0.3207
10498TIP3    H152909   6.259   1.416   1.063  0.5974 -1.1523 -0.3855
10498TIP3    H252910   6.360   1.529   1.064 -0.4587 -0.1957  0.5558
10499TIP3   OH252911   4.329   1.028   1.077  0.2791 -0.3136  0.4839
10499TIP3    H152912   4.383   0.994   1.006 -1.7703 -1.8293 -0.4063
10499TIP3    H252913   4.241   1.032   1.040 -0.6280 -0.0882  2.5949
10500TIP3   OH252914   1.219   0.845  13.498 -0.0707  0.1798  0.0129
10500TIP3    H152915   1.263   0.848  13.583 -1.2382  2.3959  0.5677
10500TIP3    H252916   1.129   0.819  13.517 -0.3444  0.6982 -0.5545
10501TIP3   OH252917   0.209   3.631   0.791 -0.5651 -0.4552 -0.0827
10501TIP3    H152918   0.209   3.605   0.699  0.7278 -0.1916 -0.1730
10501TIP3    H252919   0.289   3.592   0.827  1.1956  2.9554 -0.1151
10502TIP3   OH252920   6.776   2.604  15.217  0.6113 -0.2767 -0.0407
10502TIP3    H152921   6.761   2.515  15.249  2.4752 -0.7059 -0.3252
10502TIP3    H252922   6.793   2.656  15.296  0.6872 -0.4101  0.0292
10503TIP3   OH252923   4.416   1.591   0.603  0.5373 -0.1808  0.6402
10503TIP3    H152924   4.422   1.500   0.633 -1.3850 -0.2538  0.8688
10503TIP3    H252925   4.335   1.624   0.643  1.2682  1.6711  0.6381
10504TIP3   OH252926   1.166   3.186   5.908 -0.1123 -0.1511 -0.1259
10504TIP3    H152927   1.198   3.098   5.888  0.2400  0.2393 -1.3408
10504TIP3    H252928   1.085   3.172   5.957  0.7423 -1.1534  1.0136
10505TIP3   OH252929   3.923   5.886   1.018  0.3699 -0.4288 -0.9611
10505TIP3    H152930   3.967   5.955   0.969  0.8800  0.3839  0.6348
10505TIP3    H252931   3.832   5.914   1.022  0.6701  0.4340  0.1345
10506TIP3   OH252932   6.423   4.789  12.958  0.2331  0.2213  0.2297
10506TIP3    H152933   6.416   4.859  12.893 -0.0998  1.3029  1.4127
10506TIP3    H252934   6.514   4.792  12.987  1.1833 -2.1470 -2.2149
10507TIP3   OH252935   5.463   6.434  12.491  0.0511  0.0453 -0.1740
10507TIP3    H152936   5.555   6.453  12.475  0.2038 -0.3771  0.1846
10507TIP3    H252937   5.457   6.424  12.586 -0.4619  0.5829 -0.1440
10508TIP3   OH252938   3.829   6.542  12.519 -0.3107  0.0681 -0.1452
10508TIP3    H152939   3.847   6.629  12.552  0.1584  0.4019 -1.2344
10508TIP3    H252940   3.888   6.485  12.568 -0.4772  0.3887  0.4274
10509TIP3   OH252941   2.985   2.931   5.732  0.1985  0.1755  0.1957
10509TIP3    H152942   2.978   2.835   5.729 -0.4768  0.2590 -0.9230
10509TIP3    H252943   2.907   2.959   5.780 -0.5334  0.2680 -1.0219
10510TIP3   OH252944   5.588   5.599  11.683 -0.1983 -0.2801  0.3576
10510TIP3    H152945   5.550   5.512  11.697 -0.4278 -0.3028 -0.3963
10510TIP3    H252946   5.672   5.581  11.640  0.0570 -0.1581  0.8025
10511TIP3   OH252947   1.385   0.714   1.995  0.3249 -1.0884  0.0452
10511TIP3    H152948   1.400   0.792   1.942 -2.3236 -0.9355 -0.5514
10511TIP3    H252949   1.387   0.642   1.933 -1.3162 -1.0585 -0.0596
10512TIP3   OH252950   3.217   6.238   3.932 -0.0030 -0.4878  0.1557
10512TIP3    H152951   3.244   6.149   3.952 -1.0744 -1.1548 -1.3244
10512TIP3    H252952   3.145   6.229   3.870 -0.0666  1.4043 -0.0959
10513TIP3   OH252953   3.616   2.838   0.478  0.2805  0.1138 -0.4312
10513TIP3    H152954   3.677   2.898   0.521  0.3739 -1.5475  1.7776
10513TIP3    H252955   3.671   2.769   0.442 -0.1773 -0.6268  0.2926
10514TIP3   OH252956   3.769   2.452  13.154 -0.6452 -0.1153 -0.0234
10514TIP3    H152957   3.743   2.541  13.177 -1.1533 -0.2360 -0.1259
10514TIP3    H252958   3.688   2.410  13.124 -0.3392 -0.5005 -0.3193
10515TIP3   OH252959   2.900   0.118   3.405  0.0960  0.0194 -0.0666
10515TIP3    H152960   2.864   0.200   3.440 -0.4476 -0.6704  1.0337
10515TIP3    H252961   2.847   0.049   3.447  1.4148 -0.9437  0.0465
10516TIP3   OH252962   2.352   1.712   4.269 -0.2620  0.1897 -0.0541
10516TIP3    H152963   2.265   1.745   4.247 -0.8077 -1.2573 -0.1733
10516TIP3    H252964   2.359   1.724   4.364  0.0319  1.7078 -0.2570
10517TIP3   OH252965   4.355   1.260   5.177 -0.2242  0.0507  0.3214
10517TIP3    H152966   4.391   1.198   5.113 -0.4307  0.2339  0.0247
10517TIP3    H252967   4.277   1.296   5.133  1.1887  2.2592 -0.4490
10518TIP3   OH252968   6.210   3.613  17.238  0.0380 -0.2882 -0.1645
10518TIP3    H152969   6.142   3.680  17.227 -0.8367 -0.6946  2.3364
10518TIP3    H252970   6.171   3.533  17.201  0.1625  0.0393 -1.0186
10519TIP3   OH252971   6.499   5.291   0.688 -0.4415 -0.0473  0.1987
10519TIP3    H152972   6.592   5.276   0.700 -0.5204 -1.0601 -0.3738
10519TIP3    H252973   6.463   5.205   0.665 -1.4136  0.4478 -0.1893
10520TIP3   OH252974   3.149   3.805  12.722 -0.2747  0.4178  0.2710
10520TIP3    H152975   3.089   3.731  12.737 -0.6975  0.8652  0.7891
10520TIP3    H252976   3.119   3.844  12.640  0.3059 -0.3272 -0.3116
10521TIP3   OH252977   1.333   2.364   3.539 -0.4131  0.1693  0.3109
10521TIP3    H152978   1.251   2.360   3.488  0.5784  1.6650 -1.4638
10521TIP3    H252979   1.397   2.319   3.483  0.8353  2.3897 -0.0859
10522TIP3   OH252980   3.530   3.664   6.086  0.0734 -0.2421  0.1737
10522TIP3    H152981   3.551   3.593   6.026 -1.5279  1.4123 -2.4273
10522TIP3    H252982   3.588   3.735   6.061 -0.2758  0.3107  0.9125
10523TIP3   OH252983   5.617   0.817   4.631 -0.3917 -0.3570 -0.0954
10523TIP3    H152984   5.701   0.827   4.586  0.5688  0.7264  1.8564
10523TIP3    H252985   5.633   0.747   4.694 -0.8909 -0.0201  0.4037
10524TIP3   OH252986   4.753   5.596   5.193 -0.0854  0.3776 -0.5150
10524TIP3    H152987   4.721   5.546   5.268 -0.7469 -0.2669 -1.2231
10524TIP3    H252988   4.788   5.676   5.231 -1.3585  0.5149  0.3922
10525TIP3   OH252989   2.786   6.399  12.843  0.3449 -0.2941 -0.3216
10525TIP3    H152990   2.713   6.340  12.821  1.1112 -1.0066 -1.0110
10525TIP3    H252991   2.745   6.470  12.892 -1.6614  1.9202 -4.8716
10526TIP3   OH252992   4.265   1.712   3.056 -0.4274  0.1283 -0.2228
10526TIP3    H152993   4.202   1.642   3.071 -1.6608  0.5515 -3.0102
10526TIP3    H252994   4.351   1.672   3.069 -1.2052 -1.0722  1.2619
10527TIP3   OH252995   4.028   3.125   2.280  0.2472 -0.2250 -0.1144
10527TIP3    H152996   4.076   3.042   2.274 -0.7827 -0.8525  0.1649
10527TIP3    H252997   3.976   3.116   2.359 -0.7679  0.2140 -0.7302
10528TIP3   OH252998   0.087   0.416  13.649  0.1001  0.4642 -0.1936
10528TIP3    H152999   0.059   0.348  13.711  0.5177  2.0879  1.8213
10528TIP3    H253000   0.015   0.478  13.646 -0.5746 -0.3667 -2.5731
10529TIP3   OH253001   4.900   2.030  15.560 -0.1625 -0.3290 -0.4041
10529TIP3    H153002   4.843   2.085  15.613  1.2445 -0.2310  1.0350
10529TIP3    H253003   4.843   1.997  15.490 -2.0370 -0.4137  1.1197
10530TIP3   OH253004   4.077   1.538  13.237  0.0619  0.4150 -0.4741
10530TIP3    H153005   3.994   1.561  13.195  0.7927  3.3065 -0.4362
10530TIP3    H253006   4.051   1.487  13.314 -1.6584  0.8206 -0.7564
10531TIP3   OH253007   5.660   5.847   6.769 -0.1530 -0.4292 -0.8291
10531TIP3    H153008   5.691   5.924   6.817 -1.1840 -0.0605 -0.7485
10531TIP3    H253009   5.694   5.860   6.680 -2.4727  1.4459 -1.4925
10532TIP3   OH253010   2.103   6.245  15.451  0.1099 -0.4468  0.8777
10532TIP3    H153011   2.040   6.317  15.451  0.1501 -0.3849 -0.6346
10532TIP3    H253012   2.050   6.166  15.456 -0.1946 -0.4374 -1.4356
10533TIP3   OH253013   4.916   1.132  13.344 -0.0584  0.3801  0.8502
10533TIP3    H153014   4.999   1.179  13.346  0.6339 -0.7873 -0.1427
10533TIP3    H253015   4.906   1.098  13.433  0.3484  0.8258  1.0665
10534TIP3   OH253016   2.996   2.393   2.401 -0.0910  0.5360 -0.5825
10534TIP3    H153017   3.064   2.419   2.340 -0.5699 -0.2173 -1.4628
10534TIP3    H253018   2.959   2.313   2.363  0.7652 -0.9310  1.5951
10535TIP3   OH253019   0.635   4.680  11.318 -0.7105 -0.1475 -0.0692
10535TIP3    H153020   0.622   4.758  11.263  1.2768  1.5029  1.7467
10535TIP3    H253021   0.726   4.655  11.303 -1.1052 -1.6809 -0.0050
10536TIP3   OH253022   2.165   2.697  12.851  0.9637 -0.2624  0.1117
10536TIP3    H153023   2.171   2.700  12.756  0.5982 -0.8832  0.0671
10536TIP3    H253024   2.136   2.785  12.876 -0.4819 -0.5462 -0.4751
10537TIP3   OH253025   4.913   3.626   1.866  0.0177  0.2568  0.4173
10537TIP3    H153026   4.955   3.608   1.782  1.8055  0.0003  1.3418
10537TIP3    H253027   4.889   3.719   1.862 -0.3244  0.1383 -0.5306
10538TIP3   OH253028   3.807   4.111   2.550 -0.3341  0.1994  0.8314
10538TIP3    H153029   3.822   4.039   2.489 -0.8277  1.7578 -1.1943
10538TIP3    H253030   3.893   4.150   2.563 -0.6644  1.8082 -1.4252
10539TIP3   OH253031   1.324   1.976  10.347 -0.0591  0.7085 -0.4567
10539TIP3    H153032   1.265   1.959  10.420  0.8063 -0.1347  0.0580
10539TIP3    H253033   1.350   2.067  10.358  2.7347 -0.3298  2.2941
10540TIP3   OH253034   1.830   5.382  13.482 -0.0911 -0.4486  0.1045
10540TIP3    H153035   1.925   5.370  13.490  0.2053 -0.2669 -2.7136
10540TIP3    H253036   1.798   5.296  13.455 -0.3366  0.2489 -1.8706
10541TIP3   OH253037   2.936   1.194  13.835  0.6799  0.3258  0.0013
10541TIP3    H153038   2.940   1.266  13.772  1.9619 -0.0326 -0.3460
10541TIP3    H253039   2.893   1.232  13.912 -1.2586  0.6569 -1.2197
10542TIP3   OH253040   5.686   6.516  10.669 -0.0438  0.6726  0.2760
10542TIP3    H153041   5.599   6.539  10.702 -0.6895  1.0706 -1.6029
10542TIP3    H253042   5.668   6.456  10.597  1.1798  1.5790 -0.8018
10543TIP3   OH253043   2.226   4.040  13.836  0.2062  0.6800  0.0640
10543TIP3    H153044   2.236   3.988  13.916  1.0125  1.0759  0.2163
10543TIP3    H253045   2.315   4.055  13.805 -0.1022  0.4893 -0.9392
10544TIP3   OH253046   4.706   3.204   2.302  0.1943 -0.5270 -0.3240
10544TIP3    H153047   4.751   3.254   2.234  0.3634 -0.2431 -0.0042
10544TIP3    H253048   4.621   3.183   2.264  0.0322  0.2055 -0.3679
10545TIP3   OH253049   3.060   2.011  11.846 -0.3005  0.5117 -0.2769
10545TIP3    H153050   3.035   1.934  11.897  2.1048 -0.7939 -1.0082
10545TIP3    H253051   3.146   2.034  11.878  0.7506  0.3884 -2.8766
10546TIP3   OH253052   5.653   3.353   6.251  0.1700  0.1905  0.1325
10546TIP3    H153053   5.629   3.440   6.283 -0.9896 -0.3596  0.8257
10546TIP3    H253054   5.587   3.333   6.184 -0.1132 -0.5223  0.6185
10547TIP3   OH253055   4.744   2.075   1.466 -0.5952 -0.1830 -0.0495
10547TIP3    H153056   4.659   2.115   1.485 -0.9090 -0.4405 -0.9063
10547TIP3    H253057   4.781   2.055   1.552 -0.4020  1.9826  0.4103
10548TIP3   OH253058   2.892   1.432   3.938 -0.1884  0.4245  0.1511
10548TIP3    H153059   2.828   1.439   4.009 -1.8661 -0.9083 -1.1940
10548TIP3    H253060   2.871   1.349   3.895  1.5734  0.6414 -1.1724
10549TIP3   OH253061   3.690   1.236   4.455  0.0502  0.0519 -0.1055
10549TIP3    H153062   3.612   1.287   4.435 -0.5181 -0.6921  0.1612
10549TIP3    H253063   3.743   1.240   4.375  0.7416  2.3279  0.4450
10550TIP3   OH253064   3.382   3.750   0.556 -0.3228 -0.5668 -0.0178
10550TIP3    H153065   3.398   3.661   0.523  0.1699  0.0702 -1.5808
10550TIP3    H253066   3.292   3.769   0.530 -1.0534 -1.2624  1.9201
10551TIP3   OH253067   6.057   5.685  13.790  0.5439 -0.4061  0.6150
10551TIP3    H153068   6.011   5.720  13.865 -0.2170 -0.4558  0.1742
10551TIP3    H253069   6.079   5.762  13.737  2.3441 -0.2221  1.5777
10552TIP3   OH253070   5.191   4.560   0.293  0.5277 -0.2847  0.0867
10552TIP3    H153071   5.160   4.638   0.339 -0.3694 -0.0348 -0.9137
10552TIP3    H253072   5.180   4.581   0.200 -0.1334 -1.7670 -0.1844
10553TIP3   OH253073   0.720   6.755  17.164  0.2074 -0.1354  0.8105
10553TIP3    H153074   0.665   6.780  17.089  2.6132  1.4153 -0.4654
10553TIP3    H253075   0.660   6.706  17.221 -3.2419  3.8422  0.8109
10554TIP3   OH253076   1.189   2.145  10.725  0.2172 -0.1322  0.2666
10554TIP3    H153077   1.283   2.130  10.721 -0.0263 -1.3126 -1.6373
10554TIP3    H253078   1.180   2.236  10.753  1.9184  0.0290  0.3395
10555TIP3   OH253079   0.072   0.789  15.438 -0.4324 -0.3399  0.4865
10555TIP3    H153080   0.157   0.816  15.402 -0.9434  0.9578  0.2395
10555TIP3    H253081   0.094   0.722  15.502  0.6705 -1.1047 -0.6609
10556TIP3   OH253082   2.916   2.004  14.343 -0.1414  0.3536  0.2961
10556TIP3    H153083   2.888   1.941  14.278 -0.6143 -0.0698  0.9066
10556TIP3    H253084   2.972   1.954  14.403  0.0278  0.6667  0.4024
10557TIP3   OH253085   2.387   3.444  16.379 -0.5252  0.2248 -0.7975
10557TIP3    H153086   2.427   3.373  16.329 -0.3801  0.9698 -1.7643
10557TIP3    H253087   2.342   3.401  16.452 -0.1787 -0.8218 -1.1998
10558TIP3   OH253088   6.594   1.523   3.799  0.1413 -1.0384 -0.0336
10558TIP3    H153089   6.538   1.541   3.875 -1.6035  0.6079 -1.6321
10558TIP3    H253090   6.583   1.430   3.782  0.8309 -1.4881  1.9341
10559TIP3   OH253091   5.357   0.754  10.376 -0.7546 -0.0470 -0.0949
10559TIP3    H153092   5.341   0.673  10.327 -2.2691  0.2236 -0.0702
10559TIP3    H253093   5.351   0.824  10.311  0.2831  0.0738 -0.0677
10560TIP3   OH253094   4.922   5.608   2.331  0.0816 -0.1291  0.4947
10560TIP3    H153095   4.856   5.677   2.343  0.7496  0.3858  1.2761
10560TIP3    H253096   5.000   5.655   2.299  0.4282 -0.5769  0.6814
10561TIP3   OH253097   0.459   6.230  11.127 -0.1149  0.4214  0.1599
10561TIP3    H153098   0.553   6.216  11.117 -0.3293 -0.3696 -0.8100
10561TIP3    H253099   0.423   6.220  11.039 -1.0059  1.5864  0.3790
10562TIP3   OH253100   4.873   4.658  14.707  0.2153 -0.3286 -0.4901
10562TIP3    H153101   4.840   4.744  14.679 -1.5908  0.2851  3.1776
10562TIP3    H253102   4.965   4.657  14.681  1.2381  4.2049  2.4114
10563TIP3   OH253103   2.200   6.000  10.993  0.0183 -0.4978  0.2335
10563TIP3    H153104   2.276   6.014  11.050  0.0227  0.0476  0.0996
10563TIP3    H253105   2.223   6.045  10.912 -1.5290  1.9455  1.1019
10564TIP3   OH253106   6.654   6.556   4.966 -0.0902  0.1768  0.0607
10564TIP3    H153107   6.644   6.575   5.059 -2.2128  0.5973 -0.2182
10564TIP3    H253108   6.670   6.641   4.925  1.1627 -0.0480  0.0676
10565TIP3   OH253109   4.030   1.853  12.228 -0.0973  0.1796  0.3154
10565TIP3    H153110   4.014   1.855  12.322  0.4722 -1.0487  0.4467
10565TIP3    H253111   4.067   1.939  12.209  2.5288 -0.5615  1.7523
10566TIP3   OH253112   4.785   0.438  10.504 -0.1088  0.0003 -0.4103
10566TIP3    H153113   4.712   0.464  10.448  1.3475  0.4496 -2.1558
10566TIP3    H253114   4.746   0.425  10.590 -2.2589  0.1132 -1.3366
10567TIP3   OH253115   1.209   2.110   0.700  0.2328 -0.1928 -0.0193
10567TIP3    H153116   1.140   2.123   0.766  0.7651 -0.7613  0.6669
10567TIP3    H253117   1.288   2.147   0.740  0.8537 -1.7352  0.2349
10568TIP3   OH253118   3.215   0.096   1.398  0.0168  0.0222 -0.3307
10568TIP3    H153119   3.249   0.015   1.361 -2.0936 -1.0977  0.0882
10568TIP3    H253120   3.185   0.071   1.486 -0.6066  1.2713 -0.1806
10569TIP3   OH253121   1.654   4.662   5.801 -0.1749 -0.5459 -0.6615
10569TIP3    H153122   1.699   4.630   5.880 -4.7263 -0.1429  2.2943
10569TIP3    H253123   1.626   4.582   5.756 -1.9928 -0.8477  0.9204
10570TIP3   OH253124   4.666   5.645   3.957 -0.9477  0.2247  0.2441
10570TIP3    H153125   4.710   5.615   4.036 -1.0279  0.0801  0.2329
10570TIP3    H253126   4.661   5.568   3.900  1.3670  0.8991 -0.9336
10571TIP3   OH253127   4.264   4.707  12.933  0.0539 -0.6695  0.1314
10571TIP3    H153128   4.179   4.708  12.889 -0.2974 -0.2422  0.8106
10571TIP3    H253129   4.328   4.696  12.862 -0.6028 -1.7029 -0.3247
10572TIP3   OH253130   3.475   0.080  15.418  0.1581 -0.1611 -0.1082
10572TIP3    H153131   3.518   0.002  15.453  2.2826  0.3489 -1.4867
10572TIP3    H253132   3.543   0.124  15.366 -1.6218  1.4733 -1.1243
10573TIP3   OH253133   2.214   2.343  14.186  0.1761  0.1621 -0.1432
10573TIP3    H153134   2.237   2.359  14.278 -0.2144  1.2783 -0.2339
10573TIP3    H253135   2.249   2.418  14.139  1.4296 -1.0002 -1.0909
10574TIP3   OH253136   3.941   4.014   1.602 -0.5220 -0.2556  0.0398
10574TIP3    H153137   3.897   4.059   1.674  1.6104 -0.5942  1.6106
10574TIP3    H253138   3.888   3.936   1.586 -1.3450  0.1394  0.8463
10575TIP3   OH253139   5.017   0.056  12.127  0.2196 -0.1326  0.0867
10575TIP3    H153140   5.096   0.103  12.099 -0.3430  0.2973 -0.8095
10575TIP3    H253141   5.007  -0.015  12.064  0.4153 -0.7441  0.7517
10576TIP3   OH253142   3.863   1.029  13.733 -0.4639 -0.6169 -0.3833
10576TIP3    H153143   3.884   1.011  13.825 -1.7812 -1.4563 -0.2288
10576TIP3    H253144   3.943   1.006  13.685 -0.5069 -2.3811  0.3194
10577TIP3   OH253145   0.252   2.911   3.652  0.6107  1.1017  0.0243
10577TIP3    H153146   0.294   2.890   3.569  1.0388  0.6517  0.3522
10577TIP3    H253147   0.270   3.004   3.666  1.4229  0.9322  0.1235
10578TIP3   OH253148   6.238   5.079  12.660 -0.2703  0.1790 -0.2143
10578TIP3    H153149   6.284   5.007  12.617  0.7087  1.1896 -0.9169
10578TIP3    H253150   6.308   5.130  12.701 -0.6822  1.9951 -1.6727
10579TIP3   OH253151   6.150   3.863  12.149 -0.0482  0.8554 -0.7921
10579TIP3    H153152   6.222   3.817  12.108  0.1116  0.4902 -0.1102
10579TIP3    H253153   6.187   3.901  12.229 -0.6114  0.6195 -0.4088
10580TIP3   OH253154   5.856   0.446  17.165 -0.1216  0.0812 -0.0682
10580TIP3    H153155   5.855   0.538  17.139  1.0655  0.0537 -0.2467
10580TIP3    H253156   5.893   0.400  17.090 -1.2010 -0.6177 -0.1883
10581TIP3   OH253157   0.227   3.270   0.668  0.1019  0.3367 -0.6033
10581TIP3    H153158   0.278   3.193   0.644  0.1664  0.2911 -0.3163
10581TIP3    H253159   0.261   3.296   0.754 -1.1563 -0.3867  0.1229
10582TIP3   OH253160   6.425   2.285  14.037  0.1539  0.1245 -0.4312
10582TIP3    H153161   6.363   2.219  14.006  0.2370 -0.0689 -0.1861
10582TIP3    H253162   6.495   2.235  14.078  0.5836  0.3343 -0.8997
10583TIP3   OH253163   0.081   3.882  13.437 -0.2646  0.0134 -0.4864
10583TIP3    H153164   0.104   3.963  13.391  1.2974 -0.4220 -0.5118
10583TIP3    H253165   0.094   3.903  13.529  3.0727 -1.0502 -0.6477
10584TIP3   OH253166   0.828   0.688   4.690 -0.0609  0.7024 -0.2922
10584TIP3    H153167   0.748   0.665   4.737  0.5665  2.9477  1.9607
10584TIP3    H253168   0.877   0.607   4.685 -1.2775 -0.1177  0.6795
10585TIP3   OH253169   2.629   5.064   1.349  0.2031  0.4378  0.4720
10585TIP3    H153170   2.697   5.109   1.298 -1.1416  0.3650 -1.4696
10585TIP3    H253171   2.593   5.132   1.406 -0.0049  1.2040 -0.5378
10586TIP3   OH253172   6.145   0.233  13.566  0.0795  0.3600 -0.3867
10586TIP3    H153173   6.111   0.161  13.620  1.0511 -1.3339 -1.9377
10586TIP3    H253174   6.071   0.291  13.552 -0.9590 -0.8138  0.1645
10587TIP3   OH253175   6.548   0.343   4.976 -0.0703 -0.0806 -0.2243
10587TIP3    H153176   6.643   0.337   4.971 -0.1268 -2.5517  1.0185
10587TIP3    H253177   6.530   0.386   5.059 -0.0498  1.4739 -0.9975
10588TIP3   OH253178   1.000   3.755   1.345 -0.3153  0.6357 -0.3856
10588TIP3    H153179   1.073   3.799   1.301 -1.2295  0.8799 -1.6718
10588TIP3    H253180   0.969   3.819   1.409  1.2851  0.1235  0.9575
10589TIP3   OH253181   0.121   2.619  16.808 -0.0469  0.2265 -0.1416
10589TIP3    H153182   0.172   2.700  16.808  0.3454  0.0060  1.5957
10589TIP3    H253183   0.186   2.550  16.823 -0.4589 -0.3705 -1.0318
10590TIP3   OH253184   2.602   2.652  12.015  0.2035 -0.1548 -0.5662
10590TIP3    H153185   2.599   2.630  11.922 -0.0639  1.7609 -1.0347
10590TIP3    H253186   2.667   2.593  12.052 -3.0155 -4.2118 -1.0377
10591TIP3   OH253187   4.341   1.642  11.537 -0.0983 -0.1206  0.4324
10591TIP3    H153188   4.344   1.675  11.448  0.1744  1.3652  0.9797
10591TIP3    H253189   4.357   1.548  11.529 -1.1489 -0.1624 -1.1699
10592TIP3   OH253190   4.247   4.992   4.767  0.0170  0.1162 -0.0513
10592TIP3    H153191   4.303   4.946   4.704 -0.5739 -1.8858  0.8754
10592TIP3    H253192   4.274   5.084   4.758  1.8171 -0.4845 -1.2977
10593TIP3   OH253193   1.418   4.934   3.788 -1.2331 -0.1079 -0.0506
10593TIP3    H153194   1.366   5.007   3.753 -1.9951 -1.2819 -1.4461
10593TIP3    H253195   1.447   4.886   3.710  2.3437  0.7435  0.6848
10594TIP3   OH253196   0.029   2.978   3.320  0.3373 -0.2663 -0.0500
10594TIP3    H153197   0.011   2.944   3.408  0.7311  0.1180  0.1842
10594TIP3    H253198   0.067   2.904   3.273 -2.9804 -1.4563 -0.9535
10595TIP3   OH253199   1.656   5.129   5.692 -0.4466  0.2001 -0.1861
10595TIP3    H153200   1.640   5.100   5.602 -1.2848 -0.3062  0.1193
10595TIP3    H253201   1.596   5.076   5.745  0.9540 -0.4165  0.8013
10596TIP3   OH253202   3.007   5.041  17.237 -0.1578 -0.4854  0.1912
10596TIP3    H153203   2.985   4.955  17.201 -1.2184 -0.1269 -0.0395
10596TIP3    H253204   3.066   5.080  17.172  0.4802 -1.1085  0.3868
10597TIP3   OH253205   0.584   6.494  13.839 -0.4134  0.1611 -0.3646
10597TIP3    H153206   0.575   6.446  13.922 -1.3981 -0.3940 -0.7716
10597TIP3    H253207   0.675   6.482  13.814 -0.0631  0.4836  0.7315
10598TIP3   OH253208   1.001   5.923  16.728  0.6130  0.1420 -0.0558
10598TIP3    H153209   0.926   5.939  16.670 -0.2108 -0.9984  0.6921
10598TIP3    H253210   0.976   5.963  16.812  1.1161  0.3089  0.0205
10599TIP3   OH253211   3.591   2.172   3.303 -0.0401  0.0861  0.0354
10599TIP3    H153212   3.673   2.192   3.258  0.1046 -0.9447 -0.1855
10599TIP3    H253213   3.523   2.205   3.244  0.1867 -0.2161 -0.4041
10600TIP3   OH253214   5.952   5.485   3.827  0.4388 -0.0974 -0.5671
10600TIP3    H153215   5.945   5.463   3.734 -0.1698  1.2286 -0.8487
10600TIP3    H253216   5.960   5.580   3.828 -1.2131  0.0327  0.8339
10601TIP3   OH253217   5.066   6.301  14.392  0.2648  0.0175  0.1290
10601TIP3    H153218   5.062   6.387  14.435  2.5610 -0.5696  1.6042
10601TIP3    H253219   5.123   6.315  14.316  0.6703 -0.2024  0.3917
10602TIP3   OH253220   1.945   6.319   0.639  0.1656  0.1065 -0.0291
10602TIP3    H153221   1.920   6.406   0.672  2.2576  1.1807 -1.1680
10602TIP3    H253222   1.999   6.282   0.709  0.7927  0.4991 -0.2957
10603TIP3   OH253223   6.611   1.722  14.672 -0.0842 -0.4234  0.0811
10603TIP3    H153224   6.651   1.735  14.586 -0.0225 -1.3215 -0.0356
10603TIP3    H253225   6.609   1.809  14.711 -1.7887  0.2896 -1.5531
10604TIP3   OH253226   2.692   2.364  15.267  0.0114  0.4133  0.7402
10604TIP3    H153227   2.597   2.373  15.264  0.2545  2.7443 -2.6900
10604TIP3    H253228   2.720   2.429  15.332 -0.6476  0.5875  0.8533
10605TIP3   OH253229   6.306   5.027   5.903  0.0335  0.2624  0.2493
10605TIP3    H153230   6.319   5.117   5.933  0.1496  0.1053  0.6814
10605TIP3    H253231   6.262   4.984   5.976  1.5817 -0.4929  0.7648
10606TIP3   OH253232   3.844   6.194  14.833 -0.5826 -0.5097  0.1821
10606TIP3    H153233   3.908   6.132  14.796 -0.5993 -0.5471  0.2142
10606TIP3    H253234   3.773   6.195  14.770 -0.3810 -0.1786 -0.0439
10607TIP3   OH253235   5.053   4.687  12.390 -0.4071  0.1846  0.8590
10607TIP3    H153236   4.985   4.624  12.365 -0.9240  1.4713 -1.1008
10607TIP3    H253237   5.007   4.770  12.400  0.3764  0.4039  2.7555
10608TIP3   OH253238   4.842   5.898  15.209  0.1471 -0.3226  0.4992
10608TIP3    H153239   4.926   5.870  15.247  0.0818 -0.6021  0.4400
10608TIP3    H253240   4.783   5.824  15.225  0.4470 -0.9730 -1.2878
10609TIP3   OH253241   4.365   3.453   5.809 -0.4157 -0.1071  0.1502
10609TIP3    H153242   4.306   3.418   5.742 -2.2871  3.9686 -0.4390
10609TIP3    H253243   4.310   3.465   5.886  0.8142 -0.9157  1.1816
10610TIP3   OH253244   2.641   1.310   4.683  0.6042  0.8352  0.0183
10610TIP3    H153245   2.691   1.250   4.627 -0.0007  0.2786  0.0820
10610TIP3    H253246   2.618   1.382   4.624 -0.7665 -0.1512 -0.6874
10611TIP3   OH253247   1.539   5.114   3.580 -0.2429  0.1477 -0.2070
10611TIP3    H153248   1.618   5.123   3.635 -0.0055  0.9186 -0.6655
10611TIP3    H253249   1.560   5.044   3.519 -0.4584 -0.6294  0.5981
10612TIP3   OH253250   1.605   4.985  11.715  0.1641 -0.0280  0.4642
10612TIP3    H153251   1.576   5.040  11.642  0.7308 -1.6523 -1.0005
10612TIP3    H253252   1.539   4.916  11.721  0.0527  0.1683  1.5803
10613TIP3   OH253253   5.776   6.306  12.244  0.1079  0.1558  0.0175
10613TIP3    H153254   5.704   6.367  12.228  0.3048  0.3228 -0.2328
10613TIP3    H253255   5.759   6.233  12.185  0.7753  0.7241 -0.8854
10614TIP3   OH253256   5.513   3.902   5.983  0.2170 -0.6838 -0.3319
10614TIP3    H153257   5.435   3.948   5.952 -0.2490  0.2215  2.1146
10614TIP3    H253258   5.485   3.857   6.063  2.0859 -0.7156  0.3316
10615TIP3   OH253259   0.500   3.275  14.530  0.2113 -0.0358 -0.3280
10615TIP3    H153260   0.485   3.188  14.495  0.9835 -0.1538 -0.3849
10615TIP3    H253261   0.549   3.260  14.611 -1.6290  0.2291  0.8576
10616TIP3   OH253262   3.975   5.639  13.187 -0.1503 -0.0996  0.3650
10616TIP3    H153263   3.916   5.609  13.117 -1.9193  3.1634  0.3301
10616TIP3    H253264   4.063   5.626  13.151 -1.0085  0.5493 -2.1124
10617TIP3   OH253265   0.349   5.597   5.179  0.4055 -0.4867 -0.3715
10617TIP3    H153266   0.415   5.605   5.248  1.8736  1.4415 -1.9389
10617TIP3    H253267   0.370   5.513   5.137  1.7756  0.0292 -0.7449
10618TIP3   OH253268   3.207   6.629  16.476  0.3138 -0.6240 -0.2042
10618TIP3    H153269   3.180   6.719  16.458 -2.6640 -1.6170 -0.8950
10618TIP3    H253270   3.258   6.604  16.399  0.7336  0.2810 -0.2328
10619TIP3   OH253271   3.578   6.344   6.366  0.7429  0.1384  0.3514
10619TIP3    H153272   3.662   6.311   6.337  0.5524  1.3822 -1.7469
10619TIP3    H253273   3.599   6.423   6.416  0.8596 -0.0360  0.5812
10620TIP3   OH253274   0.635   4.874  13.070  0.3655  0.4235  0.3276
10620TIP3    H153275   0.566   4.820  13.031 -0.2870  0.7367  1.0517
10620TIP3    H253276   0.689   4.901  12.996  0.1251 -0.4074 -0.1583
10621TIP3   OH253277   0.696   6.316   0.395 -0.8241 -0.0827  0.0699
10621TIP3    H153278   0.730   6.231   0.369  0.8680 -0.3405  2.8386
10621TIP3    H253279   0.732   6.378   0.332 -0.5669 -1.1898 -0.8668
10622TIP3   OH253280   5.120   6.310   4.091 -0.2140 -0.1138 -0.3727
10622TIP3    H153281   5.034   6.337   4.058 -1.2398 -3.6234 -0.7371
10622TIP3    H253282   5.178   6.322   4.016  0.0105  3.6813  0.2920
10623TIP3   OH253283   2.764   0.131   4.746  0.4464  0.1519 -0.1328
10623TIP3    H153284   2.733   0.130   4.837 -0.8632 -0.2446 -0.5747
10623TIP3    H253285   2.810   0.048   4.735 -0.5215 -0.3836 -0.2046
10624TIP3   OH253286   6.174   3.996   3.305  0.1599 -0.3591  0.1478
10624TIP3    H153287   6.224   4.067   3.344 -0.9398  1.3173 -1.4065
10624TIP3    H253288   6.130   3.954   3.378  0.4842  0.8481  1.0469
10625TIP3   OH253289   1.206   5.321  16.766  0.3086  0.2969 -0.1007
10625TIP3    H153290   1.268   5.307  16.695  1.0976  1.1094  0.4200
10625TIP3    H253291   1.250   5.287  16.844  0.0954  0.8472  0.2656
10626TIP3   OH253292   3.739   1.661  14.985 -0.7947 -0.2528  0.1712
10626TIP3    H153293   3.763   1.572  15.009 -0.0946  0.1667  1.0790
10626TIP3    H253294   3.728   1.659  14.890  0.4100 -1.0317  0.0373
10627TIP3   OH253295   1.649   1.524   4.798  0.2819 -0.6247 -0.0651
10627TIP3    H153296   1.568   1.569   4.778  0.1698 -0.2812  1.1276
10627TIP3    H253297   1.710   1.552   4.730  0.1433  1.1242  0.5159
10628TIP3   OH253298   4.922   3.533  15.025  0.0766  0.2119 -0.7317
10628TIP3    H153299   4.977   3.491  14.959  0.6019 -1.0006  0.4535
10628TIP3    H253300   4.936   3.627  15.011  0.7586 -0.0411 -1.8522
10629TIP3   OH253301   4.373   2.756   2.478 -0.1612  0.1068 -0.4021
10629TIP3    H153302   4.316   2.802   2.539  0.4964 -1.5471  1.5309
10629TIP3    H253303   4.351   2.663   2.491  2.1088 -0.4660 -0.4883
10630TIP3   OH253304   3.238   5.608   4.341  0.1227 -0.4858  0.6610
10630TIP3    H153305   3.251   5.697   4.307 -2.4877  0.1510  1.2122
10630TIP3    H253306   3.185   5.565   4.274  0.2268 -1.1926  1.0388
10631TIP3   OH253307   1.634   3.363  13.983  1.2682  0.3314  0.2178
10631TIP3    H153308   1.563   3.302  13.962  1.9879 -0.4507  0.0559
10631TIP3    H253309   1.665   3.395  13.898 -0.4966  2.5587  0.3458
10632TIP3   OH253310   6.180   2.082  16.409 -0.3515 -0.2690  0.3546
10632TIP3    H153311   6.211   2.164  16.446 -0.0259  0.1474 -0.8327
10632TIP3    H253312   6.194   2.017  16.478 -2.8638  1.1006  2.2183
10633TIP3   OH253313   5.652   4.277  16.122 -0.2527 -0.1167  0.2256
10633TIP3    H153314   5.580   4.306  16.178  2.5181  1.4031  3.1528
10633TIP3    H253315   5.684   4.197  16.164 -0.3121 -0.8876 -1.1624
10634TIP3   OH253316   5.323   0.775   3.315 -0.3851 -0.1432  0.2876
10634TIP3    H153317   5.250   0.714   3.312 -0.8575  0.3987  0.6882
10634TIP3    H253318   5.400   0.719   3.324 -0.8334 -0.6739  0.9019
10635TIP3   OH253319   1.796   1.934  11.816 -0.6562  0.8746  0.1447
10635TIP3    H153320   1.784   1.963  11.907 -1.5371 -0.7122  0.5572
10635TIP3    H253321   1.882   1.891  11.815 -0.4556  1.2782  0.1278
10636TIP3   OH253322   2.238   5.282   5.711 -0.0419 -0.2647 -0.0076
10636TIP3    H153323   2.269   5.228   5.638  0.8182  0.8398 -0.4727
10636TIP3    H253324   2.317   5.322   5.746 -0.5703 -0.0250  0.9244
10637TIP3   OH253325   3.956   0.013  16.521  0.2089  0.0741  1.0117
10637TIP3    H153326   3.896   0.062  16.577 -0.7155 -0.0226  0.1149
10637TIP3    H253327   3.922   0.025  16.432  2.1795  0.9836  0.3402
10638TIP3   OH253328   3.287   0.866  14.473  0.5677  0.2815 -0.4289
10638TIP3    H153329   3.331   0.925  14.412 -1.2922  1.4484 -0.6774
10638TIP3    H253330   3.269   0.919  14.550  2.0484 -0.9391  0.8069
10639TIP3   OH253331   4.305   0.352   2.527 -0.3510  0.1376 -0.4361
10639TIP3    H153332   4.368   0.285   2.500  0.6692  0.5212  0.9173
10639TIP3    H253333   4.262   0.379   2.446  0.7135 -0.6659 -1.2805
10640TIP3   OH253334   0.569   4.692  11.599 -0.5529 -0.1765 -0.3949
10640TIP3    H153335   0.599   4.691  11.508  0.5771  0.1325 -0.0271
10640TIP3    H253336   0.649   4.697  11.651 -1.3020  2.1047  0.5759
10641TIP3   OH253337   5.295   6.772   3.016 -0.3713 -0.0476  0.1820
10641TIP3    H153338   5.249   6.784   3.099 -0.0571  0.5318  0.2725
10641TIP3    H253339   5.326   6.681   3.019  0.5294  0.2899  1.1435
10642TIP3   OH253340   0.087   1.948   0.173 -0.0319  0.2662 -0.0380
10642TIP3    H153341   0.140   1.962   0.251  0.2978  0.2066 -0.2463
10642TIP3    H253342   0.038   2.029   0.162  1.9562  1.3364 -1.3078
10643TIP3   OH253343   5.195   5.737  16.688  0.0060  0.0477 -0.6921
10643TIP3    H153344   5.182   5.831  16.697 -0.2562 -0.1588  1.4179
10643TIP3    H253345   5.282   5.721  16.725  0.0961 -0.5260 -1.1356
10644TIP3   OH253346   0.904   3.959   3.615 -0.0245  0.0237  0.4502
10644TIP3    H153347   0.979   3.973   3.672  0.3988 -0.2259 -0.0373
10644TIP3    H253348   0.886   4.045   3.577  2.0935 -0.5482 -1.9534
10645TIP3   OH253349   0.944   0.763  13.541 -0.4230 -0.4924  0.2121
10645TIP3    H153350   0.935   0.668  13.549 -2.5388 -0.4751 -1.5409
10645TIP3    H253351   0.891   0.797  13.613 -1.4014 -0.6161 -0.4457
10646TIP3   OH253352   3.592   6.501  14.341  0.6189 -0.1421 -0.3058
10646TIP3    H153353   3.680   6.524  14.311  0.9752  0.7316  1.3302
10646TIP3    H253354   3.533   6.553  14.286  1.1867  0.2965 -0.5019
10647TIP3   OH253355   6.036   1.651  13.948 -0.6405  0.1865 -0.1431
10647TIP3    H153356   5.955   1.688  13.912 -1.0743 -2.1423 -1.6695
10647TIP3    H253357   6.086   1.625  13.870  0.2692 -1.1136  0.8677
10648TIP3   OH253358   5.573   4.445  16.344  0.3451  0.0702  0.1326
10648TIP3    H153359   5.628   4.395  16.405  0.5424 -0.8294 -0.7683
10648TIP3    H253360   5.634   4.508  16.305  0.7109 -0.8375 -0.7666
10649TIP3   OH253361   0.748   5.461   2.435 -0.1457 -0.0953  0.0506
10649TIP3    H153362   0.761   5.443   2.528  1.1564  0.2460 -0.0521
10649TIP3    H253363   0.802   5.538   2.418  0.2494 -0.6267 -1.1610
10650TIP3   OH253364   1.049   0.554   5.108  0.2596 -0.1096  0.1111
10650TIP3    H153365   1.144   0.559   5.123  0.0690  0.7230  1.0767
10650TIP3    H253366   1.041   0.534   5.015  1.4582 -3.8590  0.7113
10651TIP3   OH253367   1.720   0.140  15.920  0.6049  0.0543  0.2947
10651TIP3    H153368   1.807   0.142  15.881 -0.0101  2.2271 -1.0752
10651TIP3    H253369   1.700   0.232  15.939 -0.7097 -0.5725  2.1442
10652TIP3   OH253370   6.615   6.013  13.924 -0.7578  0.2761  0.3511
10652TIP3    H153371   6.558   6.073  13.876 -0.8278  1.1017  1.4438
10652TIP3    H253372   6.565   5.990  14.003 -0.5738 -0.9215  0.1271
10653TIP3   OH253373   5.319   1.818  14.483  0.4907 -0.3240 -0.4158
10653TIP3    H153374   5.325   1.912  14.499  0.9450 -0.6506  1.4091
10653TIP3    H253375   5.276   1.811  14.397 -0.7831  1.5146  0.0386
10654TIP3   OH253376   2.445   6.747   3.098  0.0592 -0.1012  0.4106
10654TIP3    H153377   2.382   6.800   3.050 -0.2207  0.1513  1.0467
10654TIP3    H253378   2.506   6.811   3.135 -0.1901 -0.2322  1.0531
10655TIP3   OH253379   5.661   2.918  15.086  0.8465  0.7253 -0.0770
10655TIP3    H153380   5.721   2.975  15.134  0.7942  1.0940 -0.4514
10655TIP3    H253381   5.712   2.886  15.011  0.1871  2.0576 -1.1114
10656TIP3   OH253382   5.632   5.770   3.282 -0.2721  0.3298 -0.9270
10656TIP3    H153383   5.551   5.759   3.333  0.8921 -2.9153  0.3720
10656TIP3    H253384   5.662   5.858   3.304 -0.8350 -0.2580  2.5500
10657TIP3   OH253385   5.346   2.440   3.999 -0.5885 -0.3844 -0.9340
10657TIP3    H153386   5.283   2.494   3.952 -0.0432 -0.1172 -1.3590
10657TIP3    H253387   5.428   2.490   3.997 -1.3629  1.2444  3.2693
10658TIP3   OH253388   2.272   0.844  11.544  0.1796  0.0664 -0.0245
10658TIP3    H153389   2.340   0.784  11.513 -0.2061 -0.1342 -0.4918
10658TIP3    H253390   2.197   0.787  11.563 -0.3453  0.4543 -0.9179
10659TIP3   OH253391   5.764   0.676  15.970 -0.1340  0.1837  0.1047
10659TIP3    H153392   5.718   0.715  16.044 -0.6896  0.8188 -0.5593
10659TIP3    H253393   5.822   0.611  16.009 -0.6369  0.2980  1.0670
10660TIP3   OH253394   2.311   6.427   2.858  0.1007 -0.6776  0.0848
10660TIP3    H153395   2.341   6.337   2.845  0.2832 -0.3718 -1.6102
10660TIP3    H253396   2.263   6.449   2.778  3.1716  2.0277 -1.0984
10661TIP3   OH253397   2.390   6.410  11.297  0.4216  0.2117  0.4088
10661TIP3    H153398   2.358   6.356  11.369  1.4109 -0.5541  0.2815
10661TIP3    H253399   2.463   6.459  11.334  1.0961 -0.3715 -0.1395
10662TIP3   OH253400   3.556   1.086   3.491 -0.7003 -0.1509 -0.5309
10662TIP3    H153401   3.492   1.026   3.453  0.1253  0.0060 -2.2088
10662TIP3    H253402   3.519   1.173   3.476 -1.7045 -0.2034  1.5414
10663TIP3   OH253403   5.887   3.716   1.281 -0.2117 -0.1150  0.6840
10663TIP3    H153404   5.971   3.758   1.263 -1.1843  0.8971 -1.6228
10663TIP3    H253405   5.863   3.674   1.198 -1.4706 -1.3511  1.6431
10664TIP3   OH253406   3.591   2.556   3.030 -0.4585  0.1139  0.0061
10664TIP3    H153407   3.599   2.507   2.948  0.1916 -0.8824  0.6506
10664TIP3    H253408   3.680   2.559   3.064 -0.9239 -0.5699  1.2985
10665TIP3   OH253409   3.420   4.466   1.935 -0.7059 -0.1348  0.3296
10665TIP3    H153410   3.445   4.503   1.851 -0.7737 -1.4286 -0.2608
10665TIP3    H253411   3.325   4.475   1.938 -0.5952  1.0844  0.8424
10666TIP3   OH253412   3.294   4.387   1.266  0.3995  0.6592 -0.4419
10666TIP3    H153413   3.385   4.376   1.240  0.3339  1.0503 -0.8395
10666TIP3    H253414   3.285   4.334   1.345  0.3423 -1.3254 -1.7726
10667TIP3   OH253415   5.797   1.055  15.194 -0.0272 -0.6425  0.0621
10667TIP3    H153416   5.733   1.000  15.148  0.7897  0.2455 -2.2258
10667TIP3    H253417   5.787   1.141  15.154  1.3774 -0.0691  0.9283
10668TIP3   OH253418   4.346   2.377  16.933 -0.1297 -0.7791  0.5255
10668TIP3    H153419   4.302   2.340  16.857 -1.1731 -0.2873  0.8802
10668TIP3    H253420   4.419   2.427  16.896 -1.1555  0.1946 -0.2161
10669TIP3   OH253421   6.202   1.885  11.385 -0.2545  0.3863 -0.3336
10669TIP3    H153422   6.234   1.957  11.331  1.9944 -1.1527 -1.1421
10669TIP3    H253423   6.200   1.809  11.325  0.7879 -0.9946  1.3432
10670TIP3   OH253424   5.221   5.419   4.937  0.0195  0.0828 -0.3032
10670TIP3    H153425   5.147   5.450   4.991 -0.1028  2.9104 -1.9749
10670TIP3    H253426   5.289   5.395   5.001 -2.0573 -1.9625  1.2481
10671TIP3   OH253427   4.364   5.027   3.279 -0.2474  0.1415 -0.0186
10671TIP3    H153428   4.396   4.957   3.334 -2.1192 -0.0278  0.9101
10671TIP3    H253429   4.415   5.104   3.305 -0.2156 -0.2308  1.0243
10672TIP3   OH253430   2.961   0.700   5.807 -1.0081 -0.0896  0.1808
10672TIP3    H153431   2.971   0.787   5.768  1.1195  0.3670  1.6442
10672TIP3    H253432   2.884   0.706   5.863 -1.6194  0.4621 -0.7068
10673TIP3   OH253433   4.254   2.961  12.014  0.6156 -0.0736 -0.5624
10673TIP3    H153434   4.269   2.868  12.030  0.5340  0.3181  1.9694
10673TIP3    H253435   4.168   2.978  12.052  1.5584  1.4842  0.9250
10674TIP3   OH253436   3.031   1.437  16.155 -0.3934 -0.0687 -0.3662
10674TIP3    H153437   2.952   1.483  16.128 -0.3686 -0.5213 -1.2175
10674TIP3    H253438   3.094   1.506  16.176 -1.3558  0.3134  1.3932
10675TIP3   OH253439   5.387   5.701  15.752  1.0429  0.4870 -0.4512
10675TIP3    H153440   5.438   5.657  15.820 -0.8179  1.6372  1.7229
10675TIP3    H253441   5.391   5.794  15.775 -1.1247  0.7078 -0.8758
10676TIP3   OH253442   6.709   0.831   0.192  0.6383  0.4559 -0.2091
10676TIP3    H153443   6.619   0.823   0.161  1.1305 -1.2752 -1.2763
10676TIP3    H253444   6.757   0.866   0.117  0.6102  2.8498  0.8385
10677TIP3   OH253445   3.941   5.505  11.344 -0.0612 -0.3709  0.3101
10677TIP3    H153446   3.934   5.418  11.303 -1.0506 -0.4024  0.5370
10677TIP3    H253447   3.911   5.565  11.276 -0.9631 -0.3572  0.7102
10678TIP3   OH253448   0.499   4.264   0.810  0.0002 -0.0434 -0.1945
10678TIP3    H153449   0.441   4.236   0.739  0.5047 -0.1713 -0.5534
10678TIP3    H253450   0.464   4.220   0.888 -0.7094  0.3049 -0.3152
10679TIP3   OH253451   4.284   2.861  13.019  0.0842  0.2329 -0.0293
10679TIP3    H153452   4.378   2.867  13.038  0.1309  1.8558 -0.7042
10679TIP3    H253453   4.242   2.855  13.105  0.7102  0.9922  0.3342
10680TIP3   OH253454   6.360   0.977  15.604 -0.2533 -0.3204  0.2491
10680TIP3    H153455   6.428   0.924  15.645 -0.4993 -1.0716 -0.3080
10680TIP3    H253456   6.400   1.010  15.523 -0.4569 -0.5475  0.0532
10681TIP3   OH253457   1.708   5.363  11.441 -0.2972  0.1630  0.3319
10681TIP3    H153458   1.772   5.387  11.374 -1.5935  0.9576 -0.6351
10681TIP3    H253459   1.705   5.440  11.499 -0.1736  0.0201  0.5272
10682TIP3   OH253460   4.657   1.633   1.728  0.4399  0.1607 -0.2196
10682TIP3    H153461   4.622   1.555   1.686 -1.2084  0.4210  0.6168
10682TIP3    H253462   4.596   1.652   1.799  0.0283  3.0160 -1.2622
10683TIP3   OH253463   1.076   6.311   1.811  0.1256 -0.0866  0.3334
10683TIP3    H153464   1.170   6.295   1.810  0.1337 -0.0274 -0.0216
10683TIP3    H253465   1.066   6.401   1.782 -0.1580 -0.8043 -1.9301
10684TIP3   OH253466   5.081   2.862   1.367  0.8072 -0.0548 -0.4589
10684TIP3    H153467   5.058   2.789   1.308  1.4401 -0.2251 -0.5009
10684TIP3    H253468   5.158   2.901   1.327 -0.0161  1.1727 -0.8844
10685TIP3   OH253469   4.876   2.317  14.344 -0.2446 -0.1603 -0.2483
10685TIP3    H153470   4.885   2.411  14.359 -0.6330 -0.3581  1.3488
10685TIP3    H253471   4.797   2.292  14.393  0.2929 -1.4552 -0.0116
10686TIP3   OH253472   4.398   3.034  15.534 -0.5353  0.2524  0.4285
10686TIP3    H153473   4.413   2.993  15.449 -2.2984  0.6980 -0.1105
10686TIP3    H253474   4.318   2.993  15.567  0.0375  0.2081  1.8017
10687TIP3   OH253475   2.750   0.973   5.765  0.1823  0.3574  0.0532
10687TIP3    H153476   2.656   0.959   5.759  0.2137  0.2362 -0.1535
10687TIP3    H253477   2.772   0.952   5.855  0.0068  0.4118  0.1087
10688TIP3   OH253478   1.611   5.045   4.555  0.4555 -0.3046 -0.5895
10688TIP3    H153479   1.658   4.986   4.614  0.9572  1.1816  0.5291
10688TIP3    H253480   1.678   5.106   4.524 -0.1175 -0.1069 -1.4454
10689TIP3   OH253481   3.253   0.594   3.745  0.1264  0.1447 -0.1375
10689TIP3    H153482   3.161   0.566   3.744  0.0928  0.1630  1.2571
10689TIP3    H253483   3.299   0.521   3.703 -0.3466 -0.5891  0.5812
10690TIP3   OH253484   2.478   5.535  15.465  0.7387  0.6087 -0.2174
10690TIP3    H153485   2.454   5.545  15.373  0.6362 -0.3835 -0.3052
10690TIP3    H253486   2.567   5.500  15.463 -0.0221 -1.3590  0.0301
10691TIP3   OH253487   5.496   5.915   0.607  0.4743  0.1524 -0.2075
10691TIP3    H153488   5.511   5.826   0.637  1.5964  0.1219 -0.8478
10691TIP3    H253489   5.568   5.966   0.644 -0.8163  1.0270  1.1482
10692TIP3   OH253490   2.636   3.734   4.072 -0.1391 -0.3269  0.1603
10692TIP3    H153491   2.715   3.740   4.126  0.3316 -1.6694 -0.3458
10692TIP3    H253492   2.666   3.692   3.991 -1.1746  0.0853 -0.4489
10693TIP3   OH253493   1.027   6.477   0.675  0.0456 -0.0570 -0.2290
10693TIP3    H153494   1.003   6.543   0.610  0.0598  0.0401 -0.1359
10693TIP3    H253495   1.116   6.500   0.701 -0.3462  0.5320  0.6041
10694TIP3   OH253496   3.923   0.127   3.021 -0.0435  0.3600  0.2095
10694TIP3    H153497   3.963   0.212   3.038 -0.8091  0.6301  0.7055
10694TIP3    H253498   3.861   0.143   2.950 -0.4619  0.3078  0.5560
10695TIP3   OH253499   4.831   0.622  14.106  0.6575  0.0591  0.0073
10695TIP3    H153500   4.747   0.619  14.152  0.4811  0.2791 -0.2983
10695TIP3    H253501   4.830   0.548  14.047  0.7898 -0.0906  0.1901
10696TIP3   OH253502   1.128   0.136   6.621 -0.4939  0.4720 -0.3763
10696TIP3    H153503   1.141   0.141   6.526 -0.3138  1.6193 -0.2882
10696TIP3    H253504   1.056   0.073   6.631  1.1785 -1.6170 -1.1262
10697TIP3   OH253505   5.015   3.023   0.076 -0.1603  0.0353  0.2649
10697TIP3    H153506   4.985   3.105   0.037 -1.2461  0.1211  1.2381
10697TIP3    H253507   5.108   3.036   0.090  0.2762 -0.0157 -2.2892
10698TIP3   OH253508   0.076   3.721  16.307 -0.0562  0.0194 -0.2960
10698TIP3    H153509   0.122   3.738  16.224  0.8586 -0.8049  0.0312
10698TIP3    H253510   0.127   3.770  16.372 -0.4176  0.1773 -0.1329
10699TIP3   OH253511   2.829   3.387   3.754  0.3329  0.1758 -1.1762
10699TIP3    H153512   2.820   3.292   3.766  0.6486  0.2288 -0.5040
10699TIP3    H253513   2.740   3.418   3.741  0.1396 -0.0984 -0.5144
10700TIP3   OH253514   2.592   1.806  13.275  0.4666  0.0675  0.5258
10700TIP3    H153515   2.541   1.760  13.208  1.0761  0.4308 -0.1944
10700TIP3    H253516   2.657   1.743  13.304  1.6723  0.6282 -0.8705
10701TIP3   OH253517   1.230   4.264  13.155  0.1054 -0.3555  0.4046
10701TIP3    H153518   1.281   4.271  13.236 -0.1206 -0.9342  0.6031
10701TIP3    H253519   1.216   4.170  13.144 -0.6020 -0.2281  0.1569
10702TIP3   OH253520   4.759   6.631  14.523  0.5981  0.1194  0.7087
10702TIP3    H153521   4.712   6.560  14.480  1.1939 -0.2073  0.5884
10702TIP3    H253522   4.698   6.704  14.523 -0.2039 -0.5321  1.2585
10703TIP3   OH253523   4.123   1.838  11.009 -0.1065  0.4229 -0.2385
10703TIP3    H153524   4.080   1.924  11.009 -0.3012  0.3306 -1.7739
10703TIP3    H253525   4.217   1.858  11.015 -0.2783  0.6309  2.8431
10704TIP3   OH253526   0.869   2.702  16.275  0.0100 -0.0857 -0.6746
10704TIP3    H153527   0.964   2.711  16.282  0.1486 -1.3556 -0.8106
10704TIP3    H253528   0.837   2.791  16.262  1.1302  0.4108 -0.0364
10705TIP3   OH253529   5.022   1.865  16.479  0.7517  0.7161  0.2767
10705TIP3    H153530   5.056   1.942  16.433  1.5275  0.9562  1.2522
10705TIP3    H253531   5.091   1.800  16.472  0.3221  0.2845 -0.0508
10706TIP3   OH253532   1.857   1.150  15.992  0.2253 -0.2016  0.3624
10706TIP3    H153533   1.824   1.214  16.054  1.8969  1.0542 -0.0029
10706TIP3    H253534   1.952   1.159  15.997  0.3927  0.6577 -3.1052
10707TIP3   OH253535   1.698   4.313   0.730  0.0845  0.0242 -0.0682
10707TIP3    H153536   1.698   4.328   0.824  0.6628  1.0416 -0.2248
10707TIP3    H253537   1.616   4.353   0.699 -0.9601 -1.8267  0.2210
10708TIP3   OH253538   5.654   0.246  10.389 -0.3676 -0.7118 -0.1963
10708TIP3    H153539   5.646   0.154  10.364 -0.9500 -0.0561 -2.5199
10708TIP3    H253540   5.679   0.291  10.309  0.7426  1.0647  1.0923
10709TIP3   OH253541   3.525   5.231  15.236  0.3798  0.8594 -0.1089
10709TIP3    H153542   3.555   5.321  15.246 -0.3612  1.0416  0.5710
10709TIP3    H253543   3.431   5.235  15.256  0.5887 -0.2731  1.1666
10710TIP3   OH253544   4.385   4.917   0.999 -0.3280 -0.5313  0.4289
10710TIP3    H153545   4.420   4.878   0.919 -0.6567  0.9688 -0.4638
10710TIP3    H253546   4.424   4.866   1.070 -0.9108 -2.6189 -0.6983
10711TIP3   OH253547   1.260   1.247   6.111 -0.3906  0.2806  0.2586
10711TIP3    H153548   1.277   1.333   6.074 -2.9919  0.5350 -0.3906
10711TIP3    H253549   1.175   1.255   6.154 -1.0289 -2.1631 -0.4731
10712TIP3   OH253550   2.744   4.575  14.683  0.7776 -0.4428  0.2123
10712TIP3    H153551   2.807   4.578  14.755  1.4958  0.6735 -0.4320
10712TIP3    H253552   2.797   4.553  14.606  0.9842  3.3705 -0.8782
10713TIP3   OH253553   6.483   4.252  16.136 -0.1020  0.0582 -0.3850
10713TIP3    H153554   6.401   4.299  16.125 -0.7617  0.0982  3.7366
10713TIP3    H253555   6.550   4.321  16.138 -0.4891  0.4248  0.4649
10714TIP3   OH253556   3.829   3.407   2.950 -0.4223 -0.1418  0.4822
10714TIP3    H153557   3.739   3.377   2.953 -0.3670 -0.1974  2.5625
10714TIP3    H253558   3.838   3.451   2.865 -2.4501  0.0425  0.3506
10715TIP3   OH253559   6.227   5.313  16.097 -0.3296 -0.3457  0.2437
10715TIP3    H153560   6.238   5.234  16.150 -0.1695 -0.1148  0.5592
10715TIP3    H253561   6.157   5.361  16.141  0.5211  0.3483  0.8550
10716TIP3   OH253562   1.912   1.090  15.048 -0.1124 -0.3316  0.2536
10716TIP3    H153563   1.937   1.156  14.983  0.6633 -1.5412 -0.7017
10716TIP3    H253564   1.937   1.129  15.132  0.7207  0.4149 -0.3321
10717TIP3   OH253565   4.394   0.073   2.497 -0.3340  0.2573  0.2523
10717TIP3    H153566   4.337   0.042   2.567 -1.5689  1.0869 -0.3779
10717TIP3    H253567   4.402  -0.002   2.437 -0.6356  0.0951  0.4154
10718TIP3   OH253568   6.353   4.749   0.614  0.2537  0.3099 -0.2109
10718TIP3    H153569   6.310   4.782   0.536  0.5969 -1.1739 -1.0460
10718TIP3    H253570   6.292   4.769   0.686 -0.7410  0.3396 -1.0537
10719TIP3   OH253571   6.176   3.311  12.002  0.0984 -0.1084  0.5299
10719TIP3    H153572   6.268   3.334  12.018  0.5203 -1.8116  0.6820
10719TIP3    H253573   6.129   3.393  12.010  1.6769  0.8652  0.0186
10720TIP3   OH253574   3.275   2.477  11.514  0.4280  0.1975 -0.1146
10720TIP3    H153575   3.341   2.547  11.512  1.3145 -0.6087  0.3364
10720TIP3    H253576   3.193   2.522  11.534  0.7952  1.2506 -0.9184
10721TIP3   OH253577   0.328   5.151  15.422 -0.2010  0.4256 -0.1590
10721TIP3    H153578   0.385   5.210  15.471 -0.6844  1.4825 -0.8421
10721TIP3    H253579   0.251   5.204  15.402 -0.2343 -0.1503 -1.5850
10722TIP3   OH253580   5.501   2.168  12.165  0.3346  0.1598 -0.4545
10722TIP3    H153581   5.504   2.240  12.102  0.5229 -0.1436 -0.7963
10722TIP3    H253582   5.567   2.191  12.231 -0.6915  1.0536  0.2656
10723TIP3   OH253583   5.334   4.864  16.389 -0.4928 -0.5356 -0.6659
10723TIP3    H153584   5.407   4.853  16.328 -0.7678 -1.8287 -0.7715
10723TIP3    H253585   5.311   4.775  16.416 -0.4633  0.0057  1.2312
10724TIP3   OH253586   2.087   3.232  15.463  0.6084  0.0389  0.2273
10724TIP3    H153587   2.036   3.182  15.400 -1.9964 -0.1633  2.4343
10724TIP3    H253588   2.139   3.292  15.409 -0.1885 -1.3532 -2.1707
10725TIP3   OH253589   0.610   6.613  11.801 -0.7759  0.4173 -0.8518
10725TIP3    H153590   0.625   6.526  11.764 -0.0222  0.9049 -1.7232
10725TIP3    H253591   0.660   6.672  11.744  1.6104  1.0445  1.7721
10726TIP3   OH253592   0.527   1.826   6.283  0.3107 -0.0679 -0.2010
10726TIP3    H153593   0.558   1.735   6.275  0.5720  0.0926 -1.1365
10726TIP3    H253594   0.440   1.825   6.244  0.8156  0.3291 -1.3876
10727TIP3   OH253595   4.270   4.580  11.500  0.1679 -0.6571 -0.0574
10727TIP3    H153596   4.237   4.505  11.449  0.9343 -0.6370 -0.5807
10727TIP3    H253597   4.192   4.614  11.544 -0.3010 -1.3772 -0.3150
10728TIP3   OH253598   2.824   5.520  13.466  0.0469  0.3006 -0.2627
10728TIP3    H153599   2.918   5.525  13.449 -0.0358 -0.1239 -0.8642
10728TIP3    H253600   2.798   5.435  13.429 -0.4033  0.0157  0.6879
10729TIP3   OH253601   2.335   3.473   0.084  0.2467  0.1867  0.1613
10729TIP3    H153602   2.374   3.498  -0.000  0.1681  0.1339  0.1089
10729TIP3    H253603   2.395   3.508   0.149  1.2785 -1.3725  0.0647
10730TIP3   OH253604   0.644   2.686  15.875 -0.9357  0.7599  0.2648
10730TIP3    H153605   0.704   2.760  15.867  0.9457 -0.4981  2.1201
10730TIP3    H253606   0.597   2.701  15.957 -0.6902  0.0063  0.5504
10731TIP3   OH253607   4.159   4.847   1.221 -0.5140 -0.1921  0.4406
10731TIP3    H153608   4.202   4.808   1.296 -1.0689 -0.2674  0.7231
10731TIP3    H253609   4.163   4.941   1.237  0.5511 -0.1429 -0.0916
10732TIP3   OH253610   0.360   5.195   0.584  0.2275 -0.1273 -0.6610
10732TIP3    H153611   0.338   5.170   0.494 -0.4303  0.9806 -0.8197
10732TIP3    H253612   0.452   5.170   0.595 -0.2600 -2.1659 -0.9555
10733TIP3   OH253613   6.388   0.124  13.467 -0.1692  0.0385  0.1910
10733TIP3    H153614   6.303   0.162  13.488 -0.7464 -0.6872 -0.7523
10733TIP3    H253615   6.386   0.114  13.372  0.7567 -0.4926  0.2230
10734TIP3   OH253616   2.720   2.410   1.801  0.1116  0.1344 -0.4525
10734TIP3    H153617   2.636   2.454   1.817  0.6781  0.7778  0.8544
10734TIP3    H253618   2.703   2.352   1.727 -1.3447  0.6532 -0.5465
10735TIP3   OH253619   4.030   5.538  15.035  0.4380 -0.6823  0.3017
10735TIP3    H153620   3.949   5.569  15.074  0.5514  0.2959 -0.2212
10735TIP3    H253621   4.025   5.443  15.042 -0.2411 -0.5817  1.2758
10736TIP3   OH253622   2.043   0.415  15.213 -0.4583  0.1933 -0.0961
10736TIP3    H153623   2.115   0.376  15.263 -0.2148  1.7899  0.8215
10736TIP3    H253624   2.046   0.371  15.128 -1.8882 -3.7453  1.7859
10737TIP3   OH253625   0.948   1.351  16.182 -0.0687  0.4114  0.0255
10737TIP3    H153626   0.873   1.406  16.160  1.6361  1.9505 -2.1808
10737TIP3    H253627   1.025   1.403  16.155  1.6760 -2.0292  0.1280
10738TIP3   OH253628   3.020   4.028  16.989 -0.5700 -0.1833 -0.4920
10738TIP3    H153629   2.966   3.951  17.007  0.2047 -0.6448 -0.1438
10738TIP3    H253630   3.085   3.998  16.926 -1.6746  0.7809 -2.1210
10739TIP3   OH253631   0.027   6.584  16.019 -0.5070  0.0611  0.3058
10739TIP3    H153632   0.063   6.572  15.931 -0.9115 -0.1813  0.1679
10739TIP3    H253633  -0.060   6.621  16.004 -0.1929  0.9402  0.6467
10740TIP3   OH253634   5.118   6.013   5.450 -0.0142 -0.2563 -0.1927
10740TIP3    H153635   5.192   6.004   5.389 -0.6396 -1.4448 -0.7836
10740TIP3    H253636   5.144   5.962   5.526 -0.4253 -1.0512 -0.5864
10741TIP3   OH253637   4.390   5.839  14.573  0.7062 -0.1083  0.2563
10741TIP3    H153638   4.341   5.826  14.654 -2.9454 -0.1385 -1.8456
10741TIP3    H253639   4.393   5.752  14.533 -2.0840  0.8072 -2.0598
10742TIP3   OH253640   5.835   1.589   2.282 -0.4649  0.3585  0.0919
10742TIP3    H153641   5.890   1.657   2.321 -0.2758  1.7855 -2.4867
10742TIP3    H253642   5.752   1.595   2.329  1.1521 -1.0746  3.2854
10743TIP3   OH253643   5.233   3.851   3.802 -0.4240 -0.0338  0.5899
10743TIP3    H153644   5.175   3.799   3.745 -1.2685  0.8410  0.6482
10743TIP3    H253645   5.240   3.798   3.881  2.7895 -2.5094 -1.1950
10744TIP3   OH253646   6.018   1.570   2.824  0.2599  0.1549  0.3315
10744TIP3    H153647   5.937   1.583   2.775 -0.0579 -3.3982 -0.2049
10744TIP3    H253648   5.992   1.514   2.898  2.2048 -1.1030  0.0910
10745TIP3   OH253649   4.997   5.381  14.352  0.2017  0.3575 -0.3401
10745TIP3    H153650   4.981   5.404  14.260  1.2688  0.8302 -0.4101
10745TIP3    H253651   5.090   5.361  14.356  0.2476  0.7570  0.7400
10746TIP3   OH253652   6.097   3.161  12.503  0.1488  0.1673  0.4069
10746TIP3    H153653   6.018   3.215  12.506  0.5428  0.7739  0.0700
10746TIP3    H253654   6.150   3.201  12.434  0.1394 -1.0853 -0.3349
10747TIP3   OH253655   6.361   6.114   3.873  0.4821  0.0456 -0.0246
10747TIP3    H153656   6.366   6.105   3.969 -0.2010  1.1826  0.1283
10747TIP3    H253657   6.445   6.082   3.842 -0.3894 -3.1232  0.7379
10748TIP3   OH253658   3.316   4.593   2.687  0.6152  0.5497 -0.4488
10748TIP3    H153659   3.320   4.614   2.594 -0.6098  1.2647 -0.3491
10748TIP3    H253660   3.242   4.533   2.695  1.6115 -0.6711 -0.1350
10749TIP3   OH253661   2.742   0.401   3.128  0.1276  0.2357 -0.1248
10749TIP3    H153662   2.821   0.377   3.176  0.8161  0.4390 -1.1329
10749TIP3    H253663   2.723   0.491   3.156  1.3770  0.8922 -1.3118
10750TIP3   OH253664   0.109   2.439   5.687 -0.0661  0.1270  0.2465
10750TIP3    H153665   0.050   2.401   5.752  0.8815 -1.3109  0.2899
10750TIP3    H253666   0.169   2.368   5.665 -0.7803  0.3821 -2.6937
10751TIP3   OH253667   4.943   1.057   4.106  0.5637 -0.3975  0.1854
10751TIP3    H153668   4.981   0.973   4.080 -0.1085 -0.7885  0.4635
10751TIP3    H253669   4.899   1.039   4.189 -0.7389 -0.0797 -0.4233
10752TIP3   OH253670   6.698   0.087  16.400  0.5071  0.0881  0.6818
10752TIP3    H153671   6.706   0.131  16.316  0.2534  1.4348  1.3559
10752TIP3    H253672   6.648   0.008  16.380 -0.7068  1.0573 -0.2118
10753TIP3   OH253673   4.018   4.501   2.034 -0.0867 -0.1280 -0.1292
10753TIP3    H153674   4.110   4.528   2.038  0.7668 -2.7899 -0.9910
10753TIP3    H253675   4.000   4.495   1.940 -0.6643 -1.1532  0.0491
10754TIP3   OH253676   6.649   1.908   2.268 -0.0923  0.2373 -0.4751
10754TIP3    H153677   6.557   1.888   2.286  0.1164  0.0339  0.3676
10754TIP3    H253678   6.668   1.987   2.319 -0.3935  1.5393 -2.3452
10755TIP3   OH253679   4.954   3.916  12.132 -0.7643  0.0610 -0.2615
10755TIP3    H153680   4.876   3.951  12.089  0.0890 -0.4759 -2.2736
10755TIP3    H253681   5.017   3.901  12.061  0.4192 -1.5204  1.0813
10756TIP3   OH253682   6.199   0.902  14.183 -0.3093 -0.0595 -0.6265
10756TIP3    H153683   6.111   0.894  14.221  0.1325  1.4401  0.7690
10756TIP3    H253684   6.229   0.811  14.174 -0.4444 -0.4803  2.6258
10757TIP3   OH253685   5.040   1.502  11.285  0.5767  0.1146 -0.3736
10757TIP3    H153686   5.059   1.409  11.267 -0.4300 -0.7653  2.7616
10757TIP3    H253687   4.990   1.531  11.209  0.7097 -1.9788 -1.3211
10758TIP3   OH253688   6.672   1.980  16.057 -0.1795  0.3720  0.7040
10758TIP3    H153689   6.668   1.973  15.961  1.2775  1.9534  0.4875
10758TIP3    H253690   6.657   1.891  16.088  0.1753 -0.3315 -1.0350
10759TIP3   OH253691   3.130   3.384  15.853 -0.4900 -0.5927 -0.4607
10759TIP3    H153692   3.204   3.396  15.913 -1.9649 -0.3502  1.3685
10759TIP3    H253693   3.114   3.290  15.854 -1.3301 -0.4495  0.5658
10760TIP3   OH253694   4.138   2.298  16.707 -0.0441 -0.4907 -0.2378
10760TIP3    H153695   4.047   2.305  16.734  0.1222  0.8020  0.0408
10760TIP3    H253696   4.140   2.339  16.620  0.2087 -0.8182 -0.3866
10761TIP3   OH253697   5.929   6.055  12.466  0.4393  0.2042  0.0959
10761TIP3    H153698   5.977   5.989  12.417  0.0370  0.5399 -0.7689
10761TIP3    H253699   5.838   6.024  12.464  0.4234  0.2127  0.6480
10762TIP3   OH253700   6.670   6.763   2.036  0.0183  0.4165  0.6338
10762TIP3    H153701   6.679   6.857   2.050  0.4285  0.2919  1.2180
10762TIP3    H253702   6.576   6.748   2.027 -0.2112  0.5961  2.5371
10763TIP3   OH253703   5.250   0.352  15.234  0.2404 -0.1869  0.0590
10763TIP3    H153704   5.209   0.267  15.248  1.6776 -0.9306 -0.0874
10763TIP3    H253705   5.312   0.361  15.307 -0.8352  1.3433  0.8272
10764TIP3   OH253706   1.901   5.957   5.032  0.0121 -0.5347 -0.7815
10764TIP3    H153707   1.930   6.043   5.004 -1.5326  0.8530  1.7369
10764TIP3    H253708   1.862   5.918   4.953 -2.5875  2.5224 -1.0917
10765TIP3   OH253709   2.346   0.385  12.702  0.2555  0.3179  0.2259
10765TIP3    H153710   2.372   0.319  12.766  0.7909 -0.6613 -1.0001
10765TIP3    H253711   2.269   0.427  12.742 -0.7574 -1.7556  0.5352
10766TIP3   OH253712   1.382   4.582  12.514  0.4733 -0.4191  0.2201
10766TIP3    H153713   1.287   4.585  12.523  0.5225  3.0567  0.0939
10766TIP3    H253714   1.414   4.568  12.603 -0.1035 -0.0761  0.4854
10767TIP3   OH253715   2.936   3.954  12.099  0.4438 -0.5610 -0.1374
10767TIP3    H153716   2.882   3.909  12.163  1.7779 -2.4310 -0.2915
10767TIP3    H253717   2.875   4.014  12.054 -1.0103 -1.0474  1.1355
10768TIP3   OH253718   5.578   5.163   5.911 -0.6018  0.3605 -0.1814
10768TIP3    H153719   5.486   5.148   5.889 -0.9179  1.2339  0.5187
10768TIP3    H253720   5.590   5.258   5.898  0.8513 -0.1198 -2.7319
10769TIP3   OH253721   3.533   2.686   5.610 -0.1950  0.0108  0.5174
10769TIP3    H153722   3.446   2.724   5.618  0.3951  1.6543 -0.7390
10769TIP3    H253723   3.543   2.666   5.517  0.1236 -1.7848  0.9061
10770TIP3   OH253724   2.689   2.610  16.872 -0.2117  0.0589  0.0458
10770TIP3    H153725   2.674   2.697  16.909  2.3053  0.7918 -0.5857
10770TIP3    H253726   2.705   2.626  16.779 -1.4879 -1.2763 -0.4253
10771TIP3   OH253727   1.206   5.675  15.597  0.0216  0.3055 -0.0177
10771TIP3    H153728   1.242   5.586  15.597  1.5631  0.9080 -0.4414
10771TIP3    H253729   1.190   5.694  15.689 -1.8825 -1.0150 -0.0524
10772TIP3   OH253730   4.204   3.691  14.638  0.0474 -0.1267  0.2019
10772TIP3    H153731   4.122   3.643  14.628 -0.1334  0.1177  0.5057
10772TIP3    H253732   4.242   3.692  14.550 -0.7515  0.5982 -0.1375
10773TIP3   OH253733   2.131   3.234   2.480 -0.0830  0.0793  0.4521
10773TIP3    H153734   2.056   3.242   2.420  0.5060 -0.2994 -0.3528
10773TIP3    H253735   2.204   3.214   2.422  0.9835  2.1769  1.0338
10774TIP3   OH253736   2.527   4.361  11.409 -0.5342 -0.0424 -0.5748
10774TIP3    H153737   2.528   4.443  11.459 -1.9551 -0.8462  0.8178
10774TIP3    H253738   2.436   4.349  11.384 -0.4256 -1.4584 -0.3400
10775TIP3   OH253739   5.741   0.950   3.309 -0.5164  0.7939  0.1882
10775TIP3    H153740   5.693   0.906   3.379 -1.6748  0.5307 -0.7625
10775TIP3    H253741   5.675   1.003   3.264  0.2212  0.9629 -0.7051
10776TIP3   OH253742   6.039   4.356  12.628  0.1260  0.6392  0.5433
10776TIP3    H153743   6.046   4.399  12.543  0.0756  0.0598  0.2426
10776TIP3    H253744   6.105   4.287  12.625 -1.2234 -0.6592  0.2119
10777TIP3   OH253745   0.218   6.619   1.247 -0.4272  0.1329  0.1818
10777TIP3    H153746   0.163   6.629   1.324 -0.5825 -0.0224  0.0928
10777TIP3    H253747   0.231   6.524   1.239  0.3367  0.2052  0.5391
10778TIP3   OH253748   5.270   1.405  13.570  0.0303 -0.4477  0.9063
10778TIP3    H153749   5.350   1.458  13.564  0.0719 -0.5167  0.8557
10778TIP3    H253750   5.290   1.339  13.637  1.3020 -2.7148 -1.6324
10779TIP3   OH253751   3.471   5.412  15.523  0.2276  0.1441  0.1974
10779TIP3    H153752   3.509   5.331  15.555 -0.9588 -1.1839 -1.6620
10779TIP3    H253753   3.377   5.395  15.519  0.2197  0.6204 -2.8221
10780TIP3   OH253754   3.041   3.970   4.386  0.2548  0.5342  0.4476
10780TIP3    H153755   3.054   4.023   4.465  0.1561 -2.1393  2.3200
10780TIP3    H253756   3.022   3.882   4.419 -0.1930 -0.5534 -2.5712
10781TIP3   OH253757   4.392   6.314  11.822 -0.4993  0.3828 -0.6055
10781TIP3    H153758   4.408   6.251  11.752  2.3241  0.2983  0.0403
10781TIP3    H253759   4.356   6.391  11.778 -0.3888 -0.3062 -1.9101
10782TIP3   OH253760   1.474   1.005   1.924  0.2560 -0.1131  0.4734
10782TIP3    H153761   1.503   1.018   1.834 -0.2554 -0.6458  0.2265
10782TIP3    H253762   1.451   1.093   1.955 -2.4640 -0.2531 -0.9337
10783TIP3   OH253763   6.662   3.157  13.098  0.2922  0.1426  0.4844
10783TIP3    H153764   6.713   3.226  13.057 -0.2138 -0.4498 -1.2167
10783TIP3    H253765   6.727   3.094  13.130  0.6878 -0.0650 -0.6815
10784TIP3   OH253766   2.795   4.828  16.258 -0.2989 -0.1272  0.1420
10784TIP3    H153767   2.717   4.885  16.251  0.1888  0.3933 -1.1225
10784TIP3    H253768   2.863   4.886  16.294 -0.9277 -1.0202  2.9015
10785TIP3   OH253769   4.954   0.223  11.449  0.5381 -0.5373  0.2192
10785TIP3    H153770   4.891   0.208  11.520  0.1147  1.5131  0.2954
10785TIP3    H253771   4.906   0.202  11.369 -0.5069  1.6868  0.2249
10786TIP3   OH253772   4.964   0.497  16.252 -0.0454  0.5748 -0.2790
10786TIP3    H153773   4.908   0.419  16.245  0.0160  0.4784  0.2867
10786TIP3    H253774   5.009   0.487  16.336  1.0564  0.5023 -0.8643
10787TIP3   OH253775   2.820   2.378   4.625  0.0709  0.1340 -0.2564
10787TIP3    H153776   2.803   2.288   4.652  0.3292  0.2751  0.3856
10787TIP3    H253777   2.878   2.413   4.693 -0.4464  0.9400 -0.2220
10788TIP3   OH253778   1.372   1.302  12.043 -0.0355  0.0000 -0.2766
10788TIP3    H153779   1.280   1.299  12.071  0.4340 -2.2864  1.2110
10788TIP3    H253780   1.409   1.376  12.090 -0.3316 -1.1322  1.8154
10789TIP3   OH253781   5.924   1.583   3.865  0.2291  0.9630 -0.2441
10789TIP3    H153782   5.896   1.613   3.778 -0.1166  2.3338  0.3228
10789TIP3    H253783   6.016   1.608   3.870  0.5540 -0.1239 -0.6373
10790TIP3   OH253784   3.426   1.820   5.606 -0.0868  0.1166  0.2541
10790TIP3    H153785   3.489   1.766   5.558  0.2724  1.2035 -0.5238
10790TIP3    H253786   3.474   1.849   5.684 -0.0975 -0.2383  0.3920
10791TIP3   OH253787   5.517   4.989   2.228  0.4490  0.2969  0.2371
10791TIP3    H153788   5.511   4.954   2.138 -2.3172  1.6632 -0.1451
10791TIP3    H253789   5.556   5.075   2.217 -0.7968  0.8625  0.2344
10792TIP3   OH253790   3.548   5.249   1.459  0.7377 -0.4982 -0.3347
10792TIP3    H153791   3.632   5.285   1.433  0.5464  0.0085 -0.2622
10792TIP3    H253792   3.511   5.212   1.379  0.8728 -0.4046 -0.4391
10793TIP3   OH253793   1.508   1.535   6.585  0.0767 -0.5314  0.0679
10793TIP3    H153794   1.553   1.590   6.650 -1.5373  1.2003 -0.2656
10793TIP3    H253795   1.512   1.586   6.504 -3.4305  0.1532  0.2847
10794TIP3   OH253796   5.275   0.336  16.497  0.2581  0.3396 -0.4266
10794TIP3    H153797   5.230   0.303  16.420  1.8686 -1.1432 -0.7599
10794TIP3    H253798   5.249   0.278  16.568 -2.7345  2.8343  0.6275
10795TIP3   OH253799   6.203   5.969   5.012  0.4632 -0.3620 -0.4714
10795TIP3    H153800   6.244   5.894   5.055  1.4626 -1.0322 -2.5338
10795TIP3    H253801   6.110   5.946   5.009  0.5652 -0.8862  0.1703
10796TIP3   OH253802   1.819   5.302   2.697  0.6635  0.5904  0.0238
10796TIP3    H153803   1.912   5.309   2.715  0.1895  0.5598  2.7244
10796TIP3    H253804   1.791   5.223   2.744 -0.8351  0.9939 -0.1439
10797TIP3   OH253805   3.854   4.556   3.638  0.0284  0.1550  0.3631
10797TIP3    H153806   3.912   4.494   3.681  1.1963  0.2799 -0.9921
10797TIP3    H253807   3.769   4.543   3.679  0.7597 -0.8305  1.5770
10798TIP3   OH253808   2.690   5.327  13.059  0.3132 -0.2293 -0.3108
10798TIP3    H153809   2.694   5.232  13.053  2.4844 -0.1856 -0.1105
10798TIP3    H253810   2.744   5.358  12.986  0.6015  0.8102  0.3307
10799TIP3   OH253811   0.274   1.050   3.819 -0.1154 -0.3130  0.9586
10799TIP3    H153812   0.356   1.049   3.868  0.4746 -0.1663 -0.0141
10799TIP3    H253813   0.253   0.958   3.804 -0.2539 -0.3562  1.4008
10800TIP3   OH253814   2.442   5.249   6.333  0.2066 -0.3110  0.4034
10800TIP3    H153815   2.440   5.161   6.370  1.0411  0.0639  1.3514
10800TIP3    H253816   2.377   5.246   6.262  1.7582 -2.3488 -1.0355
10801TIP3   OH253817   5.446   0.163   4.537 -0.5477  0.2399 -0.5758
10801TIP3    H153818   5.481   0.190   4.621 -1.4895  1.8682 -0.6639
10801TIP3    H253819   5.498   0.087   4.511  1.5335  1.3794  0.2010
10802TIP3   OH253820   0.192   3.530   0.543  0.2201  0.4073 -0.1695
10802TIP3    H153821   0.182   3.529   0.448 -0.9066  1.6031 -0.0751
10802TIP3    H253822   0.192   3.437   0.568 -0.4407  0.1121 -1.2303
10803TIP3   OH253823   5.091   2.101   6.396  0.1926 -0.4174  0.1466
10803TIP3    H153824   5.009   2.119   6.442  1.0887  0.8723  1.2811
10803TIP3    H253825   5.124   2.020   6.436 -0.8007 -1.2753 -0.7285
10804TIP3   OH253826   4.450   1.227  11.911  0.9448 -0.0658  0.5671
10804TIP3    H153827   4.505   1.301  11.884 -0.7794  0.9957 -0.1613
10804TIP3    H253828   4.429   1.181  11.830  0.5782 -0.3343  0.8134
10805TIP3   OH253829   5.408   3.415  15.284  0.4964 -0.3597 -0.1309
10805TIP3    H153830   5.364   3.396  15.201 -0.7276 -0.3064  0.4958
10805TIP3    H253831   5.411   3.331  15.329 -0.1775 -0.1029  0.3987
10806TIP3   OH253832   6.757   6.705  15.324  0.1888 -0.0157 -0.1889
10806TIP3    H153833   6.676   6.755  15.329  0.3038  0.3431 -1.8508
10806TIP3    H253834   6.801   6.724  15.407 -0.3778  1.5984 -0.2379
10807TIP3   OH253835   1.197   3.460  13.546  0.0884  0.1286 -0.4927
10807TIP3    H153836   1.169   3.409  13.469 -0.4378  0.4610 -0.5278
10807TIP3    H253837   1.127   3.524  13.558  0.2186  0.1392  0.2114
10808TIP3   OH253838   1.898   0.238   2.557  0.1953  0.2718  0.2710
10808TIP3    H153839   1.919   0.329   2.537 -1.4910  1.0333  1.8808
10808TIP3    H253840   1.973   0.206   2.607  1.6790  0.1482 -1.9355
10809TIP3   OH253841   5.690   6.439   5.768  0.0455  0.1730 -0.8933
10809TIP3    H153842   5.728   6.361   5.808  0.9069 -0.2462 -2.5091
10809TIP3    H253843   5.626   6.406   5.705 -1.5701  0.8380  0.3340
10810TIP3   OH253844   1.679   3.943   2.208 -0.1969 -0.3629 -0.0083
10810TIP3    H153845   1.637   4.007   2.266  1.3054  0.8697 -0.2605
10810TIP3    H253846   1.752   3.990   2.168 -0.0083 -1.7769 -1.4089
10811TIP3   OH253847   2.490   2.895  13.355 -0.1955  0.1149  0.2268
10811TIP3    H153848   2.507   2.975  13.304 -1.3340 -0.2968 -0.7991
10811TIP3    H253849   2.574   2.875  13.396 -0.1498  2.4603  1.3834
10812TIP3   OH253850   2.810   6.126   4.376 -0.3312  0.1433 -0.3544
10812TIP3    H153851   2.717   6.147   4.377 -0.6224 -1.0440 -1.1662
10812TIP3    H253852   2.835   6.119   4.468 -1.2212 -0.2579 -0.1441
10813TIP3   OH253853   2.803   3.870  14.588 -0.2238  0.2809  0.0953
10813TIP3    H153854   2.762   3.957  14.584 -0.3991  0.2434  0.9546
10813TIP3    H253855   2.763   3.822  14.516 -0.3369  0.8276 -0.2124
10814TIP3   OH253856   1.459   0.149   5.062 -0.1563 -0.0723 -0.1565
10814TIP3    H153857   1.545   0.133   5.023 -0.3650 -0.7420 -0.3348
10814TIP3    H253858   1.478   0.197   5.143  0.4340 -0.8996  0.1992
10815TIP3   OH253859   6.645   1.501   1.711  0.0477  0.0536 -0.2903
10815TIP3    H153860   6.739   1.505   1.695  0.8495 -3.0699  2.9605
10815TIP3    H253861   6.637   1.505   1.806 -3.1606  0.7453 -0.5376
10816TIP3   OH253862   5.474   2.720   3.586 -0.0654 -0.0308 -0.0911
10816TIP3    H153863   5.558   2.709   3.630 -1.3497 -2.2163  1.9006
10816TIP3    H253864   5.452   2.633   3.553 -2.1522  0.2391  0.5296
10817TIP3   OH253865   0.579   4.881  15.289  0.2780  0.2949 -0.1141
10817TIP3    H153866   0.612   4.919  15.371  2.3616 -1.5696 -0.0394
10817TIP3    H253867   0.501   4.832  15.315  1.6748 -1.3930  1.0325
10818TIP3   OH253868   4.045   2.513  13.597 -0.2236  0.8446  0.2693
10818TIP3    H153869   4.075   2.465  13.674  0.2234  1.4566  0.4878
10818TIP3    H253870   4.077   2.603  13.612 -1.0377  1.2038 -0.1247
10819TIP3   OH253871   0.133   1.141  16.448 -0.3530 -0.1244 -0.3935
10819TIP3    H153872   0.212   1.191  16.428 -0.8735  1.3042  0.9908
10819TIP3    H253873   0.068   1.207  16.472 -0.5632 -1.5036  3.2207
10820TIP3   OH253874   2.894   4.025  16.560 -0.4240 -0.4316 -0.3569
10820TIP3    H153875   2.954   4.028  16.486  0.9837  0.1934  0.7906
10820TIP3    H253876   2.864   3.934  16.563 -0.8185 -0.3577 -1.9403
10821TIP3   OH253877   1.542   4.705   0.733 -0.2220  0.5649 -0.3497
10821TIP3    H153878   1.539   4.692   0.638  0.3778  1.8733 -0.5714
10821TIP3    H253879   1.474   4.771   0.750 -0.1846  0.4896  0.0993
10822TIP3   OH253880   4.209   6.137  14.575  0.2916 -0.2056  0.2067
10822TIP3    H153881   4.236   6.076  14.505 -1.2013 -0.4943 -0.1345
10822TIP3    H253882   4.176   6.080  14.644 -0.3130  0.1844  0.2392
10823TIP3   OH253883   6.408   5.985  13.354  0.0722  0.7632 -0.0393
10823TIP3    H153884   6.358   6.057  13.317  0.3672  0.1703 -1.6371
10823TIP3    H253885   6.492   5.987  13.308  0.4749  0.0551  0.6404
10824TIP3   OH253886   1.459   2.835   5.702  0.1381  0.2476  0.0595
10824TIP3    H153887   1.374   2.837   5.658  0.6126  1.8521 -0.8148
10824TIP3    H253888   1.516   2.783   5.644  0.2561  0.7524 -0.2742
10825TIP3   OH253889   4.203   0.140   5.936 -0.5362 -0.1653  0.5682
10825TIP3    H153890   4.285   0.091   5.928  0.3367  1.4338 -0.3978
10825TIP3    H253891   4.197   0.161   6.029  0.9021  0.9871  0.4103
10826TIP3   OH253892   2.629   4.756  12.694  0.4642 -0.4240 -0.7849
10826TIP3    H153893   2.534   4.748  12.690  0.3686  0.1937  0.0478
10826TIP3    H253894   2.655   4.777  12.605  0.0826 -3.1006 -1.5637
10827TIP3   OH253895   1.495   2.408   1.298 -0.0235  0.3756  0.5936
10827TIP3    H153896   1.449   2.395   1.382 -0.5342  1.5831  0.5044
10827TIP3    H253897   1.436   2.368   1.233 -0.4948  1.0603  0.5957
10828TIP3   OH253898   4.780   1.698   0.726  0.8106  0.1151  0.4033
10828TIP3    H153899   4.827   1.693   0.810 -0.0896 -0.3875  0.8827
10828TIP3    H253900   4.797   1.613   0.685  0.3237 -0.0628  0.5731
10829TIP3   OH253901   5.566   6.129  13.727 -0.0893 -0.0555 -0.5279
10829TIP3    H153902   5.649   6.083  13.739 -0.0068 -0.4962 -2.5652
10829TIP3    H253903   5.513   6.104  13.802  0.6565 -1.9317 -0.6057
10830TIP3   OH253904   6.496   5.172   1.809  0.8204  0.4146  0.2267
10830TIP3    H153905   6.492   5.264   1.835  2.4163  0.8742 -1.1190
10830TIP3    H253906   6.528   5.174   1.719 -1.3141 -1.3447 -0.6042
10831TIP3   OH253907   1.503   0.006   4.247 -0.3678 -0.5104 -0.0725
10831TIP3    H153908   1.582   0.017   4.195 -1.2417  1.7152 -1.0163
10831TIP3    H253909   1.474  -0.083   4.230  0.4256 -0.4346 -1.8897
10832TIP3   OH253910   5.066   1.453  12.482  1.0845  0.7446 -0.1945
10832TIP3    H153911   5.073   1.537  12.527 -0.2777  0.5246  0.4515
10832TIP3    H253912   5.122   1.462  12.405  0.6045  2.3927 -0.3573
10833TIP3   OH253913   0.734   4.013   3.132  0.1777 -0.2031  0.2127
10833TIP3    H153914   0.707   4.100   3.161 -3.1681 -1.0732 -0.1004
10833TIP3    H253915   0.673   3.990   3.062  0.5654 -3.0777  0.7176
10834TIP3   OH253916   4.168   1.485  11.245  0.2985 -0.0208 -0.0186
10834TIP3    H153917   4.225   1.561  11.257 -0.1011  0.0721  1.3480
10834TIP3    H253918   4.211   1.414  11.293  0.7947 -0.7539 -1.4800
10835TIP3   OH253919   0.058   5.897  16.278  0.7721 -0.3234  0.3423
10835TIP3    H153920  -0.004   5.963  16.250  0.9803 -0.2851 -0.0395
10835TIP3    H253921   0.087   5.856  16.196 -1.0243 -2.4011  0.6974
10836TIP3   OH253922   0.536   6.449   4.119  0.1771  0.0974  0.1378
10836TIP3    H153923   0.515   6.359   4.142  2.6240  0.1924  3.1433
10836TIP3    H253924   0.453   6.496   4.125 -0.9555 -1.7796 -0.5845
10837TIP3   OH253925   3.855   4.428   2.925  0.1262  0.0388 -0.5001
10837TIP3    H153926   3.822   4.362   2.986 -1.3657  0.6821 -0.5744
10837TIP3    H253927   3.885   4.379   2.849 -1.1751 -0.5528 -0.6494
10838TIP3   OH253928   5.849   1.294  12.971  0.4064  0.4330 -0.4321
10838TIP3    H153929   5.861   1.336  13.056  0.3523 -0.7752  0.1963
10838TIP3    H253930   5.756   1.304  12.951  0.0128 -0.9740  0.5968
10839TIP3   OH253931   0.167   3.399  11.464  0.1015  0.0567 -0.2183
10839TIP3    H153932   0.087   3.347  11.468  0.0076  0.2348  0.3141
10839TIP3    H253933   0.223   3.353  11.401  0.1713 -0.9085  0.5310
10840TIP3   OH253934   0.331   2.552  15.917  0.0613 -0.5523 -0.4059
10840TIP3    H153935   0.314   2.492  15.989  0.9119 -0.9080 -0.4965
10840TIP3    H253936   0.426   2.565  15.918 -0.0852  0.6162 -0.5265
10841TIP3   OH253937   3.235   5.170   3.392 -0.0711  0.2045 -0.0701
10841TIP3    H153938   3.326   5.141   3.400 -0.3056 -0.9670 -1.5246
10841TIP3    H253939   3.206   5.136   3.308 -1.4927  1.6014 -0.1655
10842TIP3   OH253940   4.891   0.243  13.804  0.0055  0.5431 -0.4749
10842TIP3    H153941   4.845   0.206  13.880  0.7365  1.8468  0.6179
10842TIP3    H253942   4.958   0.179  13.783 -0.5480 -0.0786 -0.3596
10843TIP3   OH253943   4.359   1.550   4.357  0.0595 -0.5394  0.1344
10843TIP3    H153944   4.367   1.534   4.263 -0.5867 -1.0797  0.1720
10843TIP3    H253945   4.378   1.466   4.398  1.2768 -0.0901  0.5397
10844TIP3   OH253946   0.947   4.850  16.547 -0.3182  0.1162  0.3939
10844TIP3    H153947   0.951   4.758  16.520  1.9473  0.6341 -1.1656
10844TIP3    H253948   1.005   4.855  16.623 -0.6045  0.2207  0.6053
10845TIP3   OH253949   3.703   6.381   1.472  0.6469 -0.4196  0.2677
10845TIP3    H153950   3.665   6.358   1.556 -1.7674 -2.4589 -1.3104
10845TIP3    H253951   3.707   6.299   1.424 -0.0385  1.0232 -2.3892
10846TIP3   OH253952   4.367   0.756  16.114 -0.0123  0.1626  0.1300
10846TIP3    H153953   4.410   0.770  16.199  0.5510  1.7164 -0.3885
10846TIP3    H253954   4.438   0.727  16.057 -0.0495  0.7165 -0.2063
10847TIP3   OH253955   0.074   2.725  16.163  0.0572  0.2224 -0.8270
10847TIP3    H153956  -0.008   2.771  16.144 -0.9172 -1.3796 -0.6147
10847TIP3    H253957   0.062   2.638  16.125  0.5684 -0.9285  1.5324
10848TIP3   OH253958   4.724   3.358   5.779  1.2682  0.1641  0.1647
10848TIP3    H153959   4.708   3.290   5.845  1.4983  0.5744  0.6459
10848TIP3    H253960   4.640   3.403   5.770  0.8848 -0.6877 -0.7499
10849TIP3   OH253961   0.200   6.280  13.987  0.1327  0.8547 -0.1611
10849TIP3    H153962   0.205   6.189  14.018 -0.9763  1.2324  1.1700
10849TIP3    H253963   0.248   6.279  13.904 -2.4325 -1.6281 -1.7240
10850TIP3   OH253964   2.402   5.775   5.530 -0.4127 -0.8703  0.3208
10850TIP3    H153965   2.442   5.848   5.483 -2.6924  0.0963 -0.2254
10850TIP3    H253966   2.446   5.774   5.615  0.0064  0.8471  0.1446
10851TIP3   OH253967   5.505   3.435   5.606  0.1878 -0.0767  0.3135
10851TIP3    H153968   5.506   3.375   5.681 -0.8419  1.0137  1.2257
10851TIP3    H253969   5.419   3.420   5.566 -0.0734  0.7592  0.5428
10852TIP3   OH253970   5.053   3.168   5.011  0.6181 -0.4102 -0.0353
10852TIP3    H153971   4.968   3.126   5.021  0.6259  0.1786  2.9855
10852TIP3    H253972   5.116   3.098   5.026  0.6423 -0.3122  0.3326
10853TIP3   OH253973   2.690   2.887   4.684  0.3409  0.7037 -0.0115
10853TIP3    H153974   2.718   2.862   4.772  1.6381 -1.0708 -0.9153
10853TIP3    H253975   2.671   2.805   4.640 -0.8295  1.6102 -1.2523
10854TIP3   OH253976   5.246   4.970  13.718 -0.3395  0.7320 -0.4687
10854TIP3    H153977   5.224   4.882  13.687 -2.5557  1.1565 -0.1726
10854TIP3    H253978   5.252   5.022  13.638  0.0178  0.5296 -0.5769
10855TIP3   OH253979   5.257   0.952   1.376 -0.3504  0.1453  0.2725
10855TIP3    H153980   5.181   0.897   1.356 -1.4655  1.5989  0.4083
10855TIP3    H253981   5.319   0.933   1.306 -1.1573 -0.4757 -0.2872
10856TIP3   OH253982   3.020   0.090   4.442  0.1237  0.0250 -0.6507
10856TIP3    H153983   2.950   0.151   4.465 -0.7207 -0.8985 -0.7642
10856TIP3    H253984   3.101   0.138   4.463 -0.5511  0.7361  0.3639
10857TIP3   OH253985   5.248   1.489   5.339 -0.3931 -0.0738  0.6736
10857TIP3    H153986   5.184   1.454   5.277  0.5934 -2.2340  0.8220
10857TIP3    H253987   5.311   1.536   5.285 -1.1788  0.6344  0.3610
10858TIP3   OH253988   5.633   5.038  14.409 -0.2757 -0.2880 -0.7825
10858TIP3    H153989   5.571   5.006  14.343 -1.9063  0.7061  0.2331
10858TIP3    H253990   5.626   5.133  14.404 -1.6957 -0.2021  1.9623
10859TIP3   OH253991   4.349   4.175   4.978 -0.2645  0.5217  0.3389
10859TIP3    H153992   4.433   4.132   4.995 -0.4520  0.4785  1.1547
10859TIP3    H253993   4.344   4.246   5.042  0.8854  2.9908 -2.1771
10860TIP3   OH253994   0.606   0.017  13.131 -0.3347  0.1937  0.3751
10860TIP3    H153995   0.576  -0.025  13.051 -0.3278  0.3180  0.3071
10860TIP3    H253996   0.701   0.003  13.131 -0.5796 -1.4678  1.3327
10861TIP3   OH253997   5.192   2.195  11.851 -0.1236 -0.2492  0.1708
10861TIP3    H153998   5.280   2.182  11.816  0.1148  0.8592  0.3286
10861TIP3    H253999   5.144   2.116  11.826 -0.5122  1.2579 -4.3253
10862TIP3   OH254000   1.881   5.077  11.904  0.3413  0.5183 -0.2931
10862TIP3    H154001   1.902   5.148  11.844  0.1987  2.1815  1.6056
10862TIP3    H254002   1.966   5.038  11.925  0.5906  1.2386  0.0335
10863TIP3   OH254003   4.849   1.405  16.509 -0.4217  0.6236  0.6056
10863TIP3    H154004   4.807   1.476  16.462  1.5539  2.2889  1.2828
10863TIP3    H254005   4.898   1.448  16.579 -1.1665 -1.5998  2.5512
10864TIP3   OH254006   1.849   6.610  13.970 -0.2411  0.1401  0.1906
10864TIP3    H154007   1.806   6.693  13.994  1.2868  0.8604  0.4786
10864TIP3    H254008   1.927   6.637  13.921  1.0126 -1.0759  1.4713
10865TIP3   OH254009   0.422   3.919  14.800 -0.2837 -0.3093  0.2517
10865TIP3    H154010   0.497   3.880  14.845 -1.2686 -0.1136  2.0876
10865TIP3    H254011   0.461   3.963  14.725  1.7038  1.4753  2.2462
10866TIP3   OH254012   3.880   4.834   5.577 -0.3773 -0.0400  0.5144
10866TIP3    H154013   3.851   4.743   5.565 -1.3085  0.1651  1.1745
10866TIP3    H254014   3.799   4.883   5.589  0.2108  0.6544  1.7219
10867TIP3   OH254015   0.590   2.092  16.482  0.2868 -0.5009  0.7033
10867TIP3    H154016   0.504   2.050  16.478 -0.0850  0.3553 -1.4781
10867TIP3    H254017   0.622   2.075  16.570 -2.4561 -0.1754  1.8008
10868TIP3   OH254018   1.253   4.456  15.159  0.3865 -0.5789 -0.1613
10868TIP3    H154019   1.162   4.456  15.129  0.2560  0.0795  0.2265
10868TIP3    H254020   1.250   4.423  15.248  0.2597  1.4715  0.6136
10869TIP3   OH254021   6.126   1.205   5.478  0.5154 -0.2358 -0.0893
10869TIP3    H154022   6.122   1.233   5.386 -1.6913  0.6892  0.2663
10869TIP3    H254023   6.142   1.286   5.527 -0.3060 -0.4194  0.4908
10870TIP3   OH254024   3.778   0.562   4.670  0.2946  0.0416  0.1967
10870TIP3    H154025   3.808   0.490   4.726  0.1494  0.2462  0.5383
10870TIP3    H254026   3.824   0.639   4.703  1.2647 -0.0748 -0.8398
10871TIP3   OH254027   0.871   1.794   0.704  0.4035  0.1282  0.0307
10871TIP3    H154028   0.897   1.884   0.688 -0.9866  0.2351 -1.6694
10871TIP3    H254029   0.908   1.774   0.790  0.8324  2.2636  0.3718
10872TIP3   OH254030   6.569   2.536   4.087 -0.5063 -0.1907 -0.4098
10872TIP3    H154031   6.625   2.479   4.033  1.1506  1.8559 -0.8857
10872TIP3    H254032   6.620   2.616   4.099 -1.9920  0.4421  1.9408
10873TIP3   OH254033   5.305   5.619   4.073 -0.4296 -0.1877 -0.0092
10873TIP3    H154034   5.284   5.701   4.118  0.6918 -0.2427  0.6281
10873TIP3    H254035   5.367   5.575   4.131  2.2709  0.4450 -2.3240
10874TIP3   OH254036   4.580   5.602   1.658  0.2746 -0.4096  0.1431
10874TIP3    H154037   4.520   5.609   1.584 -0.0795  4.2143  0.7592
10874TIP3    H254038   4.667   5.599   1.619  0.0343  0.8954 -0.5023
10875TIP3   OH254039   6.253   4.365  16.342  0.2848  0.5088  0.1248
10875TIP3    H154040   6.165   4.395  16.364 -0.1624 -0.6219 -0.0561
10875TIP3    H254041   6.251   4.271  16.361  1.7991  0.6706  1.1792
10876TIP3   OH254042   3.468   4.168   3.130  0.6686  0.1276  0.0824
10876TIP3    H154043   3.393   4.161   3.189  0.3175  2.0669 -0.1002
10876TIP3    H254044   3.539   4.122   3.175 -0.6583 -1.9634  0.1450
10877TIP3   OH254045   1.825   0.150   5.780  0.0817 -0.4895 -0.1395
10877TIP3    H154046   1.860   0.174   5.865 -0.4859 -0.8996  0.2137
10877TIP3    H254047   1.834   0.055   5.776  0.3043 -0.4484 -0.6240
10878TIP3   OH254048   6.074   3.402   2.545  0.6995 -0.2111 -0.5514
10878TIP3    H154049   6.143   3.462   2.518  0.4358 -0.2186 -1.2580
10878TIP3    H254050   5.997   3.430   2.494 -0.0759  0.4111  0.9425
10879TIP3   OH254051   4.876   0.406   1.075  0.3124  0.1161  0.8654
10879TIP3    H154052   4.814   0.419   1.147 -0.6528  0.3564 -0.0019
10879TIP3    H254053   4.861   0.316   1.046 -0.9175  0.7528 -0.5328
10880TIP3   OH254054   2.000   5.693   1.155  0.5868  0.4836  0.1650
10880TIP3    H154055   1.908   5.665   1.157  0.8077 -0.2770  3.7784
10880TIP3    H254056   2.047   5.620   1.115 -0.0818 -0.1989  0.6230
10881TIP3   OH254057   2.299   0.743   1.830 -0.3855  0.3029  0.4475
10881TIP3    H154058   2.299   0.761   1.736 -0.5216  1.7341  0.7154
10881TIP3    H254059   2.392   0.736   1.852 -0.3553 -0.1346  0.1918
10882TIP3   OH254060   4.123   1.450  12.942  0.4969 -0.3447  0.3253
10882TIP3    H154061   4.121   1.476  13.034 -1.0273 -0.0765  0.2260
10882TIP3    H254062   4.070   1.516  12.897  2.2163  0.2319 -0.9316
10883TIP3   OH254063   6.117   5.873  16.424  0.0978  0.5080  0.0211
10883TIP3    H154064   6.173   5.896  16.499 -0.7867 -1.3728  1.3059
10883TIP3    H254065   6.028   5.879  16.458 -0.2663 -1.6102 -0.5137
10884TIP3   OH254066   1.414   6.045  11.494  0.0943 -0.9069  0.2463
10884TIP3    H154067   1.329   6.006  11.514 -0.0438  0.1738  1.8957
10884TIP3    H254068   1.417   6.050  11.398 -1.4008 -1.5995  0.1566
10885TIP3   OH254069   3.737   0.174  14.669 -0.3487 -0.0493 -0.1834
10885TIP3    H154070   3.749   0.249  14.728  0.5815  1.4605 -2.2218
10885TIP3    H254071   3.643   0.173  14.652 -0.4483  0.2889  0.3189
10886TIP3   OH254072   6.119   5.859  11.217  0.6673 -0.3011 -0.3288
10886TIP3    H154073   6.203   5.820  11.240 -0.4682 -0.2052  4.5746
10886TIP3    H254074   6.057   5.786  11.221 -0.0414  0.2973 -0.3377
10887TIP3   OH254075   2.606   2.616  10.536  0.4761  0.0702 -0.2110
10887TIP3    H154076   2.587   2.608  10.442  0.0264 -2.4753  0.0653
10887TIP3    H254077   2.540   2.678  10.568  0.2958  0.5603 -1.4747
10888TIP3   OH254078   1.955   5.971   4.557 -0.1853  0.2918 -0.3844
10888TIP3    H154079   1.950   5.943   4.465 -0.6600  1.0444 -0.5910
10888TIP3    H254080   1.870   5.947   4.594  0.4897 -1.2330  0.2176
10889TIP3   OH254081   0.025   5.839  13.608 -0.0236  0.0800  0.5506
10889TIP3    H154082   0.062   5.915  13.654  3.0755  0.6757 -2.6935
10889TIP3    H254083  -0.001   5.873  13.522 -0.8860 -2.0209 -0.0604
10890TIP3   OH254084   5.651   1.987  12.853  0.3641  0.0758  0.3399
10890TIP3    H154085   5.735   1.997  12.808  1.3688 -2.2820  1.6250
10890TIP3    H254086   5.596   1.939  12.791 -0.4102  2.4252 -0.8796
10891TIP3   OH254087   1.844   2.451   2.755 -0.2366  0.3352 -0.1626
10891TIP3    H154088   1.911   2.428   2.819  0.4181  0.5814 -0.7614
10891TIP3    H254089   1.778   2.499   2.806 -0.0472 -0.0431  0.4545
10892TIP3   OH254090   0.454   0.817  13.351  0.1593 -0.0157  0.2868
10892TIP3    H154091   0.410   0.854  13.274  0.7234 -0.5117 -0.2805
10892TIP3    H254092   0.526   0.878  13.369  1.5610 -1.2228 -1.1192
10893TIP3   OH254093   1.524   0.383  15.928 -0.1208  1.0480 -0.1526
10893TIP3    H154094   1.469   0.374  15.849 -1.6154  0.2291  0.9614
10893TIP3    H254095   1.543   0.476  15.933  0.3782  1.0452 -1.7514
10894TIP3   OH254096   1.172   6.067   3.105 -0.3236  0.7894 -0.0426
10894TIP3    H154097   1.115   5.992   3.091  1.9668 -0.9849 -0.2755
10894TIP3    H254098   1.238   6.060   3.036  0.6402  2.3198  0.6975
10895TIP3   OH254099   6.238   3.090   5.849  0.3804  0.1808  0.1406
10895TIP3    H154100   6.287   3.163   5.812  0.9519 -0.1982  0.1487
10895TIP3    H254101   6.212   3.120   5.936 -1.7245  1.4163 -0.8769
10896TIP3   OH254102   3.846   4.528  11.333 -0.8780 -0.0447 -0.4337
10896TIP3    H154103   3.932   4.520  11.374 -0.4365  1.3587 -1.0487
10896TIP3    H254104   3.826   4.440  11.302  1.9134  0.2430 -3.3189
10897TIP3   OH254105   1.167   5.971   3.451  0.0707  0.6019  0.4071
10897TIP3    H154106   1.194   5.964   3.542 -0.5692  3.2841  0.8477
10897TIP3    H254107   1.240   6.016   3.408 -0.2258  0.5933 -0.1040
10898TIP3   OH254108   3.209   2.575  14.976  0.8143 -0.1128  0.5126
10898TIP3    H154109   3.121   2.538  14.972  0.6240  0.2041  1.4738
10898TIP3    H254110   3.267   2.502  14.953  0.2811 -0.2047 -0.5621
10899TIP3   OH254111   1.614   2.415  15.221  0.1837 -0.1116 -0.2655
10899TIP3    H154112   1.581   2.457  15.141 -1.9241 -0.2310  0.5134
10899TIP3    H254113   1.595   2.322  15.208  0.8344 -0.2782 -0.0752
10900TIP3   OH254114   5.027   2.578  14.369 -0.3595 -0.0232 -0.6021
10900TIP3    H154115   5.093   2.574  14.438 -0.0105  0.9509 -0.8638
10900TIP3    H254116   5.060   2.646  14.309 -2.0889  1.2148 -0.2007
10901TIP3   OH254117   5.121   6.725   0.295 -0.2442 -0.2083  0.3056
10901TIP3    H154118   5.056   6.721   0.224  0.3647 -0.6345 -0.2335
10901TIP3    H254119   5.084   6.669   0.363 -0.0782 -1.0812 -0.3111
10902TIP3   OH254120   6.638   0.432  12.801 -0.1784  0.0787 -0.3994
10902TIP3    H154121   6.668   0.343  12.782  0.2116  0.3683 -1.1636
10902TIP3    H254122   6.716   0.478  12.830 -0.0291  0.6338 -1.6635
10903TIP3   OH254123   2.933   4.916  14.724  0.5425  0.1137 -0.5693
10903TIP3    H154124   3.022   4.941  14.747  1.1042 -3.0674  0.8849
10903TIP3    H254125   2.942   4.871  14.640  0.1248  0.9365 -1.0592
10904TIP3   OH254126   6.236   0.512   0.624  0.4556 -0.0941  0.6451
10904TIP3    H154127   6.272   0.518   0.535 -0.5453 -0.8775  0.1562
10904TIP3    H254128   6.202   0.599   0.642  2.1170  0.5053  0.9089
10905TIP3   OH254129   5.257   5.623  15.094  0.4141  0.2612 -0.3824
10905TIP3    H154130   5.190   5.689  15.074  0.7563  0.6932 -0.1204
10905TIP3    H254131   5.214   5.540  15.075 -0.1762  0.5360 -0.2962
10906TIP3   OH254132   1.966   1.221  12.629 -0.2828 -0.4318 -0.0583
10906TIP3    H154133   1.876   1.188  12.635  0.2555 -1.7688  0.5725
10906TIP3    H254134   2.006   1.198  12.712  1.5680 -2.5555 -1.5171
10907TIP3   OH254135   1.506   0.608  15.063 -0.8525 -0.1940 -0.1141
10907TIP3    H154136   1.588   0.587  15.019 -0.9786 -0.5363 -0.1939
10907TIP3    H254137   1.530   0.666  15.135 -0.6500  0.4423 -0.6850
10908TIP3   OH254138   5.254   5.264  14.342 -0.3341  0.2069  0.2296
10908TIP3    H154139   5.212   5.254  14.256  1.3380 -2.3528 -0.3643
10908TIP3    H254140   5.343   5.294  14.322  0.5440 -1.8294  0.9163
10909TIP3   OH254141   4.910   0.666  13.408 -0.1975  0.8070  0.5997
10909TIP3    H154142   4.962   0.707  13.339 -1.6232 -0.6992 -1.4484
10909TIP3    H254143   4.831   0.635  13.363 -1.1132 -0.3232  2.9034
10910TIP3   OH254144   4.213   6.598  13.353  0.2102 -0.1416  0.0074
10910TIP3    H154145   4.145   6.550  13.305  1.4332 -0.2676 -1.6374
10910TIP3    H254146   4.181   6.689  13.354 -0.4751 -0.3774  0.1580
10911TIP3   OH254147   4.572   6.215  16.938  0.9126  0.2499  0.5898
10911TIP3    H154148   4.546   6.284  16.998 -0.9358  0.4771 -0.4344
10911TIP3    H254149   4.570   6.257  16.851  2.7754 -0.2746  0.2726
10912TIP3   OH254150   5.281   4.742  13.041 -0.0772 -0.1324  0.1948
10912TIP3    H154151   5.199   4.702  13.072 -0.2179 -0.3818 -0.5025
10912TIP3    H254152   5.259   4.834  13.028 -0.3246 -0.2520 -0.2581
10913TIP3   OH254153   6.659   1.792   0.695  0.0664  0.3622 -0.1288
10913TIP3    H154154   6.641   1.700   0.676 -0.5994  0.3555  0.4799
10913TIP3    H254155   6.594   1.815   0.762 -0.1577  1.4352 -0.7036
10914TIP3   OH254156   4.485   6.118   1.774 -0.5709 -0.5014  0.2401
10914TIP3    H154157   4.508   6.027   1.792  1.6904 -0.3492 -1.6234
10914TIP3    H254158   4.448   6.116   1.686  0.6055  0.5141 -0.2928
10915TIP3   OH254159   0.786   6.519   0.233  0.7398 -0.2418  0.5843
10915TIP3    H154160   0.805   6.447   0.172 -1.2053 -1.7886  1.7339
10915TIP3    H254161   0.727   6.577   0.184 -1.1981 -1.7212  1.0940
10916TIP3   OH254162   2.170   0.667   0.182 -0.3424 -0.5828  0.2031
10916TIP3    H154163   2.156   0.574   0.164 -1.8588 -0.3379  0.0230
10916TIP3    H254164   2.179   0.673   0.277  0.3699 -0.9757  0.1656
10917TIP3   OH254165   1.196   2.813  13.095 -0.4162 -0.1436  0.2423
10917TIP3    H154166   1.150   2.797  13.013 -0.1054  0.2560 -0.0157
10917TIP3    H254167   1.135   2.866  13.147 -0.6322 -0.4383  0.2901
10918TIP3   OH254168   4.509   0.455   3.426  0.0206  0.1478 -0.1342
10918TIP3    H154169   4.519   0.425   3.336  0.3529  2.7408 -1.0158
10918TIP3    H254170   4.458   0.386   3.469 -0.0891 -1.1567 -2.2793
10919TIP3   OH254171   1.428   6.056   6.314  0.3432  0.3371  0.3015
10919TIP3    H154172   1.426   6.029   6.406 -0.2150 -0.6258  0.0061
10919TIP3    H254173   1.343   6.030   6.279  0.2145  1.4824 -0.2765
10920TIP3   OH254174   5.957   2.156   5.890  0.1602  0.7484  0.4588
10920TIP3    H154175   5.976   2.247   5.866  0.1038  0.9658  1.2124
10920TIP3    H254176   5.873   2.137   5.848  0.2130  1.0158  0.2296
10921TIP3   OH254177   5.377   1.854  16.862  0.0799 -0.5725  0.5903
10921TIP3    H154178   5.437   1.916  16.904 -0.4585  1.7197 -1.8076
10921TIP3    H254179   5.293   1.901  16.859  0.0335 -0.7249 -2.6305
10922TIP3   OH254180   3.585   3.452   5.409  0.1323  0.0066 -0.4793
10922TIP3    H154181   3.654   3.392   5.435 -0.7606 -1.3797 -1.2435
10922TIP3    H254182   3.507   3.421   5.455 -0.4163  0.3619 -1.1610
10923TIP3   OH254183   0.439   4.964   1.890  0.1090  0.2310  0.0788
10923TIP3    H154184   0.359   5.013   1.868 -0.3523 -0.6214 -0.1658
10923TIP3    H254185   0.503   4.991   1.824 -0.4069 -0.1513 -0.5869
10924TIP3   OH254186   0.890   3.055   4.246  0.2019  0.1173  0.0004
10924TIP3    H154187   0.850   3.029   4.329 -0.2218 -0.3545 -0.3543
10924TIP3    H254188   0.854   3.142   4.228  0.7044  0.4538  0.5754
10925TIP3   OH254189   5.467   0.888   5.951 -0.2400 -0.2685  0.6986
10925TIP3    H154190   5.389   0.943   5.957  0.7966  1.4137 -0.7501
10925TIP3    H254191   5.525   0.922   6.019  0.5622  0.7083 -0.4639
10926TIP3   OH254192   1.817   2.332   1.511 -0.4043 -0.3207  0.0058
10926TIP3    H154193   1.868   2.325   1.431  2.1152  1.5352  1.3858
10926TIP3    H254194   1.839   2.253   1.561  1.5341  0.6880  0.7942
10927TIP3   OH254195   5.752   2.953   4.087 -0.1632 -0.5461  0.2752
10927TIP3    H154196   5.801   2.872   4.072  0.4796 -0.0893 -0.0798
10927TIP3    H254197   5.794   3.017   4.031 -0.3102  0.1755  0.9824
10928TIP3   OH254198   5.736   1.457  16.587 -0.0604  0.0772  0.0027
10928TIP3    H154199   5.814   1.494  16.627 -0.3834  1.7958 -0.9073
10928TIP3    H254200   5.764   1.429  16.500 -0.7295  1.9631 -0.8570
10929TIP3   OH254201   6.153   0.416   2.042 -0.5424 -0.5504  0.3923
10929TIP3    H154202   6.235   0.387   2.001  1.2273  2.6692  1.4970
10929TIP3    H254203   6.179   0.488   2.099 -4.3213  1.1858  0.0536
10930TIP3   OH254204   0.898   1.704   1.669  0.5506 -0.0701 -0.3749
10930TIP3    H154205   0.834   1.722   1.600  0.2034  0.2633  0.0365
10930TIP3    H254206   0.974   1.671   1.622 -0.1193 -0.9895 -0.8095
10931TIP3   OH254207   2.695   4.102  11.961  0.5678 -0.5680  0.2441
10931TIP3    H154208   2.649   4.101  12.045 -0.4091  2.0973 -0.2100
10931TIP3    H254209   2.626   4.112  11.896  1.4160 -1.4037 -0.7994
10932TIP3   OH254210   2.387   1.689  17.191 -0.3947 -0.2156  0.0087
10932TIP3    H154211   2.394   1.738  17.109 -1.7994  0.3476  0.2241
10932TIP3    H254212   2.323   1.620  17.172 -0.3918 -0.3534  0.4994
10933TIP3   OH254213   4.750   5.246  15.971 -0.0406 -0.4409 -0.0452
10933TIP3    H154214   4.782   5.210  16.054  0.9408 -0.6285 -0.5023
10933TIP3    H254215   4.771   5.339  15.976 -1.0498 -0.2217  0.4089
10934TIP3   OH254216   6.350   5.349   4.253 -0.2512  0.7542  0.3119
10934TIP3    H154217   6.256   5.357   4.270 -0.1181 -0.6257  1.8876
10934TIP3    H254218   6.391   5.371   4.337  0.7809  0.3548 -0.0836
10935TIP3   OH254219   1.349   4.651   1.944 -0.6008 -0.6929 -0.6548
10935TIP3    H154220   1.260   4.616   1.952 -0.8966 -0.0039 -0.9042
10935TIP3    H254221   1.381   4.657   2.034 -0.5760 -1.5198 -0.6025
10936TIP3   OH254222   0.152   5.564  16.233 -0.0983  0.4878 -0.0402
10936TIP3    H154223   0.189   5.613  16.160  1.3237 -1.2744 -0.5210
10936TIP3    H254224   0.081   5.513  16.194  1.5887 -1.5566 -0.5036
10937TIP3   OH254225   0.657   4.123  13.821 -0.0243 -0.4698 -0.1317
10937TIP3    H154226   0.657   4.120  13.725  2.3886  0.3770 -0.1923
10937TIP3    H254227   0.703   4.042  13.847  0.3470 -0.1298  0.2710
10938TIP3   OH254228   1.661   2.122   0.583 -0.3640 -0.1261 -0.5136
10938TIP3    H154229   1.719   2.073   0.641 -1.4587 -0.4189  0.3511
10938TIP3    H254230   1.715   2.192   0.547  0.5051 -0.3721  0.3199
10939TIP3   OH254231   1.979   4.625   0.454  0.0694  0.4542  0.0034
10939TIP3    H154232   1.984   4.529   0.451 -1.2658  0.3666  0.3836
10939TIP3    H254233   2.045   4.650   0.519  0.4235 -0.1998 -0.0940
10940TIP3   OH254234   4.405   6.724  11.449  0.2242 -0.3437 -0.7686
10940TIP3    H154235   4.481   6.685  11.406  1.5389  2.0036 -0.6563
10940TIP3    H254236   4.429   6.816  11.461 -2.4029  0.2995 -0.1724
10941TIP3   OH254237   4.945   1.973   1.153 -0.0292 -0.0727  0.3685
10941TIP3    H154238   4.937   2.054   1.204  2.2992  1.1779 -1.1386
10941TIP3    H254239   5.011   1.994   1.087  0.7052 -3.2623  0.0285
10942TIP3   OH254240   1.617   4.807   6.622 -0.6272  0.3288  0.2150
10942TIP3    H154241   1.673   4.876   6.588 -1.4341  0.6069 -0.5775
10942TIP3    H254242   1.615   4.741   6.554  0.0800 -0.4500  0.9409
10943TIP3   OH254243   4.401   1.897   0.423  0.1855 -0.7312 -0.2325
10943TIP3    H154244   4.378   1.898   0.516 -0.3802  1.0396 -0.3600
10943TIP3    H254245   4.497   1.891   0.422  0.4096  2.0002  0.5597
10944TIP3   OH254246   4.152   2.519  15.858 -0.0744 -0.0220  0.2225
10944TIP3    H154247   4.239   2.548  15.834 -0.1305  0.2026  0.2916
10944TIP3    H254248   4.093   2.570  15.802 -0.1775  0.0625  0.4094
10945TIP3   OH254249   2.942   5.953  15.906  0.6639  0.6371 -0.1609
10945TIP3    H154250   2.937   6.044  15.877  0.4974  0.7537  0.2268
10945TIP3    H254251   2.996   5.909  15.840 -0.8376  0.6023 -1.4033
10946TIP3   OH254252   3.818   0.249  12.699  0.2853  0.3362 -0.7731
10946TIP3    H154253   3.804   0.232  12.606 -1.5992  2.9079 -1.0176
10946TIP3    H254254   3.729   0.256  12.735  1.0070 -0.4249  1.1975
10947TIP3   OH254255   2.627   5.508  16.338  0.1672  0.0391  0.5196
10947TIP3    H154256   2.544   5.461  16.336 -0.4468  1.0866 -2.4706
10947TIP3    H254257   2.602   5.600  16.344  1.0944  0.3521 -0.1680
10948TIP3   OH254258   6.688   2.464  12.889 -0.6203 -0.0131 -0.1190
10948TIP3    H154259   6.773   2.455  12.846  0.1123 -0.0566  1.3103
10948TIP3    H254260   6.646   2.378  12.877 -0.0802 -0.2926 -0.0031
10949TIP3   OH254261   2.504   2.317   0.824 -0.4917  0.2833 -0.2865
10949TIP3    H154262   2.599   2.324   0.823 -0.4559 -0.2648 -0.4100
10949TIP3    H254263   2.486   2.240   0.878 -0.9370  1.7902  1.7767
10950TIP3   OH254264   2.002   4.455  14.894 -0.7778  0.0855 -0.3338
10950TIP3    H154265   1.958   4.379  14.855  0.7746 -1.3207  0.5581
10950TIP3    H254266   1.994   4.440  14.989  1.1586  0.0435 -0.1517
10951TIP3   OH254267   3.648   4.035   4.802 -0.4341 -0.0070 -0.0376
10951TIP3    H154268   3.657   4.083   4.720 -1.0663  0.0319 -0.0868
10951TIP3    H254269   3.737   4.032   4.838 -0.2072  0.2391 -0.5728
10952TIP3   OH254270   4.919   6.746   0.038 -0.1372 -0.1410  0.2327
10952TIP3    H154271   4.939   6.719  -0.051 -0.0713  0.2862  0.1202
10952TIP3    H254272   4.942   6.839   0.042 -0.2913 -0.1163  0.6462
10953TIP3   OH254273   3.381   6.487   5.490  0.2307  0.4674  0.0102
10953TIP3    H154274   3.350   6.494   5.580 -0.9727  1.0164 -0.4323
10953TIP3    H254275   3.339   6.408   5.456  3.1074 -1.5044  0.8399
10954TIP3   OH254276   5.429   0.229   1.209  0.0207 -0.0069 -0.3704
10954TIP3    H154277   5.360   0.294   1.200  0.3051  0.1239 -1.6099
10954TIP3    H254278   5.477   0.257   1.287 -1.1151  0.0777  0.3241
10955TIP3   OH254279   0.643   1.262  15.885  0.0242  0.1746  0.2407
10955TIP3    H154280   0.686   1.203  15.823 -0.6981 -0.1724  0.0629
10955TIP3    H254281   0.624   1.207  15.961  1.3548  0.7189  0.9817
10956TIP3   OH254282   2.393   0.604   2.343 -0.5095 -0.1467  0.1509
10956TIP3    H154283   2.451   0.590   2.268  0.8453 -0.9212  1.3202
10956TIP3    H254284   2.391   0.699   2.354 -2.3465  0.0941 -2.1077
10957TIP3   OH254285   5.315   3.142  13.899  0.2764  0.8463  0.1818
10957TIP3    H154286   5.394   3.145  13.845  0.4033  0.9359  0.3706
10957TIP3    H254287   5.336   3.197  13.975 -0.0237  0.9939  0.1569
10958TIP3   OH254288   2.233   3.110   4.905  0.0370  0.0387 -0.4055
10958TIP3    H154289   2.305   3.070   4.856  0.0583 -0.5660  0.1211
10958TIP3    H254290   2.265   3.197   4.928  1.5365 -1.0953  1.9221
10959TIP3   OH254291   4.992   5.585  16.714 -0.4731  0.2810  0.0210
10959TIP3    H154292   5.072   5.637  16.722  0.6577 -1.7503  2.8378
10959TIP3    H254293   4.949   5.618  16.635  1.4583  3.6833  0.3213
10960TIP3   OH254294   3.728   0.477  16.130  0.2551  0.1468 -0.5921
10960TIP3    H154295   3.649   0.518  16.165  0.7455  1.5106 -1.0271
10960TIP3    H254296   3.794   0.548  16.130  1.2806 -0.7906 -0.8468
10961TIP3   OH254297   3.369   6.582  17.197  0.1492  0.2654 -0.3729
10961TIP3    H154298   3.316   6.502  17.206 -0.0793  0.2914 -1.3735
10961TIP3    H254299   3.305   6.652  17.194  0.2096  0.2819 -1.7824
10962TIP3   OH254300   2.110   1.368  10.926 -0.2483 -0.1239  0.0922
10962TIP3    H154301   2.030   1.329  10.891  0.4776 -0.8110 -0.8575
10962TIP3    H254302   2.087   1.396  11.014 -2.2300  1.9418 -1.0290
10963TIP3   OH254303   3.022   0.167   0.444  0.0904  0.8038 -0.2742
10963TIP3    H154304   2.957   0.110   0.402 -0.7138  1.3721  0.1672
10963TIP3    H254305   3.060   0.217   0.372  2.0748 -1.5132 -0.8947
10964TIP3   OH254306   5.560   4.793   3.184  0.6082  0.5561 -0.3733
10964TIP3    H154307   5.624   4.797   3.255  0.1543 -0.6814  0.1319
10964TIP3    H254308   5.480   4.829   3.222  0.1256 -0.8968  0.0486
10965TIP3   OH254309   1.834   6.257   6.452  0.5252 -0.0060 -0.1274
10965TIP3    H154310   1.905   6.266   6.388 -1.2830  0.0273 -2.1840
10965TIP3    H254311   1.874   6.282   6.535  3.4272 -1.7075 -0.8968
10966TIP3   OH254312   1.444   1.812   2.761  0.0425 -0.1202 -0.0305
10966TIP3    H154313   1.367   1.868   2.748  0.0899 -0.0322  0.0617
10966TIP3    H254314   1.518   1.871   2.753  0.0926 -0.1677  0.0753
10967TIP3   OH254315   6.509   0.711   3.562 -0.8537 -0.0115 -0.1637
10967TIP3    H154316   6.442   0.753   3.616 -0.6419  1.1549 -0.7918
10967TIP3    H254317   6.557   0.655   3.622 -0.8940  0.9382  0.7604
10968TIP3   OH254318   0.576   0.607   4.803  0.2388 -0.3030  0.8279
10968TIP3    H154319   0.489   0.646   4.796 -0.1147 -1.5271 -2.1319
10968TIP3    H254320   0.572   0.552   4.881 -1.4302  0.1523  1.0705
10969TIP3   OH254321   5.583   5.803  11.920 -0.1175  0.4953 -0.0554
10969TIP3    H154322   5.562   5.851  11.840  0.5847 -0.1792 -0.6535
10969TIP3    H254323   5.641   5.732  11.891 -0.9422 -0.5732  0.8329
10970TIP3   OH254324   2.591   6.359  11.964  0.2789  0.0553  0.0440
10970TIP3    H154325   2.671   6.313  11.988 -0.9192 -2.1323  0.0408
10970TIP3    H254326   2.575   6.420  12.036  1.9289  0.5095  0.0283
10971TIP3   OH254327   1.936   2.273  12.611  1.2534 -0.3814 -0.2004
10971TIP3    H154328   2.031   2.272  12.595  1.1537 -1.3604 -0.7765
10971TIP3    H254329   1.898   2.257  12.524  0.5948 -1.6381  0.3183
10972TIP3   OH254330   1.945   3.296  16.248 -0.0172 -0.4513 -0.8096
10972TIP3    H154331   1.856   3.331  16.244  0.9997  2.0005 -3.6638
10972TIP3    H254332   1.934   3.205  16.274 -3.1514  0.5000  1.4701
10973TIP3   OH254333   4.479   5.441  11.283 -0.2145 -0.2333 -0.0830
10973TIP3    H154334   4.406   5.382  11.266 -1.5885  1.1055  1.1114
10973TIP3    H254335   4.501   5.478  11.197 -1.7967  0.3594 -0.2385
10974TIP3   OH254336   5.660   4.943  14.007 -0.4006 -0.6432 -0.1819
10974TIP3    H154337   5.711   5.024  14.008 -2.3764  0.6174 -0.0395
10974TIP3    H254338   5.655   4.920  13.914  1.3449 -1.3981 -0.1160
10975TIP3   OH254339   0.067   4.164  16.025 -0.6074  0.0695  0.1888
10975TIP3    H154340   0.076   4.251  15.986 -0.2128  0.4614  1.1347
10975TIP3    H254341   0.045   4.106  15.952 -1.0972  1.0063 -0.4039
10976TIP3   OH254342   6.342   4.106   4.037  0.0763  0.0570  0.4714
10976TIP3    H154343   6.345   4.018   4.000 -0.5557 -0.1770  0.9595
10976TIP3    H254344   6.404   4.103   4.110  1.3713  0.5374 -0.5870
10977TIP3   OH254345   3.760   0.569   0.592  0.1173 -0.4919 -0.2429
10977TIP3    H154346   3.683   0.625   0.583 -0.3614 -1.1545 -0.2496
10977TIP3    H254347   3.832   0.630   0.609 -0.6458  0.0151  1.2025
10978TIP3   OH254348   2.928   0.442  12.669  0.2298 -0.6068  0.4676
10978TIP3    H154349   2.899   0.499  12.598  0.6236  0.7053  1.3303
10978TIP3    H254350   2.851   0.389  12.690  0.4465 -1.8591 -1.7013
10979TIP3   OH254351   2.171   0.174  14.745  0.9980 -0.5706  0.1994
10979TIP3    H154352   2.096   0.159  14.802  0.3139  0.3170 -0.4625
10979TIP3    H254353   2.242   0.198  14.804 -0.3435  2.8832  0.5250
10980TIP3   OH254354   0.145   0.448  16.215  0.4346  0.0572 -0.1046
10980TIP3    H154355   0.175   0.539  16.225  0.1249  0.0174  1.2202
10980TIP3    H254356   0.055   0.456  16.185  0.4882  0.1865 -0.2327
10981TIP3   OH254357   2.318   4.824   3.566 -0.7335 -0.1534 -0.3537
10981TIP3    H154358   2.319   4.776   3.649  0.5147 -0.6991 -0.6756
10981TIP3    H254359   2.382   4.893   3.577  0.9263 -1.4445 -1.5473
10982TIP3   OH254360   1.538   4.172  15.222 -0.4231 -0.1968  0.8584
10982TIP3    H154361   1.474   4.192  15.154  0.9165  0.3391 -0.2641
10982TIP3    H254362   1.568   4.083  15.202  0.6269  0.2970  0.2149
10983TIP3   OH254363   3.971   3.084  16.503 -1.0632 -0.6091 -0.0058
10983TIP3    H154364   3.931   3.015  16.449 -0.8667 -0.8766  0.1890
10983TIP3    H254365   4.051   3.044  16.536 -1.0229 -0.3322  0.2242
10984TIP3   OH254366   0.953   1.251  12.693 -0.3762 -0.2983 -0.0105
10984TIP3    H154367   0.986   1.306  12.764  1.4431  0.5045 -1.4487
10984TIP3    H254368   1.013   1.176  12.692  1.0678  0.8285 -2.1783
10985TIP3   OH254369   5.988   5.087   5.291  0.1556  0.0626 -0.0672
10985TIP3    H154370   6.011   5.035   5.368  0.3961 -1.4261 -1.1317
10985TIP3    H254371   6.053   5.065   5.226  0.2518  1.7097 -0.5591
10986TIP3   OH254372   6.318   5.290   6.529 -0.1628  0.3364 -0.5104
10986TIP3    H154373   6.266   5.218   6.566  1.5839 -0.0427  1.2320
10986TIP3    H254374   6.363   5.250   6.454  0.1826 -0.1721 -0.0306
10987TIP3   OH254375   4.930   5.629   3.360 -0.2263  0.3751 -0.6205
10987TIP3    H154376   4.882   5.704   3.395 -1.0765 -0.4224 -0.0498
10987TIP3    H254377   5.013   5.665   3.330 -0.2795  1.4039  0.4433
10988TIP3   OH254378   0.744   1.771   2.846  0.2359  0.0500  0.5344
10988TIP3    H154379   0.834   1.790   2.819 -0.6266  1.9975 -1.0836
10988TIP3    H254380   0.713   1.707   2.783  0.2634 -0.1324  0.7047
10989TIP3   OH254381   0.218   3.499  13.309 -0.0973  0.1444  0.1648
10989TIP3    H154382   0.130   3.461  13.316 -0.9106  1.3882 -2.3725
10989TIP3    H254383   0.235   3.536  13.395 -0.7317 -2.8537  1.6397
10990TIP3   OH254384   4.155   0.094  14.510 -0.1099  0.0390  0.3050
10990TIP3    H154385   4.193   0.175  14.543  0.3903 -0.3534  0.7190
10990TIP3    H254386   4.082   0.121  14.455 -0.4461  0.7360  1.0903
10991TIP3   OH254387   2.102   0.446  12.788  0.1679 -0.0683  0.6983
10991TIP3    H154388   2.025   0.488  12.826  0.4303  1.5283 -0.5071
10991TIP3    H254389   2.070   0.403  12.709  0.6126  1.0856 -0.1170
10992TIP3   OH254390   3.183   0.636   0.563  0.6082  0.3821 -0.3445
10992TIP3    H154391   3.238   0.703   0.605  0.7566 -0.3423  0.6365
10992TIP3    H254392   3.212   0.554   0.602  0.0079 -0.1932 -1.1030
10993TIP3   OH254393   3.560   1.177   0.518  0.2348  0.0066  0.6081
10993TIP3    H154394   3.591   1.230   0.444 -1.8726 -0.7419 -0.8798
10993TIP3    H254395   3.618   1.102   0.520 -0.3410 -0.4969 -0.9966
10994TIP3   OH254396   1.438   1.316  14.272 -0.2830 -0.1454 -1.3079
10994TIP3    H154397   1.506   1.253  14.249 -0.2175 -0.5673  0.0060
10994TIP3    H254398   1.477   1.368  14.343 -0.6911  0.7378 -1.7285
10995TIP3   OH254399   1.236   2.400  12.686  0.2218 -0.1566 -0.0675
10995TIP3    H154400   1.162   2.380  12.743  0.1272  1.8898  0.5891
10995TIP3    H254401   1.201   2.392  12.597 -0.3457 -0.7884  0.2150
10996TIP3   OH254402   3.964   1.672   2.451 -0.3042 -0.1435 -0.1111
10996TIP3    H154403   4.034   1.674   2.386 -0.6602 -1.8376 -0.5553
10996TIP3    H254404   4.007   1.696   2.533  0.6416 -0.4520 -0.5112
10997TIP3   OH254405   2.091   4.787   0.682 -0.1120  0.4417  0.6860
10997TIP3    H154406   2.002   4.787   0.645 -0.3549  0.6905  1.2738
10997TIP3    H254407   2.121   4.877   0.673  0.3840  0.2010 -0.2183
10998TIP3   OH254408   3.028   2.686   3.193  0.1799 -0.0579 -0.1365
10998TIP3    H154409   2.996   2.772   3.165  1.2117  0.0608 -0.9835
10998TIP3    H254410   3.074   2.652   3.117  0.9734 -0.7699  0.6589
10999TIP3   OH254411   2.332   4.573   0.313  0.1650  0.0134  0.3089
10999TIP3    H154412   2.346   4.644   0.375 -1.5880  1.4486 -0.8868
10999TIP3    H254413   2.414   4.569   0.262  0.3344  1.0732  0.4874
11000TIP3   OH254414   3.849   3.419  14.876  0.0950  0.4032  0.6578
11000TIP3    H154415   3.818   3.417  14.966  0.0597  0.7056  0.6523
11000TIP3    H254416   3.871   3.511  14.860  0.8331  0.2203  0.6048
11001TIP3   OH254417   6.594   5.959   6.021 -0.3818 -0.6547  0.5559
11001TIP3    H154418   6.531   5.935   6.089 -0.7840  2.6035  1.4078
11001TIP3    H254419   6.678   5.957   6.066 -0.2968 -1.3081  0.3791
11002TIP3   OH254420   0.225   4.589   0.665  0.3998  0.2945  0.7958
11002TIP3    H154421   0.269   4.508   0.638  0.5521  0.1558  1.4511
11002TIP3    H254422   0.132   4.566   0.666  0.4798 -0.0188  1.4573
11003TIP3   OH254423   0.322   5.413  13.868  0.2399 -0.0542 -0.1531
11003TIP3    H154424   0.241   5.406  13.818  0.0764 -1.8736  0.3206
11003TIP3    H254425   0.373   5.336  13.842  1.4047  0.5585  0.2764
11004TIP3   OH254426   3.365   0.925   0.692 -0.5374  0.1237  0.0410
11004TIP3    H154427   3.392   1.015   0.710 -0.2688  0.2358 -0.8978
11004TIP3    H254428   3.291   0.934   0.632 -0.9097 -0.2649  0.4379
11005TIP3   OH254429   6.593   2.800  16.136 -0.0004  0.6113 -0.2111
11005TIP3    H154430   6.527   2.775  16.073  0.0988  0.9166 -0.4394
11005TIP3    H254431   6.548   2.800  16.221 -0.1102  0.1183 -0.2704
11006TIP3   OH254432   1.839   3.190   4.898 -0.2812  0.1892  0.0742
11006TIP3    H154433   1.912   3.203   4.958  1.0692  0.7214 -1.6242
11006TIP3    H254434   1.767   3.159   4.953  1.4306 -1.0453  1.6641
11007TIP3   OH254435   5.649   4.122  15.217  0.1419  0.3082  0.4609
11007TIP3    H154436   5.615   4.199  15.262  0.3869  0.2679  0.7139
11007TIP3    H254437   5.695   4.073  15.285 -1.5474 -0.9872  0.7172
11008TIP3   OH254438   2.503   4.248  12.212 -0.2639 -0.3233  0.1785
11008TIP3    H154439   2.473   4.230  12.123 -1.1839 -1.0394  0.6252
11008TIP3    H254440   2.423   4.244  12.266  0.4780 -1.1971  1.2296
11009TIP3   OH254441   6.721   5.134  15.312  0.2210 -0.2322  0.2459
11009TIP3    H154442   6.761   5.087  15.239 -0.4651  1.4294 -1.2421
11009TIP3    H254443   6.790   5.189  15.348  0.5557 -1.0424  0.8571
11010TIP3   OH254444   6.139   2.217  11.725 -0.0029 -0.0364  0.2932
11010TIP3    H154445   6.196   2.293  11.736 -1.0585  0.8598 -0.3004
11010TIP3    H254446   6.170   2.154  11.789 -0.1050  1.5051  1.8962
11011TIP3   OH254447   6.638   1.753   0.176  0.7436 -0.0524 -0.1583
11011TIP3    H154448   6.713   1.802   0.211  0.6910 -0.4188  0.4900
11011TIP3    H254449   6.562   1.794   0.217  0.4414  1.4885 -2.2065
11012TIP3   OH254450   6.335   2.311   5.871  0.3224  0.0268  0.2901
11012TIP3    H154451   6.425   2.335   5.894 -0.2975  2.1070  0.5867
11012TIP3    H254452   6.346   2.241   5.806  2.1348 -0.1913  0.7815
11013TIP3   OH254453   0.257   2.277   5.504 -0.7489  0.4218 -0.2176
11013TIP3    H154454   0.180   2.248   5.454 -0.9796 -0.1738  0.4904
11013TIP3    H254455   0.278   2.363   5.466  0.2479 -0.8429 -2.6594
11014TIP3   OH254456   0.164   3.018  12.594  0.0788  0.6742  0.6866
11014TIP3    H154457   0.147   2.985  12.682  0.9622  0.2663  0.7117
11014TIP3    H254458   0.203   2.943  12.548 -0.2791  0.9192 -0.0163
11015TIP3   OH254459   5.946   2.313   3.874 -0.0276 -0.6391 -0.1129
11015TIP3    H154460   5.957   2.372   3.799 -1.9576  1.1613  0.9560
11015TIP3    H254461   6.014   2.247   3.862  3.4608  2.7820 -0.4327
11016TIP3   OH254462   4.169   5.093  13.862 -0.0463  0.1457 -0.8105
11016TIP3    H154463   4.254   5.135  13.852  0.0477  0.4521  1.0239
11016TIP3    H254464   4.157   5.043  13.782  2.5287 -1.0623 -0.4885
11017TIP3   OH254465   4.209   2.847  16.034 -0.1014 -0.4225  0.3168
11017TIP3    H154466   4.279   2.910  16.047 -1.1367  0.7568  0.2698
11017TIP3    H254467   4.249   2.776  15.983  1.2141 -0.0859  0.8680
11018TIP3   OH254468   1.350   1.951  13.990 -0.3030  0.0753  0.0451
11018TIP3    H154469   1.442   1.951  13.962 -0.1651  3.4388  0.2791
11018TIP3    H254470   1.341   1.872  14.043  2.0074 -1.1935 -1.3689
11019TIP3   OH254471   2.112   6.694  16.147 -0.4889  0.6781  0.4041
11019TIP3    H154472   2.032   6.652  16.116  1.2523 -1.6654 -1.0383
11019TIP3    H254473   2.106   6.691  16.242 -0.6510 -2.4256  0.3273
11020TIP3   OH254474   0.226   4.179   1.790  0.2389  0.4015 -0.1116
11020TIP3    H154475   0.182   4.094   1.793 -1.6464  1.3742  0.3306
11020TIP3    H254476   0.260   4.191   1.879  0.8110 -0.0434 -0.2681
11021TIP3   OH254477   3.918   6.218   1.191  0.4232 -0.1608 -0.1637
11021TIP3    H154478   3.907   6.136   1.239  1.0984 -0.9390 -1.3273
11021TIP3    H254479   3.829   6.244   1.167  0.2121 -0.5760  0.1578
11022TIP3   OH254480   5.977   3.718  13.596 -0.5801  0.5185  0.5619
11022TIP3    H154481   5.996   3.812  13.606  1.6990  0.0335  0.9974
11022TIP3    H254482   5.977   3.684  13.686  0.6515 -0.2548  0.2868
11023TIP3   OH254483   2.600   3.500   1.329 -0.5794 -0.3643 -0.2621
11023TIP3    H154484   2.554   3.424   1.294  2.1440 -1.5725 -1.3539
11023TIP3    H254485   2.579   3.571   1.268 -1.7373 -0.6389 -0.2033
11024TIP3   OH254486   4.016   5.813  13.755 -0.4089 -0.1565  0.0135
11024TIP3    H154487   3.946   5.852  13.808  1.1468 -0.4477  2.3228
11024TIP3    H254488   4.074   5.886  13.734  0.3729 -0.5048  0.9423
11025TIP3   OH254489   1.746   1.761   0.293 -0.3536  0.3873 -0.1428
11025TIP3    H154490   1.779   1.671   0.291  1.2927  0.9696 -0.6506
11025TIP3    H254491   1.803   1.806   0.356 -0.7381  1.2284 -0.3861
11026TIP3   OH254492   5.578   3.193   3.012  0.3854  0.5510 -0.5890
11026TIP3    H154493   5.585   3.232   3.099 -1.3523  0.4470 -0.3827
11026TIP3    H254494   5.640   3.120   3.014 -1.4986 -1.0984  1.5195
11027TIP3   OH254495   6.440   2.273  16.016  1.0100 -0.4524  0.6587
11027TIP3    H154496   6.517   2.291  15.962  0.5324 -1.5118 -0.4018
11027TIP3    H254497   6.390   2.209  15.965 -1.2190  1.1847  0.7384
11028TIP3   OH254498   5.307   6.143   3.902  0.1834  0.6076  0.2063
11028TIP3    H154499   5.306   6.082   3.828 -2.8778  1.4010 -0.4588
11028TIP3    H254500   5.361   6.216   3.872 -0.0763  0.3919 -0.8088
11029TIP3   OH254501   5.809   3.135   5.246  0.3033 -0.6308 -0.1304
11029TIP3    H154502   5.846   3.112   5.161 -1.3543 -2.3946 -0.4136
11029TIP3    H254503   5.733   3.191   5.225 -0.2994 -1.3322  0.1578
11030TIP3   OH254504   6.731   6.515   3.739  0.1850 -0.6507  0.6375
11030TIP3    H154505   6.709   6.607   3.752 -1.3744 -0.9629  0.3036
11030TIP3    H254506   6.826   6.514   3.724  0.1269  0.9409  0.1747
11031TIP3   OH254507   2.798   3.812  14.913  0.4476  0.0372 -0.1206
11031TIP3    H154508   2.774   3.814  14.820  3.0549 -0.2490 -0.8187
11031TIP3    H254509   2.719   3.843  14.958 -1.3231 -1.1114 -2.3090
11032TIP3   OH254510   4.752   3.350   4.219  0.2247  0.0394  0.1316
11032TIP3    H154511   4.748   3.264   4.177  0.9155 -0.2810  0.6960
11032TIP3    H254512   4.660   3.376   4.230  0.0335  0.0433 -1.3716
11033TIP3   OH254513   0.325   1.105  11.272 -0.4534  0.5882 -0.1485
11033TIP3    H154514   0.289   1.051  11.202  1.7185 -3.1656  1.4699
11033TIP3    H254515   0.255   1.112  11.336 -0.5509 -0.9983 -0.0545
11034TIP3   OH254516   5.754   1.109   0.598  0.2120 -0.0800 -0.2672
11034TIP3    H154517   5.661   1.127   0.611  0.3302 -0.3506  0.9665
11034TIP3    H254518   5.764   1.103   0.503 -1.2514 -1.2283 -0.3663
11035TIP3   OH254519   6.145   6.637  12.491 -0.0198 -0.1991 -0.0210
11035TIP3    H154520   6.162   6.599  12.404 -0.7143 -1.4012  0.3553
11035TIP3    H254521   6.080   6.578  12.530  0.9449 -0.1753  1.6640
11036TIP3   OH254522   0.726   5.036  13.315  0.4373 -0.4728  0.5007
11036TIP3    H154523   0.636   5.011  13.338 -0.3929  2.5867  0.8703
11036TIP3    H254524   0.715   5.099  13.243  2.3902 -1.3953 -0.6213
11037TIP3   OH254525   4.405   4.527  14.399 -0.3856 -0.3454  0.7074
11037TIP3    H154526   4.400   4.608  14.348  0.5563  1.3733  3.2402
11037TIP3    H254527   4.487   4.486  14.370  0.1217  0.5844  0.7984
11038TIP3   OH254528   3.944   4.221   3.802 -0.7657 -0.2929 -1.0046
11038TIP3    H154529   3.859   4.184   3.828  0.8243 -3.1314  0.3652
11038TIP3    H254530   4.007   4.152   3.820  2.0692  2.2940 -0.5617
11039TIP3   OH254531   0.700   6.186   4.462 -0.3797 -0.6113  0.3526
11039TIP3    H154532   0.621   6.141   4.493  0.2456  0.1790  3.1425
11039TIP3    H254533   0.744   6.216   4.541  1.8922  0.4177 -1.2491
11040TIP3   OH254534   1.800   4.797   0.773 -0.5068 -0.5243 -0.2539
11040TIP3    H154535   1.712   4.760   0.763 -0.3392 -0.7775 -0.8040
11040TIP3    H254536   1.823   4.779   0.864 -0.3662 -1.9178 -0.5575
11041TIP3   OH254537   5.562   3.575   0.857 -0.1670  0.4466  0.4166
11041TIP3    H154538   5.654   3.552   0.842 -0.5314 -0.1360 -1.0024
11041TIP3    H254539   5.561   3.612   0.945  1.3992  0.2877  0.5222
11042TIP3   OH254540   4.022   2.368   4.166 -0.5884 -0.1769  0.1925
11042TIP3    H154541   4.009   2.307   4.094  1.8772  0.5347 -0.9118
11042TIP3    H254542   3.948   2.428   4.161 -0.8237 -0.5828 -1.2962
11043TIP3   OH254543   3.818   1.462  11.924  0.0074 -0.3866 -0.0237
11043TIP3    H154544   3.874   1.503  11.990  0.8512  1.0952 -1.6235
11043TIP3    H254545   3.747   1.422  11.975  1.8023 -1.1799  1.9241
11044TIP3   OH254546   5.777   2.733  13.618 -0.2731 -0.0745 -0.5697
11044TIP3    H154547   5.860   2.741  13.572  0.9205 -2.2700  1.1237
11044TIP3    H254548   5.713   2.774  13.559  1.9947  1.7477 -1.8311
11045TIP3   OH254549   1.462   2.325  11.205 -0.2086 -0.0304 -0.4995
11045TIP3    H154550   1.384   2.304  11.257 -0.0065  0.5166  0.0290
11045TIP3    H254551   1.434   2.314  11.115 -1.1114  0.8662 -0.3310
11046TIP3   OH254552   6.198   0.867   2.735  0.1379  0.6107 -0.1342
11046TIP3    H154553   6.241   0.952   2.734 -0.5994  1.0009  0.3537
11046TIP3    H254554   6.115   0.882   2.689  0.9478 -0.3731 -1.9592
11047TIP3   OH254555   5.980   6.689   3.163  0.5830  0.1541 -0.3312
11047TIP3    H154556   5.885   6.690   3.178  0.6189  0.5136 -0.1347
11047TIP3    H254557   5.992   6.627   3.091  0.3143 -0.8918  0.5022
11048TIP3   OH254558   3.055   2.143   0.173  0.3015  0.0970  0.2141
11048TIP3    H154559   3.112   2.094   0.232  0.2686  0.4363  0.5310
11048TIP3    H254560   2.994   2.078   0.138 -0.3084  0.0756  1.3140
11049TIP3   OH254561   0.803   3.815  15.468  0.7232  0.4119  0.1262
11049TIP3    H154562   0.789   3.908  15.486  2.0099  0.8078 -0.8591
11049TIP3    H254563   0.755   3.770  15.538 -0.3071  1.7989  0.3289
11050TIP3   OH254564   3.893   0.411   3.287  0.3141  0.0969 -0.1288
11050TIP3    H154565   3.892   0.349   3.360 -2.9466 -0.5839 -0.6667
11050TIP3    H254566   3.922   0.494   3.326  0.6618 -0.7619  1.4766
11051TIP3   OH254567   3.090   6.585   4.016 -0.0659 -0.5925 -0.2887
11051TIP3    H154568   3.179   6.604   3.985 -0.0673  0.6525  0.4344
11051TIP3    H254569   3.076   6.647   4.087 -1.9560  0.0392 -1.1831
11052TIP3   OH254570   0.436   1.220   5.255  0.1170 -1.0380  0.5027
11052TIP3    H154571   0.391   1.139   5.280 -2.3019 -0.1809 -0.9097
11052TIP3    H254572   0.369   1.288   5.261  1.9860  0.7846  1.1385
11053TIP3   OH254573   4.429   5.532  14.887  0.3639 -0.5735 -0.2856
11053TIP3    H154574   4.505   5.476  14.903 -0.1329 -0.7814  1.4777
11053TIP3    H254575   4.388   5.494  14.809  0.4259 -2.2745  0.4671
11054TIP3   OH254576   4.818   3.011   6.348  0.7225 -0.1292  0.1851
11054TIP3    H154577   4.805   3.061   6.268 -1.0734  0.2842  0.7031
11054TIP3    H254578   4.820   2.920   6.319  0.6434  0.0522 -0.4008
11055TIP3   OH254579   0.205   3.490  15.239  0.0006 -0.3562 -0.0340
11055TIP3    H154580   0.137   3.558  15.232  1.3198  0.9033 -1.0335
11055TIP3    H254581   0.220   3.482  15.333 -1.4781 -0.6034  0.1978
11056TIP3   OH254582   2.417   3.553  12.510 -0.1560  0.7571 -0.2279
11056TIP3    H154583   2.350   3.581  12.572 -0.9872 -1.0852 -0.2572
11056TIP3    H254584   2.393   3.463  12.488  3.3571 -0.5749  1.1320
11057TIP3   OH254585   4.224   4.496   0.050  0.4881  0.3824 -0.4697
11057TIP3    H154586   4.158   4.460  -0.010 -0.1435 -0.6204  0.7848
11057TIP3    H254587   4.173   4.529   0.124  1.2895  1.1270 -0.2468
11058TIP3   OH254588   0.463   5.302   5.014  0.0174  0.6501  0.0724
11058TIP3    H154589   0.497   5.383   4.976 -1.1395  0.5533 -1.1909
11058TIP3    H254590   0.538   5.265   5.061  1.5023  0.7690 -2.1260
11059TIP3   OH254591   6.504   4.283  14.458  0.5919  0.6406 -0.4352
11059TIP3    H154592   6.480   4.213  14.519  0.9924  1.0527  0.2022
11059TIP3    H254593   6.422   4.308  14.416  0.4412 -0.1741 -0.6203
11060TIP3   OH254594   2.534   5.781  16.394 -0.4873 -0.0109  0.0318
11060TIP3    H154595   2.458   5.808  16.445 -1.0165 -1.4004  0.0038
11060TIP3    H254596   2.601   5.846  16.414 -0.7898 -0.3236  2.2374
11061TIP3   OH254597   5.428   5.168   1.554 -0.6415  0.0741  0.0095
11061TIP3    H154598   5.397   5.225   1.624 -1.1231  0.0437 -0.1794
11061TIP3    H254599   5.384   5.200   1.476  1.8399  1.7675 -0.7646
11062TIP3   OH254600   1.721   0.313  12.765 -0.0210 -0.3651  0.3549
11062TIP3    H154601   1.726   0.220  12.743  0.0836 -0.4514  0.7374
11062TIP3    H254602   1.785   0.324  12.835  1.8015  0.5077 -1.4159
11063TIP3   OH254603   5.529   6.136   5.413 -0.0708  0.0163  0.1669
11063TIP3    H154604   5.466   6.193   5.368 -0.3346 -0.1570  0.3184
11063TIP3    H254605   5.553   6.185   5.492 -0.8296 -0.3881  0.6532
11064TIP3   OH254606   6.469   1.561  14.225  0.3534  0.0328  0.3561
11064TIP3    H154607   6.394   1.613  14.197 -0.0127 -0.4615  0.4179
11064TIP3    H254608   6.431   1.483  14.266  0.8977 -0.1853  0.4514
11065TIP3   OH254609   1.885   4.823  14.300  0.2392  0.5132  0.0027
11065TIP3    H154610   1.858   4.876  14.225 -1.2041 -1.3088 -0.7906
11065TIP3    H254611   1.936   4.751  14.262  0.2952  0.0906  0.8609
11066TIP3   OH254612   0.779   1.998  14.312 -0.3090  0.0722 -0.3169
11066TIP3    H154613   0.851   1.973  14.253  0.0312  3.0862 -1.2768
11066TIP3    H254614   0.797   2.089  14.334 -2.1899 -0.0640  1.9512
11067TIP3   OH254615   0.465   3.668  16.733  0.0087 -0.4719 -0.3995
11067TIP3    H154616   0.484   3.745  16.678 -0.5445 -0.4246 -0.5223
11067TIP3    H254617   0.370   3.658  16.728 -0.4321  1.2944  2.8637
11068TIP3   OH254618   0.310   6.780  16.304  0.2420  0.7620 -0.6810
11068TIP3    H154619   0.367   6.719  16.351  0.2554  2.1259  1.0906
11068TIP3    H254620   0.234   6.727  16.280 -0.0699  0.2013  1.4537
11069TIP3   OH254621   2.753   2.352  15.911 -0.2056 -0.2619 -0.5991
11069TIP3    H154622   2.669   2.366  15.954  0.9233  0.7866  1.3656
11069TIP3    H254623   2.751   2.261  15.882 -2.4106  0.0473 -1.5243
11070TIP3   OH254624   5.000   1.645   2.155 -0.0020  0.5086  0.4593
11070TIP3    H154625   4.930   1.613   2.099  0.2694  0.9119 -0.1150
11070TIP3    H254626   4.964   1.641   2.244 -0.2500 -0.6337  0.3209
11071TIP3   OH254627   1.285   0.573  14.711 -0.3211  0.1428  0.0894
11071TIP3    H154628   1.289   0.486  14.750  0.6326 -0.4076 -1.1718
11071TIP3    H254629   1.367   0.615  14.736  0.6131 -0.4684 -1.8498
11072TIP3   OH254630   0.052   1.681  14.051 -0.9583  0.4405 -0.0925
11072TIP3    H154631   0.083   1.738  14.121 -0.4567  1.7174 -1.3204
11072TIP3    H254632   0.101   1.710  13.974 -1.5890 -0.8531 -0.9934
11073TIP3   OH254633   5.187   1.992   3.061 -0.3855 -0.0309 -0.0303
11073TIP3    H154634   5.143   2.030   2.985  1.0937 -0.0893 -0.9313
11073TIP3    H254635   5.280   2.011   3.047 -0.0552 -0.4078  1.5595
11074TIP3   OH254636   1.926   0.084  14.870 -0.2775 -0.2040 -0.4415
11074TIP3    H154637   1.871   0.124  14.937 -1.9696  0.4304 -2.1618
11074TIP3    H254638   1.877   0.006  14.842 -0.7341  0.7800 -2.5268
11075TIP3   OH254639   0.697   6.754  14.558  0.1253  0.4577  0.6991
11075TIP3    H154640   0.765   6.754  14.625  1.3526  3.4968 -0.4415
11075TIP3    H254641   0.735   6.709  14.483  0.2487  0.6064  0.6723
11076TIP3   OH254642   0.053   1.610   3.710 -0.0233  0.6500  0.4193
11076TIP3    H154643   0.058   1.704   3.724 -0.3644  0.6918  0.2569
11076TIP3    H254644  -0.025   1.582   3.759  0.4989  0.3383  1.0893
11077TIP3   OH254645   5.036   6.022   3.981  0.2390  0.4535  0.6502
11077TIP3    H154646   5.044   5.928   3.968  2.4038  0.8363 -1.1564
11077TIP3    H254647   5.114   6.047   4.030 -0.2961  1.3074  1.0822
11078TIP3   OH254648   2.198   4.641  12.077  0.2670 -0.6399  0.2014
11078TIP3    H154649   2.283   4.672  12.048  0.5259 -0.6685  0.9344
11078TIP3    H254650   2.183   4.683  12.162 -0.0626 -1.2966  0.4815
11079TIP3   OH254651   4.469   4.785   4.931  0.0958 -0.2810 -0.2389
11079TIP3    H154652   4.484   4.701   4.973  0.0976 -0.1681 -0.0114
11079TIP3    H254653   4.410   4.832   4.991  1.1102  0.3646  0.2635
11080TIP3   OH254654   0.474   5.106  13.045 -0.3703  0.7304 -0.3625
11080TIP3    H154655   0.534   5.083  12.973  1.5001  3.4158  0.2314
11080TIP3    H254656   0.500   5.049  13.117 -0.4230 -0.0880 -0.9901
11081TIP3   OH254657   3.850   3.970   3.649  0.0246  0.0587  0.0878
11081TIP3    H154658   3.811   3.883   3.638 -2.1216  0.8938  0.8101
11081TIP3    H254659   3.908   3.962   3.724  0.9056 -1.0889 -0.6971
11082TIP3   OH254660   1.505   0.725  14.667 -0.5202  0.0558  0.1538
11082TIP3    H154661   1.495   0.698  14.575 -0.9493  0.6358  0.0332
11082TIP3    H254662   1.583   0.780  14.667 -0.1355 -0.4868  0.2545
11083TIP3   OH254663   5.239   2.528  15.946 -0.9646  0.7245 -0.2004
11083TIP3    H154664   5.157   2.555  15.987 -0.8908  1.0431 -0.2653
11083TIP3    H254665   5.282   2.609  15.921 -0.4307  0.5809  0.2224
11084TIP3   OH254666   0.660   3.698   2.332 -0.5523  0.1732 -0.5671
11084TIP3    H154667   0.587   3.728   2.278 -0.8855 -2.6970 -1.8071
11084TIP3    H254668   0.717   3.651   2.271  0.9255  0.0022  0.9121
11085TIP3   OH254669   2.934   6.729  12.709 -0.4930 -0.6028  0.1906
11085TIP3    H154670   2.975   6.755  12.791 -1.0871 -0.4393  0.4363
11085TIP3    H254671   2.862   6.673  12.734 -0.0604 -1.3738 -0.2757
11086TIP3   OH254672   1.154   2.287  15.467  0.5175  0.0779 -0.7372
11086TIP3    H154673   1.164   2.382  15.475  0.1888  0.0769 -0.3010
11086TIP3    H254674   1.060   2.273  15.464  0.5727 -0.1968 -1.3224
11087TIP3   OH254675   1.279   4.084   3.062 -0.2469  0.6524  0.5479
11087TIP3    H154676   1.327   4.145   3.118  0.3108  0.3070  0.4484
11087TIP3    H254677   1.320   3.999   3.078 -0.1421  0.5363 -0.3247
11088TIP3   OH254678   2.187   5.340  13.486 -0.1062 -0.5382  0.1571
11088TIP3    H154679   2.168   5.262  13.435  0.0202  0.3580 -1.3155
11088TIP3    H254680   2.151   5.323  13.572 -0.8588 -1.8573 -0.4107
11089TIP3   OH254681   2.347   3.788   2.349 -0.4219  0.1293 -0.2323
11089TIP3    H154682   2.426   3.776   2.296 -0.2550  0.7979 -0.1404
11089TIP3    H254683   2.290   3.716   2.324  0.0236 -0.0737 -0.6637
11090TIP3   OH254684   6.567   4.900  11.913 -0.0553 -0.5163 -0.4494
11090TIP3    H154685   6.573   4.951  11.832 -0.9288 -2.3399 -1.7085
11090TIP3    H254686   6.658   4.890  11.941  0.1371  1.5616 -0.2617
11091TIP3   OH254687   4.762   0.415   3.959  0.2642 -0.5256  0.5819
11091TIP3    H154688   4.739   0.403   3.867 -0.3550 -1.3146  0.8346
11091TIP3    H254689   4.725   0.338   4.003 -0.7576  0.5924  1.7097
11092TIP3   OH254690   2.560   5.174   4.561  0.2484 -0.1207  0.2475
11092TIP3    H154691   2.557   5.259   4.516  2.4341 -0.5544 -0.8060
11092TIP3    H254692   2.593   5.113   4.495 -1.7546 -1.9044  0.8714
11093TIP3   OH254693   6.645   0.489   2.510 -0.1333  0.1250  0.0062
11093TIP3    H154694   6.621   0.409   2.464  0.3460  2.1713 -4.0415
11093TIP3    H254695   6.741   0.486   2.514 -0.0051  1.1270 -1.5574
11094TIP3   OH254696   4.529   1.108  12.925  0.2506 -0.0103  0.2878
11094TIP3    H154697   4.497   1.061  12.848 -0.0047 -0.6317  0.7619
11094TIP3    H254698   4.621   1.124  12.907  0.3946 -0.8970  0.2061
11095TIP3   OH254699   0.290   2.621  12.825  0.3475  0.0415 -0.1837
11095TIP3    H154700   0.372   2.659  12.858 -0.4967  2.2799 -0.5566
11095TIP3    H254701   0.283   2.654  12.735 -0.3915 -1.0969 -0.5567
11096TIP3   OH254702   0.792   0.716  13.267 -0.3553  0.2487  0.7957
11096TIP3    H154703   0.758   0.666  13.341 -2.4757  2.9502  1.7449
11096TIP3    H254704   0.883   0.690  13.260 -1.2829 -3.4660  1.4323
11097TIP3   OH254705   2.093   4.248  11.872  0.1648  0.4195 -0.3097
11097TIP3    H154706   1.999   4.264  11.871  0.0440 -0.0294  1.4580
11097TIP3    H254707   2.117   4.239  11.780 -1.7014 -0.4823 -0.7399
11098TIP3   OH254708   3.909   3.898  13.880 -0.4150  0.3356  0.1838
11098TIP3    H154709   3.898   3.911  13.786 -1.2300  1.0547  0.3789
11098TIP3    H254710   3.952   3.978  13.911 -1.6932  0.8307  0.6992
11099TIP3   OH254711   4.460   4.826   5.550 -0.7271 -0.4886 -0.5086
11099TIP3    H154712   4.501   4.760   5.495 -2.1098 -1.4176 -0.4635
11099TIP3    H254713   4.532   4.866   5.597  0.2412 -1.2597 -1.3010
11100TIP3   OH254714   6.174   3.351  16.702  0.0338 -0.6947  0.2369
11100TIP3    H154715   6.261   3.337  16.740  0.8805 -0.0865 -1.4652
11100TIP3    H254716   6.167   3.446  16.691 -0.7501 -0.7613  0.1111
11101TIP3   OH254717   0.596   3.804  13.640 -0.2515 -0.2880  0.1140
11101TIP3    H154718   0.665   3.759  13.590  0.9227 -0.8181  2.1459
11101TIP3    H254719   0.538   3.841  13.573  0.2634 -2.5043 -1.6317
11102TIP3   OH254720   3.702   4.171  13.282 -0.0583  0.7511 -0.1856
11102TIP3    H154721   3.685   4.207  13.195 -1.0642  1.3968  0.2680
11102TIP3    H254722   3.723   4.248  13.335  0.4491  0.3696  0.1644
11103TIP3   OH254723   5.809   1.581  15.428  0.4229  0.2309 -0.5008
11103TIP3    H154724   5.903   1.576  15.442  0.2779  0.8532  0.8664
11103TIP3    H254725   5.776   1.493  15.448  0.7004  0.0498 -0.8468
11104TIP3   OH254726   6.758   0.850   2.793  0.3423 -0.0700  0.1814
11104TIP3    H154727   6.777   0.829   2.884  1.0027  1.3863  0.3943
11104TIP3    H254728   6.773   0.768   2.745  0.3511 -0.7393  1.3290
11105TIP3   OH254729   4.409   5.331   0.734  0.3378 -0.0476 -0.4379
11105TIP3    H154730   4.478   5.276   0.695 -0.1659 -1.2388  0.3185
11105TIP3    H254731   4.422   5.322   0.828 -0.1639  0.6298 -0.2988
11106TIP3   OH254732   6.095   5.194   4.947 -0.3859  0.1528 -0.5807
11106TIP3    H154733   6.147   5.150   5.014 -3.0118 -0.7425  0.9170
11106TIP3    H254734   6.081   5.128   4.879 -1.2089 -0.1932 -0.0729
11107TIP3   OH254735   4.984   2.708   4.402  0.0287  0.4177 -0.1760
11107TIP3    H154736   4.985   2.669   4.489  0.6813 -0.5138 -0.5867
11107TIP3    H254737   4.998   2.634   4.343 -0.5896  1.0186 -1.0801
11108TIP3   OH254738   3.571   1.894   2.075  0.0819  0.0228 -0.0379
11108TIP3    H154739   3.515   1.972   2.077 -0.1173 -0.0417 -2.1220
11108TIP3    H254740   3.636   1.910   2.143  0.9430  2.7243 -1.3973
11109TIP3   OH254741   5.066   6.511   5.256 -0.3512 -0.0214 -0.7133
11109TIP3    H154742   5.085   6.594   5.299  0.9093 -0.4242 -0.4501
11109TIP3    H254743   5.012   6.462   5.319  0.0753  0.0539 -0.2872
11110TIP3   OH254744   6.420   0.673  12.640 -0.6114  0.1353  0.2797
11110TIP3    H154745   6.359   0.663  12.566  1.2066  3.1541 -1.7581
11110TIP3    H254746   6.504   0.642  12.606  0.2651  1.6379  1.0159
11111TIP3   OH254747   3.686   6.324  12.048  0.2597 -0.2372 -0.3371
11111TIP3    H154748   3.648   6.375  12.119 -0.6612 -0.3681 -0.7294
11111TIP3    H254749   3.637   6.241  12.049  0.2935 -0.2726 -1.0695
11112TIP3   OH254750   6.203   1.999  10.988  0.2442  0.1832 -0.3256
11112TIP3    H154751   6.270   1.941  10.950 -0.0693  0.0034 -0.5968
11112TIP3    H254752   6.150   2.027  10.914 -1.2622 -1.3303  0.1700
11113TIP3   OH254753   4.779   2.201   0.562  0.0290  0.1185 -0.0104
11113TIP3    H154754   4.779   2.188   0.467 -0.3821  1.2901 -0.1761
11113TIP3    H254755   4.823   2.124   0.597 -0.7218 -0.8178 -1.0949
11114TIP3   OH254756   0.786   3.977   2.437  0.1875 -0.0461 -0.3359
11114TIP3    H154757   0.829   4.056   2.468  0.3638 -0.7578  1.2670
11114TIP3    H254758   0.857   3.913   2.427 -0.2286 -0.6673  0.5515
11115TIP3   OH254759   6.269   4.610  15.613 -0.4912 -0.3989 -0.8493
11115TIP3    H154760   6.200   4.614  15.679 -1.2587  0.0343 -1.6709
11115TIP3    H254761   6.347   4.644  15.658 -1.1410  0.4218 -0.3263
11116TIP3   OH254762   6.749   4.692  14.606  0.3901 -0.2554 -0.0438
11116TIP3    H154763   6.798   4.635  14.546  0.3271  1.0642 -1.3811
11116TIP3    H254764   6.663   4.650  14.615  0.1275 -0.0602 -1.5195
11117TIP3   OH254765   0.818   0.731  16.852 -0.0061 -0.0737  0.3934
11117TIP3    H154766   0.833   0.637  16.863  1.6102  0.0342 -0.7144
11117TIP3    H254767   0.779   0.760  16.935 -1.6142 -1.9313  0.3159
11118TIP3   OH254768   2.410   0.488  14.456 -0.0683 -0.7667 -0.4491
11118TIP3    H154769   2.335   0.540  14.484  0.9237 -0.2109  1.2104
11118TIP3    H254770   2.451   0.540  14.387  0.5744  0.3799  0.7930
11119TIP3   OH254771   5.964   2.370   3.257  0.4655  0.1030 -0.1735
11119TIP3    H154772   5.992   2.444   3.310  1.2823 -1.4179  1.5384
11119TIP3    H254773   5.934   2.410   3.175  1.0223  2.3046  0.6612
11120TIP3   OH254774   4.130   1.479   5.715 -0.0287 -0.0098  0.1735
11120TIP3    H154775   4.075   1.403   5.734  1.2723 -1.3285 -1.2273
11120TIP3    H254776   4.177   1.455   5.635  1.3574  1.7504  0.4365
11121TIP3   OH254777   0.755   6.680   1.305  0.2750 -0.0594 -0.1798
11121TIP3    H154778   0.727   6.765   1.339  0.6694  0.2377 -0.5965
11121TIP3    H254779   0.849   6.677   1.322  0.1552 -0.6764  0.3947
11122TIP3   OH254780   4.563   3.047  14.491 -0.0079 -0.1874  0.4087
11122TIP3    H154781   4.560   3.140  14.469 -1.1935  0.4475  3.0120
11122TIP3    H254782   4.472   3.020  14.493  0.1733 -0.7418  2.1577
11123TIP3   OH254783   3.548   6.096   2.710 -0.1880 -0.6903 -0.0913
11123TIP3    H154784   3.502   6.172   2.675  0.5340  0.9285  2.3244
11123TIP3    H254785   3.574   6.045   2.633 -1.8177  0.8437 -1.6728
11124TIP3   OH254786   4.497   1.433   2.893  0.3124  0.0991  0.0879
11124TIP3    H154787   4.527   1.354   2.849  1.0901 -1.3505  3.0591
11124TIP3    H254788   4.501   1.411   2.987  1.1251  3.8264  1.0226
11125TIP3   OH254789   1.373   4.656  16.568 -0.6049  0.1440  0.5280
11125TIP3    H154790   1.327   4.657  16.653 -0.3829 -1.0014  0.6723
11125TIP3    H254791   1.444   4.718  16.579 -1.1266  0.6901  0.8724
11126TIP3   OH254792   5.238   6.149  15.842 -0.0566 -0.6617 -0.1170
11126TIP3    H154793   5.270   6.101  15.765 -0.4819 -1.5752  0.2675
11126TIP3    H254794   5.187   6.222  15.806  1.5013  0.1555 -0.7222
11127TIP3   OH254795   3.506   6.014   4.182  0.3138 -0.5528  0.3236
11127TIP3    H154796   3.601   6.004   4.175  0.1201 -0.7019 -2.9033
11127TIP3    H254797   3.495   6.100   4.224  1.9131  0.7431 -1.7784
11128TIP3   OH254798   3.343   3.842   4.022  0.0080  0.5404  0.4763
11128TIP3    H154799   3.255   3.846   3.984  0.4114  0.7060 -0.4432
11128TIP3    H254800   3.367   3.749   4.018  0.2297  0.6239 -0.0728
11129TIP3   OH254801   4.524   2.937  11.269  0.4603 -0.2862 -0.2355
11129TIP3    H154802   4.452   2.998  11.286  0.2766 -0.8720  1.1248
11129TIP3    H254803   4.585   2.988  11.215  0.9734  1.5936  2.0642
11130TIP3   OH254804   1.278   2.928   4.311 -0.1477 -0.3225 -0.7069
11130TIP3    H154805   1.278   3.014   4.270 -1.8431 -0.1030 -0.3191
11130TIP3    H254806   1.234   2.871   4.248  1.7517 -1.1242 -1.3420
11131TIP3   OH254807   4.758   1.728  13.721  0.4915 -0.5986 -0.5560
11131TIP3    H154808   4.773   1.661  13.788  1.5323  0.2366  0.0753
11131TIP3    H254809   4.846   1.759  13.699  0.3249 -2.0224 -3.5480
11132TIP3   OH254810   6.211   5.350   0.314  0.5048 -0.4734  0.8604
11132TIP3    H154811   6.211   5.438   0.276 -1.8834 -1.0413 -0.5269
11132TIP3    H254812   6.158   5.358   0.393  1.1470 -0.4741  1.3031
11133TIP3   OH254813   3.449   2.170  16.808 -0.2532 -0.3706 -0.4778
11133TIP3    H154814   3.525   2.113  16.819 -0.4290 -0.6628 -0.7792
11133TIP3    H254815   3.470   2.247  16.860  0.2082 -0.4928 -0.4770
11134TIP3   OH254816   5.317   5.927  10.997 -0.7327  0.6894  0.3231
11134TIP3    H154817   5.241   5.979  10.973 -0.7058  0.7762  0.4225
11134TIP3    H254818   5.381   5.945  10.928 -0.8984  0.4051  0.0964
11135TIP3   OH254819   6.726   5.369   5.284  0.1619  0.0303 -0.5461
11135TIP3    H154820   6.732   5.392   5.377  0.7795 -1.4368 -0.2125
11135TIP3    H254821   6.809   5.325   5.265  0.0479  0.3410 -1.8129
11136TIP3   OH254822   1.140   3.138  13.802  0.1914  0.2409  0.7893
11136TIP3    H154823   1.076   3.198  13.763  1.9089  2.0111  0.6306
11136TIP3    H254824   1.088   3.082  13.859 -1.3264  2.5815  1.7670
11137TIP3   OH254825   2.814   5.409  14.581  0.6347 -0.1955  0.3884
11137TIP3    H154826   2.858   5.324  14.585  1.6856  0.3743  1.2008
11137TIP3    H254827   2.852   5.452  14.504 -1.5390 -1.3415 -1.3579
11138TIP3   OH254828   4.696   2.040  15.827 -0.0105 -0.1122  0.4365
11138TIP3    H154829   4.663   1.970  15.884  0.7296  0.1214  1.1651
11138TIP3    H254830   4.621   2.097  15.814 -0.5202 -0.8337  0.1492
11139TIP3   OH254831   6.587   5.945  14.253  0.4059 -0.1948  0.7792
11139TIP3    H154832   6.516   5.933  14.316  0.2909 -0.5066  0.5873
11139TIP3    H254833   6.585   5.866  14.199 -1.4326  1.4066 -1.5843
11140TIP3   OH254834   0.839   2.080  15.997 -0.2301  0.0831  0.5978
11140TIP3    H154835   0.869   2.005  15.945 -0.4290  0.2874  0.1854
11140TIP3    H254836   0.841   2.050  16.087  2.3463  0.4345  0.7052
11141TIP3   OH254837   5.291   0.473  14.479 -0.1713  0.4351 -0.4409
11141TIP3    H154838   5.211   0.432  14.445  0.0521 -0.2068 -0.2099
11141TIP3    H254839   5.307   0.428  14.562  0.3502  0.6640 -0.4154
11142TIP3   OH254840   5.276   4.310   1.114 -0.2666 -0.2585  0.3645
11142TIP3    H154841   5.339   4.298   1.044 -1.0987 -1.0214 -0.2678
11142TIP3    H254842   5.198   4.263   1.084 -1.1660  0.7542  1.0778
11143TIP3   OH254843   3.419   1.588  11.803  0.2271  0.2640  0.0563
11143TIP3    H154844   3.352   1.520  11.799  0.1788  0.3901 -1.5229
11143TIP3    H254845   3.370   1.670  11.805  0.3196  0.3265 -0.2282
11144TIP3   OH254846   4.618   5.774  16.338 -0.0385 -0.0487  0.5140
11144TIP3    H154847   4.562   5.778  16.260 -0.6424  1.4508  1.0148
11144TIP3    H254848   4.559   5.789  16.411  0.5804 -1.1735  1.2592
11145TIP3   OH254849   3.198   0.803  10.857 -0.1817 -0.4873 -0.3806
11145TIP3    H154850   3.268   0.865  10.834  0.4105  0.2562  3.0437
11145TIP3    H254851   3.234   0.717  10.837 -0.2323  0.1386 -3.3067
11146TIP3   OH254852   5.772   1.056  10.698  0.1678  0.0304  0.5896
11146TIP3    H154853   5.694   1.101  10.731 -0.7921 -2.2000  1.4064
11146TIP3    H254854   5.738   0.988  10.640  1.5366 -0.4459  0.3347
11147TIP3   OH254855   0.632   6.313  12.880 -0.1007  0.2581 -0.2539
11147TIP3    H154856   0.664   6.270  12.800  1.0503  3.2887 -1.5436
11147TIP3    H254857   0.537   6.311  12.872 -0.1345 -3.0106  0.3242
11148TIP3   OH254858   4.868   1.849  16.699  0.2367  0.1512  0.2395
11148TIP3    H154859   4.782   1.852  16.658  0.6922 -0.4002 -0.7609
11148TIP3    H254860   4.927   1.884  16.632  1.3028 -2.7409 -0.3965
11149TIP3   OH254861   0.874   6.619   2.521 -0.6177  0.0014  0.0807
11149TIP3    H154862   0.811   6.692   2.525 -2.0223 -1.2175  0.6849
11149TIP3    H254863   0.947   6.654   2.471 -1.8677  1.3850 -0.8371
11150TIP3   OH254864   2.032   6.663  13.226  0.1615 -0.4111 -0.2527
11150TIP3    H154865   1.953   6.633  13.272  0.4730  0.1805  0.6910
11150TIP3    H254866   1.999   6.724  13.160  0.0006  1.9419  1.9067
11151TIP3   OH254867   0.765   3.551  13.622  0.2968 -0.4184  0.2545
11151TIP3    H154868   0.711   3.496  13.564  0.0584  0.7994 -0.6987
11151TIP3    H254869   0.725   3.541  13.708 -0.1113 -1.2709 -0.0284
11152TIP3   OH254870   6.363   0.481  16.101 -0.6325 -0.1159  0.3121
11152TIP3    H154871   6.296   0.525  16.153 -1.5880  0.8721 -1.7399
11152TIP3    H254872   6.337   0.495  16.010 -0.1967 -3.7142 -0.4374
11153TIP3   OH254873   3.964   3.217   5.299  1.1658  0.2169 -0.3768
11153TIP3    H154874   3.983   3.303   5.336  2.2410  0.4041 -1.3539
11153TIP3    H254875   4.005   3.218   5.213  0.8810 -1.1468 -0.5374
11154TIP3   OH254876   3.977   6.149   1.983 -0.1821 -0.3590  0.2115
11154TIP3    H154877   3.987   6.178   2.074  1.6031  1.7836 -0.6045
11154TIP3    H254878   4.061   6.110   1.962 -0.9997 -1.9306 -0.1753
11155TIP3   OH254879   1.982   1.635   4.598  0.3451 -0.3991 -0.0668
11155TIP3    H154880   1.892   1.653   4.624  0.4185 -0.4660  0.2379
11155TIP3    H254881   1.975   1.577   4.522  0.0620  1.8975 -1.8765
11156TIP3   OH254882   0.619   5.167   0.269 -0.5043 -0.2414  0.4569
11156TIP3    H154883   0.588   5.210   0.349 -0.7503  0.2066  0.1289
11156TIP3    H254884   0.712   5.189   0.265 -0.7234  0.6353  0.0644
11157TIP3   OH254885   6.204   4.337  15.640 -0.1987  0.1641  0.4215
11157TIP3    H154886   6.241   4.402  15.699 -1.7294  0.1797  1.3949
11157TIP3    H254887   6.273   4.320  15.576  2.1371 -1.0993  3.1805
11158TIP3   OH254888   2.129   4.205   4.299 -0.3635 -0.0512 -0.0478
11158TIP3    H154889   2.163   4.191   4.211  0.0871  3.1915 -0.4270
11158TIP3    H254890   2.205   4.194   4.356 -0.2133 -0.0220 -0.2435
11159TIP3   OH254891   5.985   3.342   5.289 -0.0415  0.3856 -0.4396
11159TIP3    H154892   5.917   3.275   5.284  0.0383  0.3685 -1.6632
11159TIP3    H254893   5.986   3.369   5.380 -0.9934 -0.3399 -0.2033
11160TIP3   OH254894   2.636   5.330   6.508  0.2741 -0.7536 -0.1222
11160TIP3    H154895   2.688   5.249   6.507 -0.6997 -1.4170  0.8497
11160TIP3    H254896   2.562   5.311   6.450 -0.0894 -0.6623  0.3094
11161TIP3   OH254897   1.905   3.816  16.643 -0.5425 -0.1462  0.4117
11161TIP3    H154898   1.824   3.858  16.673 -0.8356  0.4968 -1.2402
11161TIP3    H254899   1.975   3.874  16.673 -0.9388  1.5125 -1.7577
11162TIP3   OH254900   2.571   5.512  11.876  0.3296  0.5154  0.1153
11162TIP3    H154901   2.477   5.512  11.895  0.1413 -1.1993 -0.7445
11162TIP3    H254902   2.578   5.481  11.786  1.7738 -0.3197  0.4897
11163TIP3   OH254903   4.343   3.040  12.373  0.1868  0.2901 -0.2553
11163TIP3    H154904   4.395   3.086  12.439 -0.9420  1.1298  0.0768
11163TIP3    H254905   4.311   2.961  12.417  0.3202  0.3081 -0.1277
11164TIP3   OH254906   3.859   6.489  14.714 -0.3725 -0.3277 -0.2996
11164TIP3    H154907   3.886   6.406  14.674 -1.7655 -0.5671 -0.7969
11164TIP3    H254908   3.929   6.511  14.775  0.7394 -1.0900 -1.2783
11165TIP3   OH254909   2.716   2.600   1.360  0.0527  0.0623 -0.6101
11165TIP3    H154910   2.757   2.653   1.292 -0.3558 -0.4676 -1.2732
11165TIP3    H254911   2.646   2.553   1.315 -0.8894  0.4821  0.3802
11166TIP3   OH254912   0.722   4.841   1.394  0.2513  0.1354 -0.7884
11166TIP3    H154913   0.664   4.785   1.342 -1.1117 -0.1160  0.9680
11166TIP3    H254914   0.810   4.807   1.377 -0.1651  0.0454 -2.9012
11167TIP3   OH254915   0.961   5.205  16.733 -0.2981 -0.1544 -0.2066
11167TIP3    H154916   0.912   5.250  16.801  1.3592 -1.9540  2.2596
11167TIP3    H254917   1.053   5.220  16.755  0.3299  1.2631 -3.4524
11168TIP3   OH254918   4.845   4.390   0.103 -0.3912  0.1056 -0.0595
11168TIP3    H154919   4.900   4.366   0.177 -0.5575 -1.0687 -0.3177
11168TIP3    H254920   4.767   4.430   0.143 -0.3480 -0.2513  0.3799
11169TIP3   OH254921   0.112   0.103  14.789  0.0544 -0.0549 -0.2160
11169TIP3    H154922   0.156   0.020  14.772  1.0962  0.3428  0.4982
11169TIP3    H254923   0.120   0.152  14.708 -0.5962 -0.6534 -0.6547
11170TIP3   OH254924   2.568   3.593   5.820  0.0389 -0.2447  0.4710
11170TIP3    H154925   2.532   3.652   5.886  1.0385  0.6345  0.2646
11170TIP3    H254926   2.658   3.624   5.807  0.0079 -0.6851 -0.9639
11171TIP3   OH254927   4.175   2.287   6.092  0.4531  0.3697  0.1987
11171TIP3    H154928   4.171   2.331   6.178 -0.3507  2.7101 -0.9911
11171TIP3    H254929   4.226   2.208   6.109 -0.2142  0.4580  2.9758
11172TIP3   OH254930   4.010   0.827   4.306 -0.6550  0.1141  0.1983
11172TIP3    H154931   4.010   0.869   4.392 -1.8027  0.6408 -0.0566
11172TIP3    H254932   3.970   0.741   4.322  0.7522 -0.5028  0.5191
11173TIP3   OH254933   3.172   0.180  11.264  0.0470  0.2536 -0.2720
11173TIP3    H154934   3.228   0.152  11.191  0.2065 -2.3980  0.8014
11173TIP3    H254935   3.083   0.155  11.237  0.2749 -2.1207  0.9979
11174TIP3   OH254936   0.690   6.547  15.189 -0.2581  0.0721  0.3238
11174TIP3    H154937   0.684   6.453  15.174  2.1693 -0.0168 -0.3498
11174TIP3    H254938   0.742   6.579  15.116 -0.6627  1.8803  0.8042
11175TIP3   OH254939   6.497   1.346   4.674 -0.4633  0.1608  0.0768
11175TIP3    H154940   6.410   1.355   4.712 -0.4477  1.6981 -0.2268
11175TIP3    H254941   6.482   1.312   4.586 -0.9048  2.1751 -0.6503
11176TIP3   OH254942   6.447   1.088  14.254 -0.0981 -0.5378  0.3766
11176TIP3    H154943   6.436   1.126  14.341 -0.4210  1.1187 -0.3874
11176TIP3    H254944   6.364   1.046  14.235 -0.3571 -0.0622  0.4615
11177TIP3   OH254945   3.128   4.765   0.127  0.0796  0.1430 -0.6165
11177TIP3    H154946   3.130   4.854   0.163 -1.9082  0.3495 -0.9872
11177TIP3    H254947   3.172   4.712   0.193 -0.1717  1.1396  0.3679
11178TIP3   OH254948   0.979   3.470   5.876 -0.3986 -0.2133  0.3383
11178TIP3    H154949   0.914   3.468   5.946 -0.4422 -2.6711  0.2710
11178TIP3    H254950   0.961   3.552   5.829 -2.7543 -0.3287  0.9616
11179TIP3   OH254951   3.515   1.468   4.493  0.4172 -0.0258  0.2985
11179TIP3    H154952   3.526   1.563   4.505  2.0354 -0.0037 -1.1974
11179TIP3    H254953   3.422   1.458   4.473  0.0243  1.1245  1.3944
11180TIP3   OH254954   0.948   4.149   0.668  0.3480 -0.5097 -0.3263
11180TIP3    H154955   0.956   4.055   0.682  0.6110 -0.3429  0.7267
11180TIP3    H254956   0.938   4.185   0.756 -0.8891  0.3376 -0.8106
11181TIP3   OH254957   4.930   2.698   0.598 -0.0514 -0.6035 -0.0497
11181TIP3    H154958   4.856   2.666   0.648 -0.6960 -1.2050 -1.3760
11181TIP3    H254959   4.973   2.620   0.564  1.4494 -0.2837  1.0608
11182TIP3   OH254960   5.799   1.156   0.056  0.2040  0.3059  0.3141
11182TIP3    H154961   5.760   1.234   0.018  2.8076  2.9022  2.7227
11182TIP3    H254962   5.764   1.152   0.145  0.5907 -0.8814  0.4258
11183TIP3   OH254963   5.066   5.480   4.417  0.0994  0.8166  0.3129
11183TIP3    H154964   5.089   5.473   4.324  3.2245  2.1760  0.9262
11183TIP3    H254965   5.123   5.415   4.460 -2.1036 -0.5809  1.1978
11184TIP3   OH254966   2.640   1.010   4.537 -0.0073  0.8139  0.0215
11184TIP3    H154967   2.571   1.012   4.471  0.8424  3.9199 -0.8396
11184TIP3    H254968   2.620   0.933   4.590 -1.6397 -0.8180 -2.8468
11185TIP3   OH254969   6.695   5.979   5.136  0.6727 -0.1651  0.0490
11185TIP3    H154970   6.688   5.961   5.230  0.4119  0.8188  0.2223
11185TIP3    H254971   6.615   6.027   5.115 -0.1147 -1.8874 -1.0340
11186TIP3   OH254972   4.521   5.002   5.187 -0.4071  0.2613 -0.9214
11186TIP3    H154973   4.520   5.049   5.104 -1.0060 -1.1353 -1.7262
11186TIP3    H254974   4.442   4.948   5.185 -1.3545  1.5024  1.3218
11187TIP3   OH254975   1.934   6.620  10.683 -0.1661 -0.3570 -0.2248
11187TIP3    H154976   1.887   6.701  10.661 -0.6984 -0.4433  0.5470
11187TIP3    H254977   1.921   6.610  10.778 -0.8214 -1.7820 -0.4424
11188TIP3   OH254978   0.162   3.675   0.290  0.2927  0.0496 -0.0399
11188TIP3    H154979   0.097   3.716   0.347  0.9180  1.9371 -0.6577
11188TIP3    H254980   0.118   3.666   0.206  0.1769 -0.4873  0.0787
11189TIP3   OH254981   0.187   1.120  15.629 -0.2111 -0.0097 -0.3492
11189TIP3    H154982   0.273   1.148  15.661  0.1514 -0.7627 -0.6490
11189TIP3    H254983   0.205   1.083  15.543 -1.2186  2.2968 -1.6103
11190TIP3   OH254984   2.027   3.543  13.845  0.0427  0.5945  0.3353
11190TIP3    H154985   2.006   3.611  13.909 -0.6912  0.1933  0.5167
11190TIP3    H254986   2.120   3.525  13.860  0.1544  1.3067  0.5248
11191TIP3   OH254987   1.912   2.335  13.218  0.3652 -0.0687 -0.4784
11191TIP3    H154988   1.971   2.394  13.170 -0.6147  0.8886 -0.5359
11191TIP3    H254989   1.902   2.259  13.161  3.4566 -1.3492  0.5973
11192TIP3   OH254990   3.781   0.150  11.263 -0.4204  0.2221  0.0862
11192TIP3    H154991   3.730   0.230  11.251  1.7017  1.2353 -2.7841
11192TIP3    H254992   3.770   0.102  11.181  0.2831 -1.2949  0.8505
11193TIP3   OH254993   5.345   5.030   2.677  0.7853 -0.3838 -0.4457
11193TIP3    H154994   5.405   5.073   2.617 -0.0597 -1.9735 -2.4675
11193TIP3    H254995   5.401   4.973   2.730  1.2768 -0.4998 -1.0935
11194TIP3   OH254996   6.657   2.375  15.538  0.5341 -0.2331  0.0862
11194TIP3    H154997   6.665   2.349  15.446  2.4775  1.4628 -0.2587
11194TIP3    H254998   6.747   2.378  15.569 -0.1018 -0.5096  1.9810
11195TIP3   OH254999   0.970   0.094  16.976 -0.3010  0.5498  0.4733
11195TIP3    H155000   0.946   0.092  17.068 -0.2481 -0.3667  0.4683
11195TIP3    H255001   0.908   0.035  16.933 -1.7416  2.6263 -0.4108
11196TIP3   OH255002   1.904   0.329   3.338 -0.1141  0.6020 -0.1836
11196TIP3    H155003   1.865   0.342   3.425 -0.7886  1.2389 -0.5768
11196TIP3    H255004   1.895   0.414   3.295 -1.1972 -0.1365 -1.4478
11197TIP3   OH255005   4.126   5.233   1.551 -0.1428  0.1418  0.9065
11197TIP3    H155006   4.150   5.173   1.621 -0.5433  0.6826  1.5098
11197TIP3    H255007   4.150   5.319   1.584  1.1952  0.2433 -0.2840
11198TIP3   OH255008   3.493   0.080   6.811  0.1470 -0.0741  0.4219
11198TIP3    H155009   3.531  -0.008   6.813  0.3867  0.0606  2.3512
11198TIP3    H255010   3.463   0.091   6.720  0.0567 -2.1509  0.1820
11199TIP3   OH255011   6.261   1.673  14.540  0.4886  0.5147  0.0745
11199TIP3    H155012   6.243   1.622  14.619  1.5900  1.4031  0.9330
11199TIP3    H255013   6.196   1.644  14.476  1.2421 -2.1001  0.4617
11200TIP3   OH255014   2.837   0.722   1.786 -0.0422  0.4510 -0.1980
11200TIP3    H155015   2.932   0.712   1.790  0.0724  1.1165 -1.1545
11200TIP3    H255016   2.823   0.815   1.770 -0.8632  0.3889  0.1252
11201TIP3   OH255017   4.095   1.298  12.318  0.6629 -0.2623 -0.0772
11201TIP3    H155018   4.134   1.244  12.387  2.2748 -0.4540 -1.1185
11201TIP3    H255019   4.167   1.317  12.258 -0.0659  2.3537 -0.1975
11202TIP3   OH255020   3.543   2.640  13.496  0.4347  0.1824  0.0073
11202TIP3    H155021   3.630   2.603  13.481  0.3208  0.4827 -1.4438
11202TIP3    H255022   3.559   2.732  13.516  0.5388 -0.0628  1.0695
11203TIP3   OH255023   6.037   4.461   1.663 -0.2151  0.5358  0.3178
11203TIP3    H155024   6.132   4.449   1.668 -0.3940 -0.9675  0.1149
11203TIP3    H255025   6.005   4.441   1.751 -0.5102 -0.4147 -0.0072
11204TIP3   OH255026   1.106   4.552  12.506 -0.1185  0.0023 -0.1015
11204TIP3    H155027   1.122   4.469  12.461  0.8177 -0.1589  0.5080
11204TIP3    H255028   1.040   4.596  12.453  0.2540 -0.6133 -1.0907
11205TIP3   OH255029   4.091   2.344   1.326  0.0935  0.3138  0.1172
11205TIP3    H155030   4.174   2.370   1.366 -0.0987  0.2136  0.5752
11205TIP3    H255031   4.103   2.365   1.233  0.0344  1.8254  0.4328
11206TIP3   OH255032   1.892   1.433   4.388  0.2602 -0.4983  0.4135
11206TIP3    H155033   1.961   1.451   4.323  0.6166 -1.4913  0.5082
11206TIP3    H255034   1.813   1.419   4.336 -0.5502  3.4122  0.4053
11207TIP3   OH255035   2.595   1.013   3.044 -0.9034  0.7298  0.0613
11207TIP3    H155036   2.543   1.092   3.056  1.4196  2.2097  0.6275
11207TIP3    H255037   2.683   1.044   3.026  0.4108 -1.7282  1.9663
11208TIP3   OH255038   1.794   4.095   1.613  0.4573 -0.5682 -0.0835
11208TIP3    H155039   1.733   4.022   1.620 -2.0970  1.5030  0.0008
11208TIP3    H255040   1.818   4.117   1.703  1.0446 -1.1292 -0.0986
11209TIP3   OH255041   5.306   6.066  11.284 -0.0191  0.2955  0.0696
11209TIP3    H155042   5.247   6.000  11.246  1.3311 -1.0502  0.2610
11209TIP3    H255043   5.366   6.089  11.213  0.2948  0.3971  0.3636
11210TIP3   OH255044   0.375   6.780   2.342 -0.1681  0.2333 -0.1502
11210TIP3    H155045   0.387   6.780   2.247  0.3329  1.4198 -0.0994
11210TIP3    H255046   0.388   6.689   2.368 -0.3609 -0.1079 -1.2246
11211TIP3   OH255047   1.842   5.581  11.293  0.0462  0.7709 -0.6090
11211TIP3    H155048   1.798   5.548  11.215 -1.0216 -3.3445  1.5975
11211TIP3    H255049   1.804   5.668  11.307 -3.0223 -0.2569 -2.1316
11212TIP3   OH255050   3.737   3.998  15.677 -0.0758 -0.2948  0.3819
11212TIP3    H155051   3.755   4.091  15.692  0.0535 -0.6792  2.8671
11212TIP3    H255052   3.643   3.993  15.661 -0.0248  0.3146 -0.0794
11213TIP3   OH255053   4.154   4.637  15.499 -0.6065  0.3215  0.7910
11213TIP3    H155054   4.190   4.567  15.444 -0.3170  1.6434 -0.7310
11213TIP3    H255055   4.230   4.689  15.525 -0.6866 -0.5266  2.8196
11214TIP3   OH255056   2.495   6.472   4.623 -0.0169  0.1468  0.1009
11214TIP3    H155057   2.544   6.499   4.545 -0.6305 -0.8703 -0.6524
11214TIP3    H255058   2.554   6.490   4.696  0.7955  0.5759 -0.6539
11215TIP3   OH255059   1.055   4.853  16.237  0.2452 -0.4187  0.5106
11215TIP3    H155060   0.965   4.863  16.266  0.1809 -0.4244  0.3147
11215TIP3    H255061   1.108   4.878  16.313  0.0966 -4.2365  1.9627
11216TIP3   OH255062   4.263   5.136   2.498  0.3543  1.0372  0.3029
11216TIP3    H155063   4.218   5.143   2.414  1.4507 -0.9743 -0.5084
11216TIP3    H255064   4.194   5.111   2.560  0.0463 -0.5861 -0.6387
11217TIP3   OH255065   3.225   0.859  12.312 -0.1091 -1.1043 -0.1502
11217TIP3    H155066   3.182   0.848  12.227 -1.6960  1.1129  0.2931
11217TIP3    H255067   3.173   0.807  12.372  1.0410 -2.7107 -0.5314
11218TIP3   OH255068   0.958   5.649   5.803  0.5282  0.1805 -1.1254
11218TIP3    H155069   0.934   5.668   5.894  0.9713 -0.7406 -0.8011
11218TIP3    H255070   0.892   5.694   5.751  0.2841  0.7426 -0.3452
11219TIP3   OH255071   1.302   5.410  15.022 -0.9197 -0.2580  0.4384
11219TIP3    H155072   1.375   5.378  15.076 -1.1650 -1.0397  0.3230
11219TIP3    H255073   1.294   5.502  15.045  0.9751  0.1683 -0.5397
11220TIP3   OH255074   5.883   4.261  11.949  0.3872 -0.2973  0.0734
11220TIP3    H155075   5.931   4.343  11.953  0.6833 -0.3938 -1.3786
11220TIP3    H255076   5.916   4.217  11.871 -1.8329 -0.4972 -0.8065
11221TIP3   OH255077   0.067   4.065   3.870 -0.3853 -0.4409  0.3643
11221TIP3    H155078   0.006   4.016   3.815  0.3231  0.6305 -1.4056
11221TIP3    H255079   0.044   4.157   3.855  1.5040 -0.0303 -0.1606
11222TIP3   OH255080   6.426   3.661  14.023 -0.5888  0.2418  0.4043
11222TIP3    H155081   6.332   3.662  14.038 -0.8455 -1.0898 -1.0088
11222TIP3    H255082   6.444   3.575  13.985  1.7227 -0.9494  3.9298
11223TIP3   OH255083   5.573   3.032   3.789  0.1478 -0.2022 -0.2392
11223TIP3    H155084   5.554   3.038   3.883 -0.6763 -0.9751 -0.3478
11223TIP3    H255085   5.487   3.029   3.747  0.5142 -0.0046 -1.0072
11224TIP3   OH255086   4.030   3.348  16.064 -0.3819 -0.3896  0.4786
11224TIP3    H155087   4.049   3.441  16.060  1.6108 -0.8604 -1.9020
11224TIP3    H255088   4.019   3.330  16.158  4.7445  1.2034  1.5411
11225TIP3   OH255089   4.274   4.730   1.431  0.5548  0.0484  0.3374
11225TIP3    H155090   4.351   4.676   1.447  0.9940  1.1863  2.0976
11225TIP3    H255091   4.201   4.668   1.432  1.0196 -0.4856  2.6159
11226TIP3   OH255092   3.880   0.250   4.518  0.4174 -0.1537 -0.5265
11226TIP3    H155093   3.927   0.169   4.540 -0.6660 -1.0412 -1.3891
11226TIP3    H255094   3.939   0.320   4.545  1.8144 -1.2409 -0.6914
11227TIP3   OH255095   3.910   4.519   3.982  0.1921  0.2765 -0.0447
11227TIP3    H155096   3.952   4.584   4.038  1.0789 -0.8150  0.5818
11227TIP3    H255097   3.974   4.501   3.914  0.5200 -0.9466  0.5675
11228TIP3   OH255098   5.523   2.223   2.456  0.4309  0.0995 -0.8677
11228TIP3    H155099   5.458   2.293   2.454  1.5466  1.2421  1.4241
11228TIP3    H255100   5.494   2.165   2.526  1.2333 -0.0204 -0.6326
11229TIP3   OH255101   6.781   5.936  11.606 -0.0287  0.3271  0.1008
11229TIP3    H155102   6.818   5.853  11.576 -0.7280 -0.0030  0.1414
11229TIP3    H255103   6.853   5.981  11.649  0.1060 -0.6752  0.9176
11230TIP3   OH255104   5.773   4.612  12.433 -0.2049 -0.8000  0.0126
11230TIP3    H155105   5.752   4.639  12.343  0.4149 -0.2638  0.0225
11230TIP3    H255106   5.858   4.653  12.451 -0.4155 -0.7403  0.9101
11231TIP3   OH255107   2.106   2.785  10.450  0.1986  0.7299 -0.2899
11231TIP3    H155108   2.042   2.751  10.388  1.2011  0.3069 -1.0944
11231TIP3    H255109   2.169   2.714  10.461  0.7185  1.2715  0.2570
11232TIP3   OH255110   1.207   2.845   5.578 -0.4866  0.1259  0.3522
11232TIP3    H155111   1.219   2.874   5.488 -0.7588  0.1663  0.3299
11232TIP3    H255112   1.159   2.916   5.620 -1.2957 -0.3585  0.2557
11233TIP3   OH255113   4.946   5.703  13.315 -0.6591 -0.1245 -0.2570
11233TIP3    H155114   4.899   5.631  13.272  1.4912 -2.4383  1.1221
11233TIP3    H255115   4.888   5.729  13.387 -2.3445  0.8989 -1.9345
11234TIP3   OH255116   3.636   4.759   1.252  0.1001  0.4156 -0.7147
11234TIP3    H155117   3.724   4.743   1.287  0.7861  2.1500 -1.5949
11234TIP3    H255118   3.648   4.764   1.157 -0.8867  0.9970 -0.8204
11235TIP3   OH255119   2.759   1.087   6.600  0.2381 -0.2217  0.4365
11235TIP3    H155120   2.726   1.059   6.515 -0.1478  1.8809 -0.1458
11235TIP3    H255121   2.764   1.007   6.652 -3.6982 -0.9245 -0.1382
11236TIP3   OH255122   3.834   1.207   1.790  0.2852 -0.1518  0.1059
11236TIP3    H155123   3.870   1.139   1.847  1.8088  0.6752  0.1587
11236TIP3    H255124   3.868   1.185   1.703  0.1357  0.0894 -0.0119
11237TIP3   OH255125   6.274   1.706   5.031 -0.3795 -0.3157 -0.3490
11237TIP3    H155126   6.207   1.767   5.061 -1.0348 -1.2538  0.1114
11237TIP3    H255127   6.357   1.748   5.056 -0.8546 -0.1660  1.0302
11238TIP3   OH255128   6.000   2.974   0.301 -0.0401 -0.3424  0.6517
11238TIP3    H155129   6.069   2.974   0.234  0.1460  0.1532  0.8445
11238TIP3    H255130   6.020   3.050   0.356  0.3047 -1.2364  1.7821
11239TIP3   OH255131   1.962   1.245   2.219  0.3844 -0.1005  0.4625
11239TIP3    H155132   1.883   1.244   2.165  0.5203  0.2128  0.2590
11239TIP3    H255133   2.018   1.312   2.179  0.5976 -0.0579  0.8292
11240TIP3   OH255134   0.534   4.379  14.166 -0.1253 -0.4018 -0.1136
11240TIP3    H155135   0.531   4.290  14.130 -0.3873  0.3033 -1.8722
11240TIP3    H255136   0.614   4.417  14.129 -0.6157  0.4692 -0.2935
11241TIP3   OH255137   4.318   0.433  13.330  0.4665 -0.4409  0.5351
11241TIP3    H155138   4.356   0.500  13.272 -2.9271  0.8782 -0.2526
11241TIP3    H255139   4.323   0.352  13.280 -1.7649  0.5551 -1.3672
11242TIP3   OH255140   0.607   3.536   0.840  0.2946 -0.2638 -0.2691
11242TIP3    H155141   0.698   3.516   0.864 -0.5539 -0.6631  2.8307
11242TIP3    H255142   0.611   3.624   0.802  2.2003 -0.9622 -1.7616
11243TIP3   OH255143   0.696   0.072   2.494  0.5741 -0.0795  0.1385
11243TIP3    H155144   0.612   0.091   2.537  0.4823  0.7083 -0.3638
11243TIP3    H255145   0.749   0.150   2.511  0.9779 -0.3007 -0.1003
11244TIP3   OH255146   5.111   6.215   3.515 -0.3737 -0.1593  0.6377
11244TIP3    H155147   5.089   6.126   3.487  0.8351 -0.0068 -0.8492
11244TIP3    H255148   5.102   6.213   3.610 -0.4891 -1.8393  0.5996
11245TIP3   OH255149   6.758   6.429   0.433 -0.2175  0.1373 -0.0045
11245TIP3    H155150   6.788   6.343   0.462  1.3560  1.3450  2.0478
11245TIP3    H255151   6.747   6.479   0.513 -0.9944  1.9130 -1.1950
11246TIP3   OH255152   4.056   1.364   4.125 -0.3629  0.8160 -0.4056
11246TIP3    H155153   4.080   1.394   4.212  1.2759 -1.6442  0.0337
11246TIP3    H255154   4.133   1.317   4.093 -1.6220  0.0191 -2.4060
11247TIP3   OH255155   3.378   3.782  17.003 -0.0915  0.6396 -0.4594
11247TIP3    H155156   3.403   3.863  17.047  1.1542 -0.2730  0.5390
11247TIP3    H255157   3.459   3.732  16.997 -0.9798 -0.8301 -0.4463
11248TIP3   OH255158   4.160   5.531   3.805 -0.5574  0.8557 -0.5030
11248TIP3    H155159   4.140   5.488   3.722 -0.0130  1.5802 -1.0178
11248TIP3    H255160   4.195   5.461   3.860 -1.2564  0.2980 -0.7605
11249TIP3   OH255161   0.071   0.484  11.340  0.6485  0.0080 -0.0412
11249TIP3    H155162   0.018   0.406  11.354  0.4408  0.0678 -0.4776
11249TIP3    H255163   0.085   0.519  11.428  0.5579 -0.3979  0.1370
11250TIP3   OH255164   5.406   2.763   0.636 -0.3223 -0.1493  0.2310
11250TIP3    H155165   5.493   2.787   0.604 -0.2981  0.8966  1.0437
11250TIP3    H255166   5.353   2.753   0.557  0.1432  0.7979 -0.2094
11251TIP3   OH255167   1.173   4.591  13.319  0.0753  0.4762  0.2779
11251TIP3    H155168   1.161   4.534  13.395  2.0871 -0.0269  0.2260
11251TIP3    H255169   1.094   4.577  13.266 -0.8398  0.0293  1.7381
11252TIP3   OH255170   5.666   1.968   3.314  0.1047  0.3318  0.4846
11252TIP3    H155171   5.711   1.942   3.394 -0.2159 -1.8053  0.0109
11252TIP3    H255172   5.591   2.019   3.344  0.5770  0.4499  1.4779
11253TIP3   OH255173   6.580   0.507   2.994 -0.0109 -0.2327 -0.5871
11253TIP3    H155174   6.538   0.478   2.913 -0.8700  1.4413 -0.7682
11253TIP3    H255175   6.529   0.583   3.021  0.3657 -0.6702  1.4480
11254TIP3   OH255176   1.557   5.571  15.826  0.3054 -0.0706  0.6050
11254TIP3    H155177   1.539   5.507  15.896 -0.7852 -1.2754 -0.7501
11254TIP3    H255178   1.545   5.522  15.745 -0.1117  1.7579 -0.4673
11255TIP3   OH255179   5.950   6.466   0.759 -0.4280  0.7766  0.1777
11255TIP3    H155180   5.888   6.406   0.718 -0.5123  0.9242  0.0848
11255TIP3    H255181   5.904   6.551   0.758  0.7265  1.4426 -2.1976
11256TIP3   OH255182   2.548   3.963   6.036  0.2366  0.0502 -0.0956
11256TIP3    H155183   2.546   3.895   6.104 -0.2884 -0.1635 -0.3216
11256TIP3    H255184   2.474   4.020   6.057 -0.3995 -0.4638 -0.9513
11257TIP3   OH255185   5.982   2.675   0.693 -0.6980 -0.3253  0.1128
11257TIP3    H155186   6.006   2.590   0.656 -1.7396 -0.6479  0.1358
11257TIP3    H255187   5.959   2.729   0.617  1.2427  0.3790 -0.0034
11258TIP3   OH255188   3.327   1.232   0.626 -0.0141  0.1282  0.5635
11258TIP3    H155189   3.408   1.202   0.584  0.5148 -2.5738  3.3626
11258TIP3    H255190   3.270   1.256   0.553  2.7486  0.6930 -1.5159
11259TIP3   OH255191   6.274   0.154  10.769  0.5778  0.7855  0.2425
11259TIP3    H155192   6.309   0.114  10.689  0.3623  0.2094  0.4324
11259TIP3    H255193   6.210   0.217  10.737 -0.4544 -0.3710 -0.0043
11260TIP3   OH255194   3.834   2.806  15.175 -0.4480 -0.2706  0.1880
11260TIP3    H155195   3.877   2.853  15.104 -2.7399  1.3080 -0.2387
11260TIP3    H255196   3.778   2.743  15.131 -1.8530  0.6949  0.5539
11261TIP3   OH255197   5.721   5.896   0.275 -1.2728  0.3832  0.1042
11261TIP3    H155198   5.674   5.817   0.303 -1.8939 -0.4874 -3.1750
11261TIP3    H255199   5.651   5.960   0.260 -0.7998  1.4807  2.3354
11262TIP3   OH255200   5.508   5.971  14.638  0.2875 -0.0287  0.1536
11262TIP3    H155201   5.467   5.897  14.682 -0.8191 -0.9227 -2.2710
11262TIP3    H255202   5.518   6.038  14.706  0.3041 -1.9871  2.1279
11263TIP3   OH255203   3.176   2.480  15.657  0.1781  0.0398 -0.4025
11263TIP3    H155204   3.130   2.482  15.573 -0.0353  0.1430 -0.2831
11263TIP3    H255205   3.150   2.397  15.696  1.0744 -0.4713 -0.8850
11264TIP3   OH255206   4.156   4.808   4.433 -0.2977  0.1968 -0.8487
11264TIP3    H155207   4.215   4.883   4.444  1.3686 -1.1373 -0.5583
11264TIP3    H255208   4.187   4.764   4.354  0.4688 -1.7528  0.5216
11265TIP3   OH255209   1.261   1.248   4.288  0.0921 -0.0847 -0.1163
11265TIP3    H155210   1.322   1.270   4.358  0.0046  0.5857 -0.2384
11265TIP3    H255211   1.298   1.289   4.210 -0.4894  0.3160 -0.1950
11266TIP3   OH255212   1.405   0.007  12.441 -0.4793  0.2137  0.0211
11266TIP3    H155213   1.496   0.026  12.416 -0.6807  2.4864  0.8521
11266TIP3    H255214   1.352   0.059  12.379 -1.1779 -0.0542  0.3898
11267TIP3   OH255215   6.301   3.924   6.949  0.4942 -0.2215  0.0065
11267TIP3    H155216   6.342   3.877   6.877 -0.0397 -1.5057  0.5298
11267TIP3    H255217   6.276   4.009   6.911  0.3947 -0.8049 -1.2618
11268TIP3   OH255218   5.537   2.851   6.121 -0.7156 -0.0625 -0.1370
11268TIP3    H155219   5.586   2.923   6.162 -0.5161 -1.0487  1.3866
11268TIP3    H255220   5.600   2.780   6.114 -0.8678 -0.0422 -1.8040
11269TIP3   OH255221   1.617   6.767   2.405  0.2476 -0.7912 -0.1886
11269TIP3    H155222   1.659   6.853   2.415  0.0157 -0.4097 -2.3211
11269TIP3    H255223   1.543   6.783   2.347 -0.1874 -2.3205 -0.0742
11270TIP3   OH255224   2.925   0.482  15.019  0.4235 -0.5399 -0.1467
11270TIP3    H155225   3.019   0.464  15.014  0.4413 -0.3460 -0.4967
11270TIP3    H255226   2.893   0.465  14.930  0.3264  0.5189 -0.3179
11271TIP3   OH255227   5.744   2.021  16.316 -0.2409 -0.7359  0.0027
11271TIP3    H155228   5.810   2.042  16.382  0.2136 -0.2248 -0.5942
11271TIP3    H255229   5.758   1.929  16.295  1.6911 -0.1134 -1.6270
11272TIP3   OH255230   2.667   2.944  16.036  0.1899  0.1519 -0.1032
11272TIP3    H155231   2.681   2.936  15.942 -1.7559 -0.4697 -0.3730
11272TIP3    H255232   2.688   2.857  16.071 -1.3329 -0.3247 -0.3075
11273TIP3   OH255233   2.328   4.044  12.742  0.2711 -0.3106 -0.9376
11273TIP3    H155234   2.407   4.080  12.701  0.5551  0.1289 -0.0042
11273TIP3    H255235   2.347   4.043  12.836 -0.0626 -2.0894 -0.8587
11274TIP3   OH255236   2.835   1.196   0.541 -0.1084  0.2334  0.2571
11274TIP3    H155237   2.789   1.166   0.619 -2.3421  0.2472 -1.0317
11274TIP3    H255238   2.875   1.279   0.567  0.4462 -0.5020  1.8178
11275TIP3   OH255239   2.190   5.832  13.398  0.2538  0.3642  0.0911
11275TIP3    H155240   2.284   5.848  13.391 -0.0115  2.1578  0.2543
11275TIP3    H255241   2.181   5.737  13.396  2.0158  0.1989 -0.5311
11276TIP3   OH255242   5.728   0.760   4.221 -0.2318 -0.0871  0.4482
11276TIP3    H155243   5.687   0.845   4.204  1.6531  0.3504 -2.1315
11276TIP3    H255244   5.768   0.771   4.308  2.4825  2.7308 -1.0446
11277TIP3   OH255245   0.057   1.470   5.081  0.4519  0.9083 -0.6662
11277TIP3    H155246  -0.005   1.540   5.102 -0.5997  0.2781 -1.6462
11277TIP3    H255247   0.003   1.399   5.047  1.7043  0.3326 -1.4977
11278TIP3   OH255248   0.929   1.843   5.084 -0.1753 -0.3767 -0.1057
11278TIP3    H155249   0.939   1.910   5.151 -1.2353 -0.0582 -0.2651
11278TIP3    H255250   0.920   1.761   5.133 -2.8391  0.0782  0.2216
11279TIP3   OH255251   2.119   3.170   2.005  0.9111 -0.0781 -0.1388
11279TIP3    H155252   2.025   3.182   2.018  1.0316  0.9320 -0.1951
11279TIP3    H255253   2.157   3.255   2.026  1.6533 -0.0063 -1.7256
11280TIP3   OH255254   4.546   6.565   5.047  0.0872  0.1847 -0.0761
11280TIP3    H155255   4.517   6.570   5.138  0.5247  1.6921 -0.0194
11280TIP3    H255256   4.634   6.528   5.052  1.4207  3.3400  0.3793
11281TIP3   OH255257   6.257   3.778  13.769 -0.1290  0.4188  0.5055
11281TIP3    H155258   6.243   3.690  13.803  1.5318 -0.3021 -0.6154
11281TIP3    H255259   6.348   3.779  13.741 -0.7567  1.7757 -1.6179
11282TIP3   OH255260   4.476   3.173   6.519  0.0350  0.7822  0.3581
11282TIP3    H155261   4.564   3.201   6.544  0.4626  0.9312 -1.3092
11282TIP3    H255262   4.473   3.080   6.541 -0.3366  1.3676  2.9739
11283TIP3   OH255263   1.972   6.250  13.247  0.0017 -0.0801  0.0796
11283TIP3    H155264   1.908   6.260  13.176 -0.2928  0.5227  0.4316
11283TIP3    H255265   1.952   6.164  13.285 -0.8521  0.2717  0.4372
11284TIP3   OH255266   5.166   1.549  12.869  0.8024 -0.6362  0.4210
11284TIP3    H155267   5.076   1.558  12.899  0.9452  1.1585  0.3463
11284TIP3    H255268   5.168   1.594  12.785  2.0488  0.3378  0.9581
11285TIP3   OH255269   1.681   0.290  13.765 -0.3783 -0.4827  0.4808
11285TIP3    H155270   1.755   0.246  13.723 -0.5099  0.2523 -0.5526
11285TIP3    H255271   1.721   0.354  13.824 -0.1920 -0.1431 -0.0158
11286TIP3   OH255272   5.313   1.093   1.618  0.4118 -0.5168  0.3887
11286TIP3    H155273   5.306   1.031   1.545  0.2704 -1.6489  1.3425
11286TIP3    H255274   5.373   1.050   1.679  0.3031  0.2999  1.0686
11287TIP3   OH255275   4.985   6.551  10.626 -0.1423  0.5175 -0.3968
11287TIP3    H155276   5.060   6.491  10.629 -0.0302  0.6514 -0.4903
11287TIP3    H255277   4.915   6.500  10.587 -0.9264 -0.5040  2.2065
11288TIP3   OH255278   3.925   4.681  15.038  0.6256  0.0144  0.3796
11288TIP3    H155279   3.975   4.605  15.009  0.2531  0.1933 -0.7205
11288TIP3    H255280   3.978   4.719  15.108  2.1984  0.3823 -0.9897
11289TIP3   OH255281   3.926   1.223   1.034  0.1176 -0.2700  0.7104
11289TIP3    H155282   3.855   1.246   1.094 -0.4060  0.0730 -0.0242
11289TIP3    H255283   3.886   1.231   0.947  0.9067 -0.6151  0.3170
11290TIP3   OH255284   1.394   1.628   2.442  0.3819 -0.5511 -0.4890
11290TIP3    H155285   1.451   1.593   2.511 -0.1317 -1.5970 -0.5873
11290TIP3    H255286   1.381   1.555   2.382  0.9056  0.3877 -1.7621
11291TIP3   OH255287   4.427   2.572   3.812  0.1939  0.1131 -0.1555
11291TIP3    H155288   4.405   2.523   3.733 -0.0369  0.2156 -0.1549
11291TIP3    H255289   4.469   2.652   3.780  0.8743 -0.2390 -0.1458
11292TIP3   OH255290   4.752   1.202   6.333  0.8230  0.2989  0.4406
11292TIP3    H155291   4.787   1.220   6.420 -0.7350  1.5828  0.8119
11292TIP3    H255292   4.794   1.268   6.276 -0.5989  1.5529  0.8087
11293TIP3   OH255293   4.695   3.222  13.334  0.0268  0.3891  0.2966
11293TIP3    H155294   4.751   3.278  13.281  0.5330 -0.1857  0.2148
11293TIP3    H255295   4.652   3.281  13.395 -1.2210  1.1895 -1.3127
11294TIP3   OH255296   5.158   0.483   2.126 -0.2854  0.5266  0.1205
11294TIP3    H155297   5.132   0.472   2.218  2.4756 -0.2055  0.8608
11294TIP3    H255298   5.175   0.577   2.117  0.0400  0.5043  0.5141
11295TIP3   OH255299   3.829   1.496   1.405 -0.4269  0.1443  0.6937
11295TIP3    H155300   3.822   1.588   1.431 -2.0434 -0.2922  1.9748
11295TIP3    H255301   3.894   1.460   1.465 -0.9266  0.1338  1.2481
11296TIP3   OH255302   0.852   2.981   2.732  0.1783  0.1836 -0.2209
11296TIP3    H155303   0.896   3.065   2.716 -0.8532  0.4535 -1.7747
11296TIP3    H255304   0.775   3.004   2.784 -0.4614  0.3122 -1.2025
11297TIP3   OH255305   0.606   5.271   1.217  0.2494 -0.2136 -0.0925
11297TIP3    H155306   0.591   5.177   1.209 -1.5587  0.0517  0.0893
11297TIP3    H255307   0.609   5.286   1.312 -0.0288  0.0034 -0.1193
11298TIP3   OH255308   6.451   1.483   4.071 -0.4203 -0.1862 -0.5488
11298TIP3    H155309   6.402   1.402   4.088 -0.2027 -0.2358 -0.1528
11298TIP3    H255310   6.386   1.552   4.083 -0.1378 -0.1816  1.0886
11299TIP3   OH255311   6.534   6.365   3.312 -0.0365 -0.0012  0.3581
11299TIP3    H155312   6.560   6.397   3.226  0.8380  1.4143  1.1396
11299TIP3    H255313   6.541   6.269   3.305  1.9432  0.1847 -0.5329
11300TIP3   OH255314   1.949   6.157  16.573  0.2183  0.1729 -0.0939
11300TIP3    H155315   2.024   6.125  16.623  0.4790  0.8755 -0.0384
11300TIP3    H255316   1.911   6.078  16.535  0.3029 -0.3114  0.8168
11301TIP3   OH255317   2.471   3.997   4.910  0.3106  0.2246 -0.1879
11301TIP3    H155318   2.418   3.942   4.853 -0.8780  3.4752 -2.3690
11301TIP3    H255319   2.510   3.936   4.973 -2.2556 -2.8360 -1.4281
11302TIP3   OH255320   3.076   3.833   3.951  0.3804 -0.1455  0.0387
11302TIP3    H155321   3.043   3.920   3.930 -0.8893 -0.5357  0.3762
11302TIP3    H255322   3.023   3.774   3.897 -0.3588 -0.8799  1.5460
11303TIP3   OH255323   1.381   6.757  11.820  0.0766  0.2499 -0.1351
11303TIP3    H155324   1.450   6.697  11.847 -2.0944 -2.2502 -0.0290
11303TIP3    H255325   1.324   6.706  11.762 -0.3055  2.9947 -2.3096
11304TIP3   OH255326   3.442   5.002  11.155  0.7107 -0.3055 -0.1870
11304TIP3    H155327   3.435   5.075  11.215 -1.6363 -1.0537  0.5101
11304TIP3    H255328   3.409   5.035  11.071  0.5980 -0.2836 -0.1338
11305TIP3   OH255329   3.210   2.119  12.858 -0.3293 -0.1741 -0.2179
11305TIP3    H155330   3.169   2.037  12.886  0.2877 -0.2399  0.4987
11305TIP3    H255331   3.272   2.140  12.928  0.6980  0.0407 -1.1810
11306TIP3   OH255332   5.651   0.411  11.328  0.0908 -0.2789 -0.3917
11306TIP3    H155333   5.640   0.319  11.352 -0.1182  0.6257  3.2752
11306TIP3    H255334   5.565   0.450  11.345  0.1394  0.5865 -2.0722
11307TIP3   OH255335   1.914   2.683  11.904 -0.1682  0.0903 -0.2207
11307TIP3    H155336   1.855   2.657  11.975 -0.3570  0.3973 -0.2642
11307TIP3    H255337   1.934   2.601  11.858  0.4036 -0.1894  0.5266
11308TIP3   OH255338   0.425   1.851  15.717 -0.2521 -0.1830  0.2198
11308TIP3    H155339   0.480   1.879  15.790  0.5555  0.5132 -0.6589
11308TIP3    H255340   0.399   1.761  15.740  1.4164 -0.5914  0.5306
11309TIP3   OH255341   2.420   3.690   3.626 -0.1362 -0.2767 -0.3192
11309TIP3    H155342   2.384   3.741   3.698 -0.8001 -1.8567  0.5058
11309TIP3    H255343   2.427   3.751   3.553  1.6058  1.6448  1.3835
11310TIP3   OH255344   3.978   5.432  14.243  0.4322  0.2482 -0.9259
11310TIP3    H155345   4.071   5.456  14.253  0.5235 -1.0116  1.8203
11310TIP3    H255346   3.980   5.354  14.187  1.1011 -0.1365 -0.3851
11311TIP3   OH255347   5.577   4.260   1.869 -0.4309 -0.0687  0.1677
11311TIP3    H155348   5.543   4.290   1.785  1.3253 -1.8539 -1.2353
11311TIP3    H255349   5.620   4.337   1.907  0.6202  0.2473 -1.5802
11312TIP3   OH255350   5.470   5.330  13.622  0.3604 -0.1311 -0.2022
11312TIP3    H155351   5.518   5.253  13.651  1.0796  0.1876 -0.5281
11312TIP3    H255352   5.530   5.375  13.563 -1.0097 -0.6731 -2.0821
11313TIP3   OH255353   5.166   3.980  15.435  0.3525 -0.2600 -0.4260
11313TIP3    H155354   5.219   3.919  15.383  0.3678 -0.4105 -0.2353
11313TIP3    H255355   5.194   4.067  15.407 -0.2587 -0.3374 -1.3023
11314TIP3   OH255356   1.437   4.256   4.293  0.0969  0.1780  0.1848
11314TIP3    H155357   1.392   4.328   4.337  0.3851 -0.2735  1.2222
11314TIP3    H255358   1.504   4.228   4.354  0.2606 -0.7031 -0.3859
11315TIP3   OH255359   5.884   1.616   4.713  0.3178  0.2754 -0.0367
11315TIP3    H155360   5.893   1.699   4.666  0.2651 -0.2008 -0.8897
11315TIP3    H255361   5.964   1.609   4.765  0.4067  0.7731 -0.1074
11316TIP3   OH255362   0.038   5.612   5.197  0.4506  0.8795 -0.3082
11316TIP3    H155363   0.030   5.543   5.264 -1.3121  0.2472 -1.1487
11316TIP3    H255364   0.126   5.601   5.163 -0.5077 -2.4173 -1.9365
11317TIP3   OH255365   0.215   3.642  16.687  0.5152  0.4486 -0.0093
11317TIP3    H155366   0.222   3.720  16.631  1.6919 -0.5668 -1.3297
11317TIP3    H255367   0.122   3.622  16.689  0.4368  0.5536 -1.5835
11318TIP3   OH255368   5.004   5.317  17.003  0.1292  0.1341  0.7983
11318TIP3    H155369   4.930   5.320  16.943  2.5602  0.3128 -2.3293
11318TIP3    H255370   4.972   5.267  17.078 -3.4285  1.0947 -0.0039
11319TIP3   OH255371   1.691   4.675   0.471  0.7553  0.5257 -0.4673
11319TIP3    H155372   1.694   4.763   0.434  1.1782  0.4732 -0.5656
11319TIP3    H255373   1.783   4.649   0.479  0.7741  1.2479  2.3629
11320TIP3   OH255374   1.074   0.896   3.706 -0.1932 -0.6364  0.2890
11320TIP3    H155375   1.079   0.981   3.661  0.8086 -0.0392  1.4964
11320TIP3    H255376   0.986   0.864   3.686 -1.0662  1.2945  0.8813
11321TIP3   OH255377   0.928   6.547   3.681  0.5192 -0.2588 -0.5801
11321TIP3    H155378   0.883   6.464   3.662 -0.0973 -0.2090  0.6342
11321TIP3    H255379   0.868   6.595   3.737  1.2511  0.6549 -0.5641
11322TIP3   OH255380   0.563   1.813   4.995  0.0770  0.3079 -0.1226
11322TIP3    H155381   0.577   1.841   4.905  1.4803  1.8034  0.5301
11322TIP3    H255382   0.528   1.724   4.988  1.8791 -0.2894 -2.1165
11323TIP3   OH255383   5.949   5.905   4.979 -0.0546 -0.1169  0.3804
11323TIP3    H155384   5.866   5.881   5.020  0.1060 -1.1865  0.0821
11323TIP3    H255385   5.926   5.927   4.888 -0.1931  0.8427  0.6384
11324TIP3   OH255386   5.782   1.817   1.587  0.2540  0.2788 -0.3549
11324TIP3    H155387   5.716   1.773   1.642  1.9794 -0.5633  1.0878
11324TIP3    H255388   5.782   1.766   1.506 -0.1189 -0.3660  0.0367
11325TIP3   OH255389   6.300   2.670   6.365 -0.7292 -0.2114  0.5695
11325TIP3    H155390   6.226   2.661   6.424 -2.5555 -0.3502 -1.6919
11325TIP3    H255391   6.360   2.730   6.410 -1.4872 -1.3124  3.0879
11326TIP3   OH255392   1.287   2.565  13.184  0.1560 -0.0719  0.1372
11326TIP3    H155393   1.353   2.598  13.244  0.5171  0.1304 -0.3684
11326TIP3    H255394   1.244   2.643  13.149  3.6615  0.1894 -4.0996
11327TIP3   OH255395   0.863   4.240  12.900 -0.1777 -0.0958 -0.3720
11327TIP3    H155396   0.937   4.183  12.879  0.0771 -0.2033  0.7646
11327TIP3    H255397   0.804   4.185  12.952 -0.0516  0.5800  0.5126
11328TIP3   OH255398   6.511   2.319  13.582  0.2060 -0.1516  0.6619
11328TIP3    H155399   6.461   2.381  13.634  0.7326  0.7920  0.0643
11328TIP3    H255400   6.601   2.328  13.612  0.2747 -0.7064  0.6439
11329TIP3   OH255401   4.204   1.824  14.651 -0.2133 -0.5897  0.1968
11329TIP3    H155402   4.246   1.889  14.708 -0.5509 -1.3429  1.3250
11329TIP3    H255403   4.134   1.873  14.608  0.3091  0.0934  0.1170
11330TIP3   OH255404   4.396   1.982  13.248  0.0720 -0.2021 -0.3500
11330TIP3    H155405   4.448   1.993  13.168  0.4091 -1.0024 -0.2562
11330TIP3    H255406   4.376   1.888  13.250  1.8845 -0.5994  1.5838
11331TIP3   OH255407   4.303   1.440   3.453  0.1724 -0.6203  0.1498
11331TIP3    H155408   4.271   1.528   3.430 -0.6761 -1.1309 -0.6566
11331TIP3    H255409   4.297   1.437   3.548  1.4438  0.6624  0.2852
11332TIP3   OH255410   0.376   0.240  13.863  0.6307 -0.3389  0.5974
11332TIP3    H155411   0.396   0.147  13.869 -0.0686 -0.4307  1.9507
11332TIP3    H255412   0.433   0.281  13.929  1.9291  0.3811 -0.9340
11333TIP3   OH255413   4.134   1.178  11.642 -0.5163 -0.9397  0.3131
11333TIP3    H155414   4.122   1.244  11.710  3.8872  0.3094  0.0198
11333TIP3    H255415   4.132   1.095  11.689 -1.4708 -0.3296  1.3711
11334TIP3   OH255416   3.953   2.347  12.926 -0.0024 -0.3867 -0.6955
11334TIP3    H155417   3.966   2.257  12.955  2.4803 -0.3942 -1.7720
11334TIP3    H255418   3.859   2.363  12.940 -0.3131 -2.8488  0.2569
11335TIP3   OH255419   2.580   6.309   3.988  0.2817 -0.2817  0.5761
11335TIP3    H155420   2.534   6.308   3.904 -3.8589  2.5193  2.6431
11335TIP3    H255421   2.668   6.341   3.967  0.5307 -3.1762 -3.1403
11336TIP3   OH255422   1.789   0.287   1.935  0.3143 -0.9155  0.7051
11336TIP3    H155423   1.878   0.317   1.955 -0.2364  0.9274  0.5064
11336TIP3    H255424   1.747   0.276   2.020 -0.2491  1.3538  0.7469
11337TIP3   OH255425   5.589   0.959  14.327 -0.0256 -0.4318  0.3601
11337TIP3    H155426   5.552   0.880  14.289 -0.4372 -1.2925  2.4594
11337TIP3    H255427   5.516   0.998  14.376  0.4383  0.7323  0.1582
11338TIP3   OH255428   4.466   3.454   2.456 -0.0361 -0.1709 -0.1815
11338TIP3    H155429   4.441   3.362   2.464  0.8116 -0.3003  1.1601
11338TIP3    H255430   4.390   3.496   2.417 -0.0225 -1.6307 -1.8446
11339TIP3   OH255431   0.914   2.540  15.116 -0.2531  0.0798  0.6781
11339TIP3    H155432   0.864   2.595  15.176  0.1847  0.7942  0.3978
11339TIP3    H255433   0.971   2.601  15.069  1.1964 -0.7619  1.3043
11340TIP3   OH255434   4.747   0.694  14.747  0.5384  0.3883 -0.2795
11340TIP3    H155435   4.670   0.642  14.724  1.4868 -0.6424 -1.2310
11340TIP3    H255436   4.777   0.658  14.830 -0.6304  1.5108  0.6321
11341TIP3   OH255437   2.049   5.141   6.332  0.1001 -0.2010  0.6864
11341TIP3    H155438   2.030   5.082   6.405  0.1802  2.4848  2.9449
11341TIP3    H255439   1.964   5.174   6.305  0.2463  0.2864  0.8258
11342TIP3   OH255440   4.568   4.637  11.176 -0.0331 -0.3053 -0.5700
11342TIP3    H155441   4.629   4.631  11.249 -1.4435  0.3178  0.6847
11342TIP3    H255442   4.497   4.692  11.208 -0.9328 -0.4534 -2.2344
11343TIP3   OH255443   1.157   6.181  15.854  0.2769 -0.4963  0.1271
11343TIP3    H155444   1.085   6.215  15.907 -0.4411 -0.9042 -0.5614
11343TIP3    H255445   1.144   6.221  15.768 -0.1484 -1.9088 -0.4792
11344TIP3   OH255446   1.266   2.211   0.049 -0.7765  0.2642 -0.0106
11344TIP3    H155447   1.356   2.222   0.020 -0.5253 -0.4253  0.5053
11344TIP3    H255448   1.255   2.117   0.060 -1.5911  0.3318 -0.1631
11345TIP3   OH255449   5.590   2.649   2.183 -0.0379 -0.0684 -0.4214
11345TIP3    H155450   5.661   2.693   2.136  0.8699 -1.5240 -0.4747
11345TIP3    H255451   5.534   2.719   2.214  1.1974  1.0978 -0.7685
11346TIP3   OH255452   5.559   0.524  15.195  0.0306 -0.1808  0.0702
11346TIP3    H155453   5.475   0.482  15.214 -0.0214  0.1907  0.6786
11346TIP3    H255454   5.611   0.511  15.274  1.5556 -2.8171 -1.2721
11347TIP3   OH255455   0.523   3.129   2.540 -0.4011 -0.3120 -0.7345
11347TIP3    H155456   0.548   3.216   2.571  0.1484 -0.3907 -0.9446
11347TIP3    H255457   0.430   3.122   2.559 -0.6495  0.6812 -1.5476
11348TIP3   OH255458   0.878   3.917   1.547  0.5969  0.3201  0.1014
11348TIP3    H155459   0.888   3.837   1.599  1.0763  0.3661  0.0836
11348TIP3    H255460   0.784   3.924   1.532  0.6769 -1.2526 -1.4603
11349TIP3   OH255461   0.815   1.939  13.009  0.3414  0.4054  0.1943
11349TIP3    H155462   0.810   1.880  13.085  0.6918  0.0290 -0.0775
11349TIP3    H255463   0.873   2.010  13.037 -1.2108  1.3818  1.0362
11350TIP3   OH255464   3.453   1.026  16.566 -0.0167 -0.1537  0.2148
11350TIP3    H155465   3.460   0.973  16.646 -1.8621  1.3522  1.4168
11350TIP3    H255466   3.403   0.971  16.505  0.6732 -0.9713  0.3711
11351TIP3   OH255467   0.445   5.974   3.574 -1.1067  0.3478 -0.4111
11351TIP3    H155468   0.407   5.949   3.658 -0.4986  0.2209 -0.1728
11351TIP3    H255469   0.473   5.891   3.536  1.8842  0.7372  0.8430
11352TIP3   OH255470   2.888   4.223  16.262  0.0040 -0.0297 -0.5990
11352TIP3    H155471   2.816   4.266  16.216 -0.6635 -1.4127 -0.8632
11352TIP3    H255472   2.853   4.138  16.288  1.6528 -0.8735 -1.0301
11353TIP3   OH255473   0.727   2.469   2.311  0.2207  0.0417 -0.9715
11353TIP3    H155474   0.746   2.549   2.264  0.9815 -0.6023 -1.7777
11353TIP3    H255475   0.679   2.497   2.389  1.2922  1.3515 -0.7780
11354TIP3   OH255476   4.042   2.134  10.493 -0.2429  0.6812 -0.2651
11354TIP3    H155477   3.956   2.142  10.452 -1.7421  2.4246  3.0923
11354TIP3    H255478   4.039   2.051  10.540 -0.8258  1.6898  1.4928
11355TIP3   OH255479   5.205   3.286  14.314  0.2403  0.0452  0.1343
11355TIP3    H155480   5.266   3.273  14.386 -0.5185 -0.1365  0.7534
11355TIP3    H255481   5.171   3.375  14.327  0.8425  0.3859 -0.5754
11356TIP3   OH255482   2.461   6.737  13.063  0.1920 -0.2162  0.2555
11356TIP3    H155483   2.555   6.724  13.056  0.2648 -0.6109  1.9116
11356TIP3    H255484   2.447   6.772  13.151 -0.8817  2.9481 -1.1012
11357TIP3   OH255485   2.084   1.330   0.023 -0.1063  0.3295  0.0215
11357TIP3    H155486   2.095   1.291   0.110 -0.1561  0.6434  0.1703
11357TIP3    H255487   1.993   1.360   0.022  0.3642  1.7861  0.4623
11358TIP3   OH255488   3.972   6.393   1.422 -0.2066  0.4409  0.3379
11358TIP3    H155489   3.895   6.444   1.399 -0.3728  0.0745  0.0750
11358TIP3    H255490   3.978   6.326   1.353  1.8100  2.0247 -1.0769
11359TIP3   OH255491   2.021   5.134   5.342  0.6191  0.4020 -0.0448
11359TIP3    H155492   2.041   5.152   5.250  0.5646 -0.4490 -0.2254
11359TIP3    H255493   2.013   5.221   5.382  1.9623  0.7703 -0.5506
11360TIP3   OH255494   5.974   4.787   3.910 -0.7050 -0.2928  0.4362
11360TIP3    H155495   5.940   4.866   3.868 -2.3033 -1.0863  0.2228
11360TIP3    H255496   6.047   4.818   3.964 -1.0120  1.2518 -0.0174
11361TIP3   OH255497   4.630   0.185   0.039 -0.5099 -0.0732  0.2166
11361TIP3    H155498   4.622   0.220   0.128 -0.9356  0.8733 -0.1870
11361TIP3    H255499   4.539   0.181   0.007 -0.3155  0.0581 -0.3558
11362TIP3   OH255500   0.141   2.205   4.654  0.3303 -0.5812 -0.7337
11362TIP3    H155501   0.110   2.289   4.621 -1.0034 -0.5085  0.6813
11362TIP3    H255502   0.071   2.144   4.633  0.0006 -0.7642  0.8716
11363TIP3   OH255503   1.168   6.260  14.650 -0.4983 -0.1071 -0.1214
11363TIP3    H155504   1.198   6.349  14.667 -2.1538  0.5953 -0.7148
11363TIP3    H255505   1.224   6.205  14.704 -0.1210  1.3751  1.0309
11364TIP3   OH255506   4.434   5.546   4.522 -0.1856 -0.4807  0.2208
11364TIP3    H155507   4.525   5.567   4.503  0.4545 -0.6825  2.7995
11364TIP3    H255508   4.433   5.451   4.534 -0.6273 -0.4239  0.6654
11365TIP3   OH255509   6.477   2.899  13.380  0.0409  0.9463 -0.2483
11365TIP3    H155510   6.538   2.843  13.428 -1.0853  2.7831  3.4601
11365TIP3    H255511   6.414   2.838  13.341  2.4832 -0.7499 -1.6200
11366TIP3   OH255512   5.773   3.173   2.289 -0.0727 -0.2654  0.1107
11366TIP3    H155513   5.859   3.166   2.331 -0.6221  0.0339  1.3093
11366TIP3    H255514   5.734   3.252   2.327 -1.1707 -0.7883  0.0918
11367TIP3   OH255515   2.486   0.946  10.588 -0.1201  0.0521  0.1655
11367TIP3    H155516   2.490   0.881  10.518  0.3001 -1.1585  1.2968
11367TIP3    H255517   2.393   0.954  10.608 -0.0392 -1.6347  1.3207
11368TIP3   OH255518   2.936   6.615   5.241  0.4282 -0.2807 -0.4522
11368TIP3    H155519   2.977   6.693   5.279  1.6329 -0.7986 -0.6620
11368TIP3    H255520   2.859   6.599   5.296 -1.1896  2.4361 -1.8402
11369TIP3   OH255521   5.240   1.358   1.610 -0.0897  0.3073  0.1384
11369TIP3    H155522   5.298   1.374   1.685  2.4419  3.0172 -2.2400
11369TIP3    H255523   5.267   1.273   1.577  0.2243  0.0436  1.0570
11370TIP3   OH255524   6.357   6.719   2.856  0.3814  0.1348 -0.1563
11370TIP3    H155525   6.322   6.776   2.925 -0.5362 -0.8788  0.2335
11370TIP3    H255526   6.449   6.743   2.849  0.6473 -0.2148  1.8916
11371TIP3   OH255527   6.374   2.338   3.411 -0.6354  0.1236 -0.1009
11371TIP3    H155528   6.440   2.274   3.437 -0.3249  0.7069  0.5579
11371TIP3    H255529   6.411   2.380   3.333 -0.2809  0.3471  0.1814
11372TIP3   OH255530   0.024   5.574  12.055 -0.1924  0.9292 -0.3378
11372TIP3    H155531  -0.025   5.650  12.087 -0.1486  0.9439 -0.3074
11372TIP3    H255532   0.115   5.592  12.078 -0.0524  1.3142 -1.2076
11373TIP3   OH255533   6.759   5.573   2.470  0.0738  0.7306 -0.7213
11373TIP3    H155534   6.716   5.517   2.407 -0.1758  1.1191 -0.8996
11373TIP3    H255535   6.844   5.593   2.431  0.7358 -0.6400 -0.0361
11374TIP3   OH255536   2.917   1.236   5.784 -0.0043  0.5034  0.1602
11374TIP3    H155537   2.997   1.202   5.825 -0.1746  1.1999  1.0768
11374TIP3    H255538   2.889   1.166   5.725  1.5911  0.4822 -0.5916
11375TIP3   OH255539   0.095   6.185  16.118  0.6042  0.1764  0.0784
11375TIP3    H155540   0.058   6.265  16.081 -0.1163 -1.2668 -2.3711
11375TIP3    H255541   0.020   6.128  16.133  1.1827 -0.3039  1.2719
11376TIP3   OH255542   5.971   4.146   2.208  0.2730 -0.0234  0.0227
11376TIP3    H155543   5.990   4.165   2.300  0.4227 -1.3980  0.2907
11376TIP3    H255544   6.040   4.085   2.182 -1.2731 -1.7030 -0.2401
11377TIP3   OH255545   4.849   2.970   2.340 -0.3513 -0.3489  0.2193
11377TIP3    H155546   4.771   2.921   2.316  0.3828 -1.2427 -0.3819
11377TIP3    H255547   4.822   3.062   2.338 -0.4942 -0.4055 -3.4612
11378TIP3   OH255548   3.888   4.924  10.732 -0.0928  0.3486 -0.2796
11378TIP3    H155549   3.947   4.997  10.715 -0.3705  0.4665 -0.7439
11378TIP3    H255550   3.801   4.963  10.735 -0.2081  0.0871 -0.1882
11379TIP3   OH255551   4.187   4.090   4.537 -0.4828  0.9299 -0.4599
11379TIP3    H155552   4.200   3.999   4.513 -2.7128  1.0077 -2.1158
11379TIP3    H255553   4.270   4.133   4.513 -0.5828 -0.0791 -2.7786
11380TIP3   OH255554   4.124   2.837   1.014 -0.2852  0.7396 -0.7750
11380TIP3    H155555   4.154   2.809   1.101  1.2815 -0.6645 -1.7497
11380TIP3    H255556   4.163   2.924   1.002  0.4126  0.4584 -0.5453
11381TIP3   OH255557   0.163   5.896  15.237  0.0407  0.3370  0.3025
11381TIP3    H155558   0.113   5.973  15.264 -0.0150  0.7042 -0.8202
11381TIP3    H255559   0.101   5.844  15.186  0.3251 -0.0318  0.3287
11382TIP3   OH255560   5.220   4.275   5.992  0.1377  0.2629  0.4552
11382TIP3    H155561   5.291   4.338   6.009 -1.9364  2.3435  1.7007
11382TIP3    H255562   5.203   4.236   6.078  1.3080 -1.9512 -0.2911
11383TIP3   OH255563   0.301   4.029  13.994  0.1181  0.1263  0.2986
11383TIP3    H155564   0.334   3.963  13.932  1.3072  1.2892 -0.3178
11383TIP3    H255565   0.222   3.989  14.031 -0.3069 -0.8221 -1.5715
11384TIP3   OH255566   0.219   6.194  16.405  0.3108 -0.1215  0.2593
11384TIP3    H155567   0.166   6.130  16.357  2.1928 -3.2381  2.1369
11384TIP3    H255568   0.158   6.264  16.427 -1.9780 -1.5112 -1.4037
11385TIP3   OH255569   2.904   3.073  11.799  0.0537  0.0450  0.7124
11385TIP3    H155570   2.842   3.141  11.775 -0.5977 -0.3115  1.3848
11385TIP3    H255571   2.885   3.054  11.891 -0.4334 -1.7219  0.2684
11386TIP3   OH255572   0.991   3.942  13.587 -0.4102  0.0094 -0.5450
11386TIP3    H155573   1.085   3.957  13.595 -0.4654 -0.0584  0.2257
11386TIP3    H255574   0.969   3.977  13.500  0.2018  0.6211 -0.4604
11387TIP3   OH255575   0.682   2.217  14.553 -0.4443 -0.3782 -0.2957
11387TIP3    H155576   0.760   2.269  14.571 -0.2330 -0.7206 -0.2069
11387TIP3    H255577   0.659   2.178  14.637 -1.3572  0.5857 -0.0893
11388TIP3   OH255578   1.623   1.593   0.028  0.1549  0.2312  0.2682
11388TIP3    H155579   1.674   1.515   0.006  1.0656  0.6139  1.0041
11388TIP3    H255580   1.688   1.657   0.056 -0.7122  0.8032  0.9791
11389TIP3   OH255581   0.943   6.143  13.185 -0.6809 -0.1347  0.3408
11389TIP3    H155582   0.902   6.058  13.205 -1.0501  0.2216  1.1287
11389TIP3    H255583   1.020   6.146  13.241 -0.2566 -0.2625 -0.2302
11390TIP3   OH255584   5.394   2.551  16.587  0.1329  0.3570 -0.3755
11390TIP3    H155585   5.460   2.511  16.644 -0.0806  0.3756 -0.1136
11390TIP3    H255586   5.381   2.638  16.624  0.2311  0.4885 -0.6503
11391TIP3   OH255587   5.569   4.993  11.730 -0.2604 -0.1018  0.3116
11391TIP3    H155588   5.657   4.983  11.765 -0.0966 -0.1650 -0.1241
11391TIP3    H255589   5.569   5.078  11.686 -0.3437 -0.2117  0.0959
11392TIP3   OH255590   2.951   1.887  10.451  0.1407 -0.2124 -0.4177
11392TIP3    H155591   3.019   1.935  10.403  1.1471 -0.3082  0.8829
11392TIP3    H255592   2.982   1.886  10.542 -1.8786  0.2464  0.3078
11393TIP3   OH255593   4.368   3.614   4.276  0.3339  0.7074 -0.2415
11393TIP3    H155594   4.348   3.554   4.347  1.1094  2.9925  1.9661
11393TIP3    H255595   4.463   3.604   4.261  0.3307  0.8529 -0.3726
11394TIP3   OH255596   5.245   2.107   1.668 -0.4221  0.4137 -0.1378
11394TIP3    H155597   5.217   2.179   1.610  0.4321  0.0406 -1.0159
11394TIP3    H255598   5.224   2.028   1.619 -2.1276  0.0306  1.1788
11395TIP3   OH255599   4.676   4.825  13.516  0.2366 -0.2501  0.2770
11395TIP3    H155600   4.767   4.855  13.518  1.2759 -3.1843  0.1027
11395TIP3    H255601   4.648   4.827  13.608  0.9623 -0.6938  0.5094
11396TIP3   OH255602   1.260   5.566   4.852  0.2671  0.2039  0.6049
11396TIP3    H155603   1.287   5.590   4.940 -0.2742  0.7996  0.6119
11396TIP3    H255604   1.214   5.644   4.819 -0.0534 -0.2320  0.0210
11397TIP3   OH255605   2.456   4.313   2.775 -0.3688  0.4194 -0.0525
11397TIP3    H155606   2.375   4.261   2.772 -1.5077  2.1340  0.4175
11397TIP3    H255607   2.522   4.256   2.736 -1.9855 -0.6741 -1.2716
11398TIP3   OH255608   3.684   1.052   5.319 -0.0552 -0.2879  0.3951
11398TIP3    H155609   3.690   1.049   5.223  0.1192  0.0093  0.3951
11398TIP3    H255610   3.760   1.104   5.346 -1.4361  1.7203  0.5532
11399TIP3   OH255611   0.454   5.268  12.002 -0.0626 -0.2158 -0.0933
11399TIP3    H155612   0.415   5.182  12.018 -0.5197  0.1900  0.9705
11399TIP3    H255613   0.399   5.307  11.934  0.1420 -0.7548 -0.5728
11400TIP3   OH255614   2.405   3.392   4.950  0.0342  0.1235 -0.2114
11400TIP3    H155615   2.445   3.393   5.037  1.3966 -0.5796 -0.8086
11400TIP3    H255616   2.468   3.345   4.895 -1.7274 -1.2476 -1.1403
11401TIP3   OH255617   0.663   3.950   0.436  0.1937 -1.0535 -0.4242
11401TIP3    H155618   0.730   4.007   0.398 -0.3451 -0.3080 -0.2741
11401TIP3    H255619   0.645   3.885   0.369  1.7270 -1.8184 -0.1223
11402TIP3   OH255620   2.364   5.946   4.182 -0.6397  0.6296 -0.7506
11402TIP3    H155621   2.410   5.904   4.109 -0.9389  1.0324 -1.1782
11402TIP3    H255622   2.357   5.878   4.249 -0.8960  0.0778 -1.3349
11403TIP3   OH255623   0.204   1.047   0.183  0.1763  0.8780 -0.0483
11403TIP3    H155624   0.142   1.021   0.115  0.8855  0.3256 -0.4918
11403TIP3    H255625   0.259   0.969   0.196  1.0295  1.4963  0.0599
11404TIP3   OH255626   4.501   1.805  15.943 -0.0202  0.3113  0.0225
11404TIP3    H155627   4.434   1.752  15.900  0.0510 -0.6811  1.0998
11404TIP3    H255628   4.454   1.880  15.979 -0.5571 -0.3590  0.7333
11405TIP3   OH255629   2.411   3.691   5.243  0.3483  0.5101  0.1443
11405TIP3    H155630   2.423   3.739   5.325  1.0926  0.2736  0.1697
11405TIP3    H255631   2.486   3.716   5.190 -1.8472  3.3468 -1.7862
11406TIP3   OH255632   5.734   6.029   3.316  0.8458  0.5241  0.2469
11406TIP3    H155633   5.674   6.096   3.349  0.0200 -0.8574  1.6187
11406TIP3    H255634   5.802   6.023   3.383  1.8544  1.1820 -0.6976
11407TIP3   OH255635   4.801   2.598   1.556  0.0212  0.0581 -0.1211
11407TIP3    H155636   4.895   2.609   1.573 -0.3268  1.2270  1.0668
11407TIP3    H255637   4.758   2.626   1.637 -1.3344 -0.9703 -0.4781
11408TIP3   OH255638   4.221   6.032   1.931 -0.1027  0.1776 -0.4624
11408TIP3    H155639   4.226   6.024   1.836  1.0400 -1.8336 -0.2548
11408TIP3    H255640   4.304   6.073   1.956  0.5824 -1.3742 -0.1437
11409TIP3   OH255641   3.237   0.164  13.495  0.2682 -0.4631  0.3142
11409TIP3    H155642   3.194   0.226  13.437  1.3786 -2.0231 -2.2342
11409TIP3    H255643   3.165   0.118  13.538 -0.5744 -0.1676 -0.7542
11410TIP3   OH255644   4.685   5.017   4.528  0.1509  0.2070 -1.1147
11410TIP3    H155645   4.721   5.055   4.608 -0.5148  0.1684 -0.8044
11410TIP3    H255646   4.702   4.923   4.536  0.3590  0.2387 -1.1649
11411TIP3   OH255647   2.407   1.225   3.080 -0.0163 -0.1293  0.2759
11411TIP3    H155648   2.386   1.318   3.087 -0.1210  0.1320 -3.0930
11411TIP3    H255649   2.343   1.181   3.137 -1.8933  1.6321 -0.4283
11412TIP3   OH255650   2.322   0.723   1.285  0.4932  0.1424  0.0899
11412TIP3    H155651   2.389   0.663   1.318 -0.1200 -0.5241  0.1526
11412TIP3    H255652   2.365   0.772   1.215  1.5943  1.0494  1.3766
11413TIP3   OH255653   5.212   4.423  15.072  0.2488  0.6321  0.2170
11413TIP3    H155654   5.293   4.389  15.034 -0.5882 -0.6156 -0.4881
11413TIP3    H255655   5.194   4.503  15.022 -0.3782 -0.5333 -1.4602
11414TIP3   OH255656   2.007   2.244   1.955 -0.3231  0.3654  0.1498
11414TIP3    H155657   1.931   2.226   2.009 -0.7663  1.7035  0.0013
11414TIP3    H255658   1.982   2.322   1.905  0.7158  0.1437 -0.7276
11415TIP3   OH255659   5.101   0.178   1.431 -0.3569  0.0061 -0.3147
11415TIP3    H155660   5.139   0.265   1.425  0.7469 -0.4750 -0.5381
11415TIP3    H255661   5.174   0.122   1.459 -1.2364 -0.7070  0.5923
11416TIP3   OH255662   5.037   4.976   2.263  0.2362 -0.0415 -0.2080
11416TIP3    H155663   5.051   5.011   2.351 -0.7842  1.3210 -0.5677
11416TIP3    H255664   4.971   4.908   2.274  1.2847 -0.9797  0.3142
11417TIP3   OH255665   1.663   2.001   0.163  0.3620 -0.0282 -0.1914
11417TIP3    H155666   1.594   1.949   0.120  0.8395 -0.4329 -0.4772
11417TIP3    H255667   1.695   1.944   0.233  0.3434  0.1984 -0.0005
11418TIP3   OH255668   4.459   1.076   4.993  0.6790 -0.2223 -0.4746
11418TIP3    H155669   4.397   1.062   4.922  0.0081  0.8521 -0.1214
11418TIP3    H255670   4.497   0.990   5.009  0.6179 -0.5275 -1.9233
11419TIP3   OH255671   1.812   2.221  11.244  0.0465  0.1581  0.4776
11419TIP3    H155672   1.896   2.182  11.269  0.1609  0.6704  0.8877
11419TIP3    H255673   1.780   2.165  11.173  0.1604 -0.7533  1.1335
11420TIP3   OH255674   1.006   6.660   2.756 -0.0915  0.0062  0.1128
11420TIP3    H155675   0.953   6.730   2.794 -0.7101 -0.9445  1.0237
11420TIP3    H255676   0.960   6.635   2.676  1.0499  1.8034 -1.1486
11421TIP3   OH255677   5.293   3.014   5.246 -0.0950  0.0143  0.2691
11421TIP3    H155678   5.256   2.928   5.224 -0.5900  0.6639 -1.5239
11421TIP3    H255679   5.345   3.038   5.170  1.6003  0.4804  1.5357
11422TIP3   OH255680   5.388   4.843  14.787 -0.4749  0.4259 -0.0149
11422TIP3    H155681   5.412   4.872  14.875  0.1207  0.1068 -0.0686
11422TIP3    H255682   5.306   4.888  14.768 -0.4959  0.6579  0.6207
11423TIP3   OH255683   4.074   0.342   3.073 -0.0472  0.2370 -0.9003
11423TIP3    H155684   4.007   0.363   3.139 -0.0373 -0.2700 -0.7226
11423TIP3    H255685   4.147   0.308   3.124 -0.5809 -1.5363 -1.2598
11424TIP3   OH255686   4.220   0.390  16.883  0.1284 -0.2493  0.3949
11424TIP3    H155687   4.255   0.463  16.934 -0.7658 -0.1408  0.8681
11424TIP3    H255688   4.277   0.317  16.903  0.4173  0.0652  0.7303
11425TIP3   OH255689   0.797   2.895   1.186 -0.2405 -0.5062 -0.4233
11425TIP3    H155690   0.711   2.937   1.190 -1.7722 -3.4803 -0.8028
11425TIP3    H255691   0.823   2.902   1.095 -1.9581 -3.1087 -1.1596
11426TIP3   OH255692   2.516   4.377  13.047  0.3455  0.1929 -0.2719
11426TIP3    H155693   2.607   4.353  13.029  0.0271 -0.8802 -0.5025
11426TIP3    H255694   2.508   4.371  13.142  0.6311  0.7358 -0.2102
11427TIP3   OH255695   5.576   3.661  10.953 -0.3006 -0.1897 -0.1938
11427TIP3    H155696   5.557   3.745  10.995 -0.8826 -0.0335 -0.7582
11427TIP3    H255697   5.583   3.682  10.860  0.6656 -0.5852 -0.2145
11428TIP3   OH255698   5.541   4.339   0.977 -0.0798  0.5946  0.0873
11428TIP3    H155699   5.537   4.430   1.006 -0.0763  0.5547  0.2107
11428TIP3    H255700   5.563   4.289   1.055  0.5231  0.5531 -0.1059
11429TIP3   OH255701   4.782   2.147   4.295 -0.2686 -0.2074 -1.0593
11429TIP3    H155702   4.874   2.143   4.270  0.2003  2.1885  0.1572
11429TIP3    H255703   4.762   2.240   4.299 -2.3251 -0.6747  0.2756
11430TIP3   OH255704   4.800   0.098  12.814 -0.0613  0.3553  0.3462
11430TIP3    H155705   4.832   0.024  12.865  0.2869 -0.1398 -0.5795
11430TIP3    H255706   4.759   0.058  12.737  0.1799  1.1266 -0.1846
11431TIP3   OH255707   0.278   2.414  13.728 -0.4256 -0.4901 -0.0368
11431TIP3    H155708   0.248   2.439  13.641  1.5781 -0.8940 -0.8772
11431TIP3    H255709   0.260   2.320  13.734 -0.9675 -0.3725  0.1491
11432TIP3   OH255710   5.963   1.042  15.422 -0.6669  0.4175  0.0595
11432TIP3    H155711   5.916   1.045  15.339  0.0948  0.9328 -0.3608
11432TIP3    H255712   5.894   1.028  15.488 -1.4299  1.2834 -0.5313
11433TIP3   OH255713   3.628   0.628   1.121 -0.7303 -0.1998 -0.4725
11433TIP3    H155714   3.668   0.676   1.048 -1.5680  0.5352 -0.4535
11433TIP3    H255715   3.628   0.537   1.092 -2.4401  0.2675 -2.0519
11434TIP3   OH255716   5.308   5.530   6.126 -0.1808  0.1196 -0.1674
11434TIP3    H155717   5.398   5.549   6.154 -0.7503  2.3227  0.2358
11434TIP3    H255718   5.277   5.465   6.188  0.6522  0.3817  0.5346
11435TIP3   OH255719   5.766   2.605   6.344 -0.5450  0.1441  0.8750
11435TIP3    H155720   5.681   2.575   6.377 -2.1875  1.9322 -1.6023
11435TIP3    H255721   5.766   2.582   6.252  2.0811 -0.6275  1.0243
11436TIP3   OH255722   0.040   1.955  12.425 -0.1105 -0.0841 -0.2074
11436TIP3    H155723   0.072   1.883  12.479 -0.5441  0.1586  0.3868
11436TIP3    H255724   0.095   2.030  12.452  0.5332 -0.2575 -1.0291
11437TIP3   OH255725   3.797   0.916   4.123 -0.7763 -0.1784 -0.3093
11437TIP3    H155726   3.878   0.907   4.173 -0.1378  0.1835 -1.2603
11437TIP3    H255727   3.776   0.827   4.094 -0.7190 -0.2713 -0.0628
11438TIP3   OH255728   1.412   5.889   3.944 -0.3670  0.1066  0.3346
11438TIP3    H155729   1.499   5.852   3.959  0.0733  0.5832 -0.9242
11438TIP3    H255730   1.423   5.983   3.954 -1.1175  0.0401  1.8565
11439TIP3   OH255731   6.172   0.027  11.820 -0.4650  0.0357 -0.1038
11439TIP3    H155732   6.167   0.043  11.726  2.0416  1.9675  0.0500
11439TIP3    H255733   6.138   0.107  11.860 -1.2984 -0.6838  0.6408
11440TIP3   OH255734   0.061   2.448  16.047  0.2275  0.2266 -0.2833
11440TIP3    H155735   0.072   2.417  15.957  0.1521 -0.0381 -0.2014
11440TIP3    H255736   0.150   2.449  16.083  0.1492 -0.5701 -0.0625
11441TIP3   OH255737   5.020   5.365   2.434  0.2471  0.1690 -0.3236
11441TIP3    H155738   5.026   5.454   2.400 -1.3553  0.4959  0.2366
11441TIP3    H255739   4.948   5.325   2.385  0.4037 -0.5497  0.0322
11442TIP3   OH255740   1.815   4.237  13.238  0.4909  0.1094 -0.5936
11442TIP3    H155741   1.869   4.254  13.316 -2.4734 -1.2231  1.8522
11442TIP3    H255742   1.750   4.307  13.238 -1.7476 -1.9305  0.2328
11443TIP3   OH255743   6.735   3.409  13.430  0.1039  0.2276  0.4579
11443TIP3    H155744   6.740   3.325  13.475  1.5409 -0.0365 -0.1430
11443TIP3    H255745   6.649   3.443  13.451 -1.5005 -2.5340 -1.2459
11444TIP3   OH255746   3.086   0.386  17.215 -0.4739 -0.4524  0.5875
11444TIP3    H155747   3.024   0.457  17.195 -1.2609 -0.8844  1.4688
11444TIP3    H255748   3.031   0.308  17.222  0.2360 -0.9198  0.9409
11445TIP3   OH255749   3.566   6.421  13.428 -0.0173  0.3906  0.3954
11445TIP3    H155750   3.518   6.379  13.500  2.2089 -1.0780  1.0470
11445TIP3    H255751   3.650   6.376  13.425  1.4156  3.0377 -0.6190
11446TIP3   OH255752   2.614   5.723  11.475  0.3659 -0.1060 -0.0901
11446TIP3    H155753   2.704   5.700  11.500  0.6801  0.7921 -0.3890
11446TIP3    H255754   2.559   5.665  11.529  1.1490 -2.6557 -1.9131
11447TIP3   OH255755   6.561   6.210   5.345  0.0666 -0.0484  0.1852
11447TIP3    H155756   6.519   6.165   5.418 -0.6597 -0.2399 -0.3492
11447TIP3    H255757   6.515   6.179   5.267  0.6346  0.3841 -0.3302
11448TIP3   OH255758   3.611   5.787   4.390 -0.0149  0.3973  0.3459
11448TIP3    H155759   3.684   5.831   4.346 -0.3776  1.3272  0.6612
11448TIP3    H255760   3.572   5.731   4.322  0.7411  0.2036  0.0715
11449TIP3   OH255761   2.494   2.464  16.662 -0.1799  0.0279 -0.0677
11449TIP3    H155762   2.568   2.406  16.678  0.0257  0.6417  1.3006
11449TIP3    H255763   2.518   2.513  16.584  0.4539 -0.4169 -0.1532
11450TIP3   OH255764   3.119   0.062   5.610  0.4062  0.3918 -0.2670
11450TIP3    H155765   3.162   0.028   5.688 -0.4801  0.6779  0.3628
11450TIP3    H255766   3.080   0.145   5.640 -2.3628 -0.8879 -0.2557
11451TIP3   OH255767   2.737   2.767   4.377  0.3733  0.1354 -0.1850
11451TIP3    H155768   2.705   2.687   4.419  0.1755  0.4759  0.3298
11451TIP3    H255769   2.701   2.764   4.289 -2.3892  1.2217  0.8354
11452TIP3   OH255770   2.027   1.809  11.859  0.1140  0.2334 -0.0593
11452TIP3    H155771   2.058   1.742  11.798  0.9488  0.5802 -0.0225
11452TIP3    H255772   2.096   1.815  11.925 -0.8704 -0.2793  1.0308
11453TIP3   OH255773   4.775   0.263  16.735  0.3116 -0.1948 -0.1496
11453TIP3    H155774   4.790   0.169  16.739 -0.8555 -0.3351  1.4116
11453TIP3    H255775   4.839   0.301  16.795  1.8278  0.1604 -1.9537
11454TIP3   OH255776   1.085   3.849  16.307 -0.3550  0.0425  0.4580
11454TIP3    H155777   1.143   3.786  16.348 -1.4997 -1.0256  0.4713
11454TIP3    H255778   1.112   3.933  16.344  2.3411 -0.1766 -0.8898
11455TIP3   OH255779   0.987   2.855   2.398  0.2433  0.7265  0.1928
11455TIP3    H155780   0.958   2.946   2.395  0.8265  0.8548 -3.2920
11455TIP3    H255781   1.078   2.858   2.369  0.6448 -0.8696  1.1936
11456TIP3   OH255782   1.837   2.817   1.711  0.1723  0.5009 -0.0550
11456TIP3    H155783   1.909   2.818   1.775  0.7105  0.2077 -0.6435
11456TIP3    H255784   1.863   2.750   1.648 -1.1021 -0.3003  0.2660
11457TIP3   OH255785   5.426   4.826   1.611 -0.0034  0.0449  0.4117
11457TIP3    H155786   5.443   4.887   1.682  1.6259  0.1490 -0.0366
11457TIP3    H255787   5.450   4.741   1.647 -0.9112 -0.1550  0.5655
11458TIP3   OH255788   2.840   3.002   0.650  0.5250  0.2793  0.5564
11458TIP3    H155789   2.759   2.976   0.694  0.6557  1.9106  1.8257
11458TIP3    H255790   2.903   2.934   0.673 -0.0829 -0.2168  0.7905
11459TIP3   OH255791   4.032   6.245  12.299  0.3152  0.3154  0.2913
11459TIP3    H155792   4.015   6.150  12.298  0.5132  0.2461  1.8155
11459TIP3    H255793   4.097   6.257  12.369 -0.5729  1.7005  0.9035
11460TIP3   OH255794   1.659   4.883  10.909 -1.0111 -0.2479  0.0559
11460TIP3    H155795   1.728   4.948  10.892  0.0664 -1.5188 -0.4662
11460TIP3    H255796   1.579   4.936  10.917 -0.2151  1.1214 -0.7186
11461TIP3   OH255797   4.159   4.370  12.058  0.0421  0.5551 -0.3401
11461TIP3    H155798   4.202   4.454  12.075  0.4151  0.6094 -1.4755
11461TIP3    H255799   4.176   4.354  11.965  0.3834 -1.0106 -0.0201
11462TIP3   OH255800   5.156   1.604  13.278 -0.3054  0.1343  0.5476
11462TIP3    H155801   5.113   1.521  13.296  2.0538 -1.4073 -0.5953
11462TIP3    H255802   5.194   1.631  13.362  1.1114 -1.2801  0.3756
11463TIP3   OH255803   2.695   6.492   1.685  0.4470  0.2689  0.4654
11463TIP3    H155804   2.625   6.431   1.658  1.2271 -0.5882  0.3369
11463TIP3    H255805   2.666   6.526   1.769 -1.3742  1.9310 -0.8111
11464TIP3   OH255806   2.887   4.388   4.300 -0.0053  0.0983 -0.1699
11464TIP3    H155807   2.906   4.481   4.314 -1.4711  0.1975  1.4536
11464TIP3    H255808   2.842   4.361   4.380 -2.4335 -1.1956 -1.8812
11465TIP3   OH255809   5.866   3.763   1.683  0.4562 -0.2785  0.4941
11465TIP3    H155810   5.941   3.819   1.661 -0.0024 -0.0948 -0.6388
11465TIP3    H255811   5.852   3.710   1.605 -0.1209 -0.8528  0.9860
11466TIP3   OH255812   6.036   4.901  13.451  0.1782 -0.1450  0.5935
11466TIP3    H155813   6.038   4.979  13.396  2.4216  0.8639  2.0182
11466TIP3    H255814   5.967   4.917  13.514 -0.6184 -0.1454 -0.2674
11467TIP3   OH255815   4.397   4.878  17.212  0.2036 -0.2310 -0.4118
11467TIP3    H155816   4.321   4.841  17.168  0.2075  0.2812 -0.8565
11467TIP3    H255817   4.360   4.927  17.286  0.1136 -0.1592 -0.5034
11468TIP3   OH255818   4.497   2.214   4.787 -0.3319  0.3557 -0.0148
11468TIP3    H155819   4.453   2.235   4.869 -2.5204  0.2172 -1.1069
11468TIP3    H255820   4.549   2.136   4.806 -0.8667  0.2836  1.1913
11469TIP3   OH255821   4.531   6.292   5.259  0.4406 -0.0394 -0.1525
11469TIP3    H155822   4.441   6.318   5.242  0.4759  0.5270  0.5264
11469TIP3    H255823   4.538   6.204   5.222 -0.1968  0.1833 -0.8109
11470TIP3   OH255824   3.542   1.086   1.068 -0.0768 -0.6779 -0.1665
11470TIP3    H155825   3.508   1.175   1.070 -1.6121 -1.1473 -2.4697
11470TIP3    H255826   3.597   1.083   0.990 -1.5317 -2.2159 -1.1817
11471TIP3   OH255827   1.135   1.192  11.273 -0.4651 -0.5698 -0.0390
11471TIP3    H155828   1.107   1.177  11.182  1.8899 -1.2623 -0.6813
11471TIP3    H255829   1.117   1.285  11.288  1.5102  0.2135 -2.1385
11472TIP3   OH255830   5.943   2.223  15.062 -0.9377  0.5156  0.8623
11472TIP3    H155831   5.872   2.280  15.092 -3.3530 -1.4345 -0.9377
11472TIP3    H255832   5.909   2.135  15.072  0.1062 -0.3739 -2.7320
11473TIP3   OH255833   5.409   1.521  12.978 -0.2982  0.5041 -0.5479
11473TIP3    H155834   5.322   1.557  12.961 -0.0942  0.4093 -1.7946
11473TIP3    H255835   5.457   1.593  13.019 -1.1328  0.3752  0.6994
11474TIP3   OH255836   5.986   5.437   5.026 -0.5939  0.0477  0.1001
11474TIP3    H155837   6.058   5.496   5.004 -1.9695  1.2831 -1.2259
11474TIP3    H255838   6.014   5.352   4.994 -0.5634  0.9146 -2.2648
11475TIP3   OH255839   5.951   3.082   2.482 -0.0181 -0.5022 -0.4219
11475TIP3    H155840   5.919   2.995   2.504  0.3567 -0.4669  0.2704
11475TIP3    H255841   5.975   3.121   2.566  1.0410 -0.2123 -0.8533
11476TIP3   OH255842   5.219   6.229  12.898 -0.0961 -0.3478 -0.1700
11476TIP3    H155843   5.294   6.265  12.945 -0.6976  0.6090  0.0578
11476TIP3    H255844   5.186   6.160  12.956  0.5161 -0.6729 -0.2061
11477TIP3   OH255845   2.876   0.224  16.382 -0.1180 -0.1567 -0.5948
11477TIP3    H155846   2.902   0.193  16.295  0.3923  2.3274 -1.3430
11477TIP3    H255847   2.833   0.308  16.367  2.2128  1.5466  1.7490
11478TIP3   OH255848   3.454   0.138   0.825  0.3992 -1.1058  0.1356
11478TIP3    H155849   3.506   0.123   0.747  0.0494 -0.3694 -0.2431
11478TIP3    H255850   3.372   0.092   0.809  0.2537 -0.7953 -0.0142
11479TIP3   OH255851   0.375   6.735  14.858 -0.4252 -0.2913 -0.3279
11479TIP3    H155852   0.366   6.643  14.835  1.8493 -0.5648 -0.2307
11479TIP3    H255853   0.404   6.735  14.949  1.9980  0.4036 -1.0620
11480TIP3   OH255854   3.417   2.270   0.318 -0.4650 -0.2036 -0.4532
11480TIP3    H155855   3.448   2.270   0.228 -0.4673 -0.7817 -0.4527
11480TIP3    H255856   3.412   2.178   0.342 -1.9562 -0.1006 -0.3652
11481TIP3   OH255857   4.911   2.546   4.876 -0.3002 -0.3505  0.0912
11481TIP3    H155858   4.992   2.503   4.848  0.7879  1.1210  0.8666
11481TIP3    H255859   4.898   2.516   4.966 -0.7458 -0.7568 -0.1065
11482TIP3   OH255860   6.344   1.433  12.774  0.5562  0.6077 -0.3441
11482TIP3    H155861   6.300   1.353  12.802 -1.7904  1.6523 -0.9144
11482TIP3    H255862   6.434   1.406  12.758  0.4695 -1.3401  2.0791
11483TIP3   OH255863   1.917   5.030  15.082  0.1640  0.3181  0.1723
11483TIP3    H155864   1.991   4.971  15.100 -0.7915  0.0126  3.5406
11483TIP3    H255865   1.924   5.098  15.149 -0.3621  2.5386 -1.9483
11484TIP3   OH255866   5.482   5.226   4.508  0.0523 -0.2971 -0.3151
11484TIP3    H155867   5.507   5.166   4.577 -1.0175 -1.4155 -0.8853
11484TIP3    H255868   5.560   5.232   4.452 -0.5417 -2.9618 -1.5227
11485TIP3   OH255869   4.251   1.690   1.149 -0.1024 -0.2829 -0.6525
11485TIP3    H155870   4.259   1.707   1.243  0.3768 -0.7443 -0.6067
11485TIP3    H255871   4.177   1.630   1.142 -0.2962 -0.0523 -0.5945
11486TIP3   OH255872   3.833   6.299  16.005  0.2406 -0.3689  0.6890
11486TIP3    H155873   3.762   6.283  15.943  0.0466 -0.7139  1.0002
11486TIP3    H255874   3.793   6.349  16.076  0.8508  1.5884 -0.2943
11487TIP3   OH255875   2.601   4.779  14.815  0.0848  0.1299  0.6084
11487TIP3    H155876   2.671   4.746  14.759 -1.0423  0.2345 -0.8676
11487TIP3    H255877   2.521   4.763  14.766 -0.8568  0.9103  1.8677
11488TIP3   OH255878   6.137   0.251   5.332 -0.1679 -0.1426 -0.2021
11488TIP3    H155879   6.115   0.233   5.424  2.9331  0.8529  0.8000
11488TIP3    H255880   6.166   0.342   5.333  2.9157 -1.0711 -1.5766
11489TIP3   OH255881   5.355   2.570  15.112 -0.4501  0.0223  0.4491
11489TIP3    H155882   5.450   2.565  15.127 -0.2832  0.3470 -0.4769
11489TIP3    H255883   5.342   2.654  15.069 -1.1899  0.0657  0.7513
11490TIP3   OH255884   1.058   5.000  15.850 -0.8201  0.3401  0.4483
11490TIP3    H155885   0.982   5.027  15.902 -0.7211  2.3574 -0.3868
11490TIP3    H255886   1.022   4.982  15.763 -0.8231 -1.9251  0.9114
11491TIP3   OH255887   5.286   6.077  16.949 -0.4592  0.1113  0.8170
11491TIP3    H155888   5.256   6.036  17.030  1.4615 -0.3620  1.3257
11491TIP3    H255889   5.377   6.103  16.968  0.3999 -1.0297 -1.5435
11492TIP3   OH255890   4.740   4.442   5.198  0.3691  0.1212  0.1285
11492TIP3    H155891   4.818   4.496   5.191  1.0710 -0.8578  0.2542
11492TIP3    H255892   4.764   4.373   5.260  0.1849 -1.4863 -1.5251
11493TIP3   OH255893   6.644   2.764  13.607  0.7327  0.1888 -0.3946
11493TIP3    H155894   6.645   2.713  13.687 -0.1798  0.2824 -0.3189
11493TIP3    H255895   6.637   2.700  13.536 -3.1786  0.2856 -0.1886
11494TIP3   OH255896   1.807   5.130  12.212 -0.0326 -0.5275 -0.4647
11494TIP3    H155897   1.720   5.095  12.231 -0.0293 -0.4224 -0.2479
11494TIP3    H255898   1.865   5.054  12.214  0.0733 -0.4351  0.6126
11495TIP3   OH255899   1.175   3.109   0.082  0.0216 -0.6471  0.0954
11495TIP3    H155900   1.107   3.129   0.018  0.3675 -0.3998 -0.1955
11495TIP3    H255901   1.153   3.021   0.114 -0.8570 -0.2718  0.5474
11496TIP3   OH255902   2.700   3.789   2.900  0.9705  0.1509  0.0324
11496TIP3    H155903   2.716   3.836   2.818 -2.6011  0.6093 -0.4539
11496TIP3    H255904   2.666   3.856   2.960  1.5293 -0.6314  1.2473
11497TIP3   OH255905   4.806   1.526  10.564 -0.0673  0.6384  0.2917
11497TIP3    H155906   4.742   1.507  10.496 -0.2448 -2.8028  1.3160
11497TIP3    H255907   4.767   1.491  10.644  1.7820  1.2221  1.4708
11498TIP3   OH255908   6.117   3.932   4.875 -0.0035  0.3202 -0.1279
11498TIP3    H155909   6.051   3.989   4.915  0.8390  0.4689  1.1006
11498TIP3    H255910   6.069   3.881   4.810 -1.5981 -0.4496  1.5977
11499TIP3   OH255911   3.842   1.501   2.799  0.4241 -0.0285 -0.0090
11499TIP3    H155912   3.861   1.412   2.828 -1.0375 -0.1727  0.5684
11499TIP3    H255913   3.888   1.557   2.861  0.7588 -0.3824  0.0609
11500TIP3   OH255914   1.866   4.216  17.064  0.4935 -0.1536  0.1709
11500TIP3    H155915   1.856   4.300  17.020  0.5526  0.3303  1.0518
11500TIP3    H255916   1.841   4.151  16.999 -1.0178  0.6322 -0.0617
11501TIP3   OH255917   2.494   6.270  12.467  0.3268  0.5956 -0.1253
11501TIP3    H155918   2.428   6.204  12.446 -0.8665  0.8749  2.5456
11501TIP3    H255919   2.445   6.342  12.506  2.0201  1.5792  0.2541
11502TIP3   OH255920   1.502   0.827  12.859  0.2002  0.6850  0.0991
11502TIP3    H155921   1.407   0.837  12.851  0.0329 -0.8586  0.0553
11502TIP3    H255922   1.535   0.846  12.771  0.0056  1.8669  0.2667
11503TIP3   OH255923   4.187   3.332   0.400  0.0390  0.7180 -0.4461
11503TIP3    H155924   4.161   3.378   0.320 -0.8584 -1.0280 -1.1807
11503TIP3    H255925   4.105   3.314   0.445  0.5619  2.0090  1.0813
11504TIP3   OH255926   1.098   5.360   0.284 -0.0738  0.0404 -0.1645
11504TIP3    H155927   1.007   5.328   0.279 -0.5473  1.3537 -0.1589
11504TIP3    H255928   1.105   5.421   0.211 -0.1621  2.3426  1.6947
11505TIP3   OH255929   6.126   3.713   4.613 -0.4848 -0.5908  0.4580
11505TIP3    H155930   6.053   3.769   4.637  0.8366  1.4537 -0.1104
11505TIP3    H255931   6.131   3.648   4.683 -2.0554  0.0108  1.1445
11506TIP3   OH255932   5.826   3.248   5.954  0.5537 -0.2833 -0.1899
11506TIP3    H155933   5.905   3.299   5.972  0.9416 -1.7352  2.5189
11506TIP3    H255934   5.754   3.301   5.990  0.2798  0.9048 -2.3998
11507TIP3   OH255935   1.610   0.563   4.537 -0.3018 -0.2646 -0.2836
11507TIP3    H155936   1.517   0.562   4.516 -0.7539 -0.0415  1.6394
11507TIP3    H255937   1.627   0.652   4.568  0.3676 -0.5677  0.2274
11508TIP3   OH255938   0.874   1.098  12.211 -0.4586 -0.0305 -0.3011
11508TIP3    H155939   0.844   1.090  12.302  3.3588  1.0463  1.1628
11508TIP3    H255940   0.819   1.166  12.173 -1.4253  0.2269  1.5256
11509TIP3   OH255941   4.258   2.494  14.672 -0.0740  0.5274 -0.0357
11509TIP3    H155942   4.338   2.529  14.712  0.1956 -0.7730  0.5977
11509TIP3    H255943   4.192   2.500  14.741  0.0479 -0.4624  0.1750
11510TIP3   OH255944   0.023   3.848   0.848 -0.1868 -0.7264  0.1930
11510TIP3    H155945   0.065   3.770   0.811 -0.4174 -0.4657 -0.6136
11510TIP3    H255946  -0.027   3.885   0.776 -1.1776 -0.5863  0.9464
11511TIP3   OH255947   2.791   4.794  13.510 -0.1168  0.7270 -0.2296
11511TIP3    H155948   2.784   4.813  13.417 -1.0831 -0.4792 -0.4181
11511TIP3    H255949   2.722   4.730  13.527  3.5125 -3.3309  0.1020
11512TIP3   OH255950   0.775   5.669   1.175  0.0666  0.2062  0.0573
11512TIP3    H155951   0.696   5.696   1.128  0.6691  1.0384 -0.4880
11512TIP3    H255952   0.789   5.578   1.147 -1.5604 -0.4691  1.3517
11513TIP3   OH255953   1.689   4.390   3.967 -0.2203  0.1586 -0.1405
11513TIP3    H155954   1.752   4.434   4.023 -0.7069  1.6974 -0.7749
11513TIP3    H255955   1.604   4.428   3.991 -0.4478  0.7344 -1.8082
11514TIP3   OH255956   2.893   5.398  12.707 -0.0985 -0.2111 -0.2574
11514TIP3    H155957   2.900   5.456  12.631 -0.3417  0.1063 -0.0425
11514TIP3    H255958   2.801   5.374  12.711  0.2624 -1.7858 -1.1882
11515TIP3   OH255959   5.008   2.438  16.372 -0.3112 -0.1216 -0.6430
11515TIP3    H155960   5.012   2.465  16.464  1.5179 -0.4052 -0.6184
11515TIP3    H255961   5.100   2.421  16.349 -0.7772 -0.1462 -2.4889
11516TIP3   OH255962   1.923   0.176   3.718  0.1212 -0.2797  0.0175
11516TIP3    H155963   2.006   0.181   3.670 -0.4442  0.9919 -0.8679
11516TIP3    H255964   1.865   0.126   3.661  0.1175 -0.7019  0.3912
11517TIP3   OH255965   1.671   6.257   4.335 -0.6078  0.2079  0.0142
11517TIP3    H155966   1.578   6.272   4.355 -0.9823 -0.3460 -1.2780
11517TIP3    H255967   1.673   6.171   4.294  0.4062  0.5005 -0.5494
11518TIP3   OH255968   2.281   3.761   4.984 -0.4066 -0.1489 -0.0443
11518TIP3    H155969   2.224   3.837   4.997  0.2976  0.2113  1.0520
11518TIP3    H255970   2.316   3.743   5.071  0.8269 -0.6170 -0.6203
11519TIP3   OH255971   2.007   4.888   2.815 -0.4406  0.4631  0.4938
11519TIP3    H155972   2.078   4.901   2.879 -0.3716 -0.9528  0.7419
11519TIP3    H255973   2.042   4.824   2.753 -0.7180  1.4072 -0.6553
11520TIP3   OH255974   5.323   4.584  16.807  0.4869 -0.2948 -0.1841
11520TIP3    H155975   5.365   4.505  16.840 -0.5458 -1.2508 -1.0905
11520TIP3    H255976   5.234   4.580  16.843  0.3526  0.3123 -0.4495
11521TIP3   OH255977   5.750   2.485  11.332 -0.2719 -0.2148 -0.2130
11521TIP3    H155978   5.662   2.453  11.314 -1.2795  1.6065  1.3402
11521TIP3    H255979   5.789   2.417  11.387 -0.6970 -1.0100 -0.8847
11522TIP3   OH255980   2.705   0.379  17.128 -0.3852  0.1350  0.2274
11522TIP3    H155981   2.740   0.392  17.040 -0.3219  1.4850  0.4421
11522TIP3    H255982   2.623   0.332  17.114 -0.6030  0.7384 -0.5963
11523TIP3   OH255983   3.452   2.174   1.746 -0.6040  0.0793 -0.1187
11523TIP3    H155984   3.535   2.128   1.735 -0.7970 -0.1571 -0.5954
11523TIP3    H255985   3.475   2.255   1.792 -0.2946 -0.6238  1.0081
11524TIP3   OH255986   0.093   5.615   0.919  0.1630 -0.1982 -0.2765
11524TIP3    H155987   0.071   5.708   0.913 -0.8324 -0.5313 -2.0979
11524TIP3    H255988   0.086   5.595   1.013 -1.1348  1.2065 -0.0439
11525TIP3   OH255989   0.890   5.690  16.475 -0.1458 -0.4121 -0.5567
11525TIP3    H155990   0.859   5.600  16.487  0.6004 -0.2791  2.6875
11525TIP3    H255991   0.811   5.740  16.456 -0.8116 -1.4469 -0.6040
11526TIP3   OH255992   5.227   5.084  14.597  0.5872 -0.1670 -0.3103
11526TIP3    H155993   5.262   5.018  14.538  0.9750  0.7497 -1.1235
11526TIP3    H255994   5.305   5.129  14.631  0.2504  1.8721 -2.0990
11527TIP3   OH255995   2.281   6.360  13.651 -0.3124  0.2296 -0.1068
11527TIP3    H155996   2.192   6.363  13.617 -0.3439 -1.6199 -0.2098
11527TIP3    H255997   2.278   6.414  13.730 -1.2705  1.0108 -0.6728
11528TIP3   OH255998   2.922   3.650  12.766  0.0072  0.2308  0.0195
11528TIP3    H155999   2.943   3.630  12.675 -2.4122  1.2967 -0.8263
11528TIP3    H256000   2.847   3.594  12.787  1.5674 -1.2174  1.9204
11529TIP3   OH256001   5.673   3.473  11.119 -0.0837 -0.3108 -0.3630
11529TIP3    H156002   5.611   3.403  11.098 -1.1308  0.5718 -0.2847
11529TIP3    H256003   5.642   3.548  11.068  1.7869 -0.2541 -1.4355
11530TIP3   OH256004   0.639   2.170   4.854  0.1566 -0.9479 -0.3940
11530TIP3    H156005   0.609   2.242   4.800 -0.0769  0.7485  1.9039
11530TIP3    H256006   0.734   2.169   4.843  0.1813 -0.1422 -0.2629
11531TIP3   OH256007   1.504   3.174  14.459 -0.4185 -0.2555  0.4298
11531TIP3    H156008   1.514   3.229  14.381  0.6098  0.1352  0.8315
11531TIP3    H256009   1.434   3.216  14.509  0.7737  1.0420  1.0311
11532TIP3   OH256010   4.470   0.338  14.947 -0.3624 -0.2566 -0.0269
11532TIP3    H156011   4.533   0.393  14.994  1.1395 -1.6649 -0.3566
11532TIP3    H256012   4.438   0.277  15.014 -0.9843  0.1013  0.0080
11533TIP3   OH256013   6.263   0.704  16.555  0.3715 -0.2380 -0.3233
11533TIP3    H156014   6.201   0.776  16.541  0.1856 -0.1533  0.8346
11533TIP3    H256015   6.264   0.692  16.650  1.1477 -1.1148 -0.4337
11534TIP3   OH256016   4.335   6.110  12.834  0.6862  0.5183  0.0418
11534TIP3    H156017   4.252   6.156  12.847  1.9482  2.3911  1.8155
11534TIP3    H256018   4.376   6.155  12.761  0.3209 -0.1573 -0.5831
11535TIP3   OH256019   1.621   6.769  12.274 -0.5377 -0.2956 -0.7923
11535TIP3    H156020   1.657   6.682  12.292 -1.8727 -1.2760 -2.6939
11535TIP3    H256021   1.605   6.769  12.179  0.1221  2.2839 -0.9381
11536TIP3   OH256022   3.032   0.814  12.516 -0.0431 -0.0016 -0.2814
11536TIP3    H156023   3.095   0.820  12.588 -0.0558 -1.1544 -0.1576
11536TIP3    H256024   3.040   0.724  12.485  0.2644  0.6238 -2.0209
11537TIP3   OH256025   1.729   6.546   4.288 -0.2050  0.4992  0.5353
11537TIP3    H156026   1.733   6.450   4.290  0.1381  0.4892 -0.4173
11537TIP3    H256027   1.636   6.566   4.281 -0.1795  0.2005 -0.7079
11538TIP3   OH256028   1.972   3.547   6.302 -0.7184 -0.1222  0.6200
11538TIP3    H156029   2.010   3.578   6.384 -0.6347 -2.4016  1.4564
11538TIP3    H256030   2.036   3.572   6.235  0.8254 -1.2439  1.6589
11539TIP3   OH256031   5.500   1.999  17.189 -0.1332  0.1009 -0.3675
11539TIP3    H156032   5.564   1.994  17.118  0.0699 -2.4037 -0.0453
11539TIP3    H256033   5.552   1.986  17.269 -0.4210  2.4996  0.2534
11540TIP3   OH256034   4.263   3.740   2.419  0.2843 -0.0181 -0.1513
11540TIP3    H156035   4.310   3.684   2.356 -0.9902 -0.7427 -0.4763
11540TIP3    H256036   4.194   3.781   2.367 -0.0200  0.3299  0.5225
11541TIP3   OH256037   1.475   2.365  12.824 -0.1650  0.5792  0.2580
11541TIP3    H156038   1.551   2.371  12.766 -0.7905 -0.2086 -0.6440
11541TIP3    H256039   1.400   2.378  12.767 -0.8414 -1.3810  0.6698
11542TIP3   OH256040   4.871   5.657  16.479  0.1229  0.2172  0.2819
11542TIP3    H156041   4.826   5.593  16.424 -0.1195 -0.4371  1.2195
11542TIP3    H256042   4.822   5.738  16.467 -0.8020 -0.2744  0.6336
11543TIP3   OH256043   5.891   0.235  11.335  0.3448  0.8209 -0.0969
11543TIP3    H156044   5.837   0.308  11.305 -0.9402  0.0284  0.2756
11543TIP3    H256045   5.833   0.182  11.389  1.8853  0.7294  1.5108
11544TIP3   OH256046   0.182   3.347   2.497 -0.6729  0.1529 -0.3263
11544TIP3    H156047   0.148   3.266   2.460  0.1274 -0.8632  1.0975
11544TIP3    H256048   0.134   3.416   2.452 -2.2790 -1.1475 -0.6560
11545TIP3   OH256049   0.772   2.400   1.104 -0.2396 -0.6274 -0.1351
11545TIP3    H156050   0.841   2.350   1.148 -0.2654 -2.0751 -1.6875
11545TIP3    H256051   0.819   2.469   1.057  0.0150 -0.6839  0.0339
11546TIP3   OH256052   3.943   4.455  14.394 -0.2126  0.5863 -0.0827
11546TIP3    H156053   3.974   4.479  14.306 -0.1575  1.3138  0.1272
11546TIP3    H256054   3.974   4.366  14.407  1.2746  1.0839 -0.1116
11547TIP3   OH256055   1.194   2.942   3.263  0.2805  0.5139  0.1580
11547TIP3    H156056   1.149   3.016   3.223 -0.6119 -0.4094 -0.5735
11547TIP3    H256057   1.134   2.911   3.331  1.2545  1.3030  1.4026
11548TIP3   OH256058   2.109   5.297   2.725 -0.3426 -0.0815  0.0518
11548TIP3    H156059   2.132   5.236   2.655 -0.4565 -0.9348  0.7385
11548TIP3    H256060   2.172   5.277   2.795 -0.1200  0.8709  0.1272
11549TIP3   OH256061   1.219   3.444  11.645  0.1981  0.4142 -0.4593
11549TIP3    H156062   1.275   3.371  11.622 -0.3098 -0.5769  1.3325
11549TIP3    H256063   1.277   3.521  11.644  0.8969 -0.1261 -1.5767
11550TIP3   OH256064   0.660   2.321  17.222 -0.0149 -0.7778 -0.0006
11550TIP3    H156065   0.569   2.338  17.200  0.2829 -0.1581 -0.7666
11550TIP3    H256066   0.703   2.302  17.138  0.8939  0.5162  0.1542
11551TIP3   OH256067   2.702   1.892  12.161  0.5156  1.0342  0.4457
11551TIP3    H156068   2.737   1.889  12.250  2.0613  0.6423 -0.1601
11551TIP3    H256069   2.699   1.800  12.134  1.5978  1.2599 -0.4853
11552TIP3   OH256070   6.496   1.429  12.263 -0.8719  0.0997  0.2263
11552TIP3    H156071   6.488   1.390  12.350 -1.8785  1.4420  0.7591
11552TIP3    H256072   6.544   1.364  12.212  1.4614  0.1045  2.2987
11553TIP3   OH256073   1.454   2.688  14.120  0.3998  0.0662  0.4771
11553TIP3    H156074   1.544   2.715  14.102  0.3962 -1.3557 -1.9650
11553TIP3    H256075   1.427   2.643  14.040 -2.1981 -0.2722  1.5101
11554TIP3   OH256076   4.274   4.556  10.908 -0.1476 -0.4993  0.3752
11554TIP3    H156077   4.264   4.461  10.914  2.3464 -0.8799 -0.6787
11554TIP3    H256078   4.341   4.568  10.841 -1.3204  2.0748 -0.3923
11555TIP3   OH256079   0.559   0.752  12.392 -0.1895  0.8136 -0.1131
11555TIP3    H156080   0.525   0.668  12.361  0.3379  0.5342  0.0693
11555TIP3    H256081   0.595   0.732  12.479  1.5698  0.8570 -0.8294
11556TIP3   OH256082   6.532   3.654  11.150 -0.0047 -0.1232  0.3166
11556TIP3    H156083   6.504   3.745  11.160  1.3858  0.1636  1.8900
11556TIP3    H256084   6.506   3.630  11.061 -1.9228  1.2617  0.4747
11557TIP3   OH256085   2.705   4.222  14.288 -0.2038 -0.2188 -0.3367
11557TIP3    H156086   2.631   4.167  14.314 -0.1210 -0.9832 -1.6637
11557TIP3    H256087   2.668   4.310  14.284 -0.4652 -0.2295  1.2949
11558TIP3   OH256088   4.058   0.878   0.914 -0.4409  0.4144  0.3263
11558TIP3    H156089   4.077   0.784   0.917 -0.0556  0.4473 -1.1495
11558TIP3    H256090   4.029   0.898   1.003  0.1206 -0.9624  0.8401
11559TIP3   OH256091   0.942   0.488  13.551 -0.3656 -0.3247  0.0702
11559TIP3    H156092   0.890   0.445  13.618 -0.5794 -0.8760 -0.4465
11559TIP3    H256093   0.959   0.420  13.486  3.3647 -0.9226  1.5357
11560TIP3   OH256094   1.833   3.745   4.644  0.4369  0.4206  0.0890
11560TIP3    H156095   1.881   3.769   4.565 -0.8039  0.6899 -0.6060
11560TIP3    H256096   1.795   3.659   4.624 -0.9062  1.0422 -0.0926
11561TIP3   OH256097   4.596   6.718  13.911  0.0153  0.1974 -0.3849
11561TIP3    H156098   4.520   6.661  13.925  0.8448 -0.5608  1.2220
11561TIP3    H256099   4.637   6.685  13.831  0.4168 -1.4178  0.4689
11562TIP3   OH256100   0.033   1.634   4.540  0.0366  0.0018 -0.0320
11562TIP3    H156101   0.005   1.721   4.510  0.6181 -0.3483 -1.6747
11562TIP3    H256102   0.001   1.628   4.629 -2.1968  0.9209 -0.7274
11563TIP3   OH256103   1.475   4.900   1.302  0.1371 -0.4588 -0.5267
11563TIP3    H156104   1.477   4.936   1.214  1.5977  0.0034 -0.3053
11563TIP3    H256105   1.515   4.813   1.294  0.2895 -0.4092 -0.3020
11564TIP3   OH256106   4.400   1.181   5.603  0.1610  0.1280  0.4018
11564TIP3    H156107   4.470   1.231   5.643  0.1411 -0.8201  1.6440
11564TIP3    H256108   4.429   1.090   5.607 -0.4211 -0.1153 -0.5541
11565TIP3   OH256109   4.873   3.420   4.899 -0.0823 -0.7613  0.2247
11565TIP3    H156110   4.808   3.358   4.866 -0.8365  0.1260 -0.0047
11565TIP3    H256111   4.917   3.374   4.970  0.4833 -2.1411 -1.0004
11566TIP3   OH256112   4.456   2.649   4.071  0.1849  0.3770  0.0150
11566TIP3    H156113   4.447   2.624   3.979 -1.6922  2.3564 -0.3655
11566TIP3    H256114   4.391   2.595   4.117 -0.1585  0.7274 -0.0635
11567TIP3   OH256115   4.277   3.115   6.310 -0.1582 -0.4895  0.1066
11567TIP3    H156116   4.276   3.207   6.283  0.4370 -0.2481  0.8645
11567TIP3    H256117   4.321   3.116   6.395 -0.0042 -1.5012  0.0456
11568TIP3   OH256118   3.747   0.006   0.162  0.7227  0.4399 -0.2241
11568TIP3    H156119   3.693  -0.052   0.107 -0.5947 -0.5441  2.0413
11568TIP3    H256120   3.830  -0.041   0.170 -0.0935 -0.8542  1.0094
11569TIP3   OH256121   0.240   4.301  15.674  0.0326 -0.5624  0.6638
11569TIP3    H156122   0.179   4.242  15.629  0.8502 -2.1774  1.6048
11569TIP3    H256123   0.188   4.344  15.741 -1.4324  2.5738 -2.3177
11570TIP3   OH256124   3.098   1.456   4.214  0.1459 -0.0822 -0.2970
11570TIP3    H156125   3.187   1.442   4.246  0.4500 -0.1003 -1.1318
11570TIP3    H256126   3.053   1.498   4.287  0.2506 -1.9995  0.8968
11571TIP3   OH256127   6.155   5.887  13.263  0.1793  0.1207 -0.1155
11571TIP3    H156128   6.145   5.795  13.242 -0.5782  0.1873 -0.0604
11571TIP3    H256129   6.249   5.902  13.260  0.3274 -0.7189  0.1509
11572TIP3   OH256130   6.638   3.687  16.461  0.2779  0.2043  0.2724
11572TIP3    H156131   6.567   3.628  16.433 -0.5169  0.7500  1.0970
11572TIP3    H256132   6.701   3.684  16.389 -1.6032  1.3956 -1.4857
11573TIP3   OH256133   1.469   2.883  13.004  0.5621 -0.3421 -0.9230
11573TIP3    H156134   1.477   2.822  12.931  1.7390 -0.6679 -0.5323
11573TIP3    H256135   1.395   2.850  13.055  2.4313 -2.6793  0.4068
11574TIP3   OH256136   4.369   3.136   2.245  0.1086 -0.1617  0.2942
11574TIP3    H156137   4.343   3.044   2.249  2.1423 -0.8379 -1.1296
11574TIP3    H256138   4.353   3.170   2.333 -2.1483 -1.4437  0.4102
11575TIP3   OH256139   0.610   5.916   1.904  0.2545  0.1233 -0.3564
11575TIP3    H156140   0.641   5.900   1.816 -0.9658  2.7695 -1.3197
11575TIP3    H256141   0.515   5.921   1.896  0.0171 -0.9320  1.3499
11576TIP3   OH256142   5.624   3.898   5.721  0.1616 -0.0770 -0.3655
11576TIP3    H156143   5.703   3.853   5.751  0.9427  1.1070 -0.5940
11576TIP3    H256144   5.578   3.921   5.801 -0.2491 -1.2562 -0.2448
11577TIP3   OH256145   6.757   0.702   3.339  0.2774 -0.5775 -0.4276
11577TIP3    H156146   6.748   0.614   3.375 -0.0426 -0.8214 -1.0867
11577TIP3    H256147   6.677   0.747   3.365  1.5668  0.3094  2.0579
11578TIP3   OH256148   6.477   4.988  14.424  0.1146  0.3441  0.1620
11578TIP3    H156149   6.527   4.907  14.411 -0.5083 -0.3187  1.7306
11578TIP3    H256150   6.538   5.058  14.401  2.1998 -0.3903  3.2157
11579TIP3   OH256151   0.572   5.672  17.055  0.0898  0.4968 -0.7309
11579TIP3    H156152   0.644   5.720  17.096  0.0914 -0.5970  0.5861
11579TIP3    H256153   0.582   5.582  17.087 -0.7418 -0.0776 -2.0402
11580TIP3   OH256154   2.523   4.669   5.449 -0.0084  0.1021  0.2870
11580TIP3    H156155   2.520   4.759   5.417 -0.2523  0.3081  0.8911
11580TIP3    H256156   2.520   4.615   5.369 -2.6458  0.5676 -0.0021
11581TIP3   OH256157   1.559   4.270   4.961 -0.2973  0.1399  0.4421
11581TIP3    H156158   1.559   4.277   4.866 -1.5706  1.8661  0.5565
11581TIP3    H256159   1.545   4.177   4.978 -1.0290 -0.0338 -1.0535
11582TIP3   OH256160   0.107   5.895  12.848 -0.1601 -0.3489  0.4174
11582TIP3    H156161   0.136   5.807  12.873 -0.8898 -0.9711 -0.8514
11582TIP3    H256162   0.018   5.882  12.815 -0.1437  0.8109 -0.0938
11583TIP3   OH256163   5.361   3.201  12.658  0.0089  0.7900 -0.7269
11583TIP3    H156164   5.269   3.173  12.655 -0.0594  1.1576 -2.6238
11583TIP3    H256165   5.357   3.296  12.667  0.2302  0.5991  1.6210
11584TIP3   OH256166   3.297   2.808   4.041  0.4042  0.3344 -1.1908
11584TIP3    H156167   3.322   2.899   4.026 -1.2765  0.8010 -1.2886
11584TIP3    H256168   3.323   2.790   4.132 -0.2793  1.2640 -0.8098
11585TIP3   OH256169   1.004   0.037   0.861 -0.2015  0.0467 -0.1574
11585TIP3    H156170   0.986  -0.019   0.937 -0.4168 -0.5555 -0.6447
11585TIP3    H256171   0.939   0.107   0.867 -0.5491 -0.2794 -0.0541
11586TIP3   OH256172   4.402   2.711   5.362  0.5742  0.0124 -0.5756
11586TIP3    H156173   4.484   2.712   5.410  0.3424  1.4117 -0.2128
11586TIP3    H256174   4.338   2.750   5.422  0.1356  1.0859 -1.7212
11587TIP3   OH256175   4.870   6.785  16.761  0.3560  0.4942 -0.7440
11587TIP3    H156176   4.957   6.816  16.737  1.4137 -1.4640  0.4842
11587TIP3    H256177   4.866   6.794  16.856 -1.5231  2.3873 -0.9721
11588TIP3   OH256178   0.935   2.407  11.167  0.1000  0.8384  0.0440
11588TIP3    H156179   0.852   2.410  11.120  0.7077  0.7982 -1.0531
11588TIP3    H256180   1.001   2.394  11.098  0.7468 -2.2378  1.1551
11589TIP3   OH256181   5.350   4.041   0.909  0.0375 -0.0095  0.0259
11589TIP3    H156182   5.295   4.111   0.875 -0.8499  0.2571  1.9416
11589TIP3    H256183   5.409   4.020   0.837 -1.5745  0.7270 -1.5559
11590TIP3   OH256184   5.360   4.983   5.786  0.5767 -0.0922  0.0009
11590TIP3    H156185   5.292   4.919   5.766 -1.1177  1.3770  0.8467
11590TIP3    H256186   5.346   5.054   5.723 -0.7180  1.6285  2.1272
11591TIP3   OH256187   6.043   0.623  10.962  0.5719  0.2075  0.2391
11591TIP3    H156188   6.067   0.704  10.918 -0.1144  0.4438  0.2812
11591TIP3    H256189   5.980   0.650  11.029 -0.5181 -0.4889 -0.4797
11592TIP3   OH256190   4.242   2.330  13.060 -0.0247  0.4228  0.3935
11592TIP3    H156191   4.318   2.362  13.108  0.5862  1.9860 -1.5281
11592TIP3    H256192   4.175   2.397  13.072  0.5023  1.3805 -1.7917
11593TIP3   OH256193   2.190   6.407  13.180 -0.2674  0.1591 -0.4027
11593TIP3    H156194   2.127   6.337  13.194  0.4762 -0.6459 -1.1025
11593TIP3    H256195   2.148   6.485  13.218 -1.0749 -0.6578  0.3946
11594TIP3   OH256196   3.302   5.433  11.543  0.6063 -0.0681 -0.7880
11594TIP3    H156197   3.389   5.471  11.546  1.0066 -0.9470 -1.0084
11594TIP3    H256198   3.265   5.464  11.460  0.1439  1.4927 -0.0125
11595TIP3   OH256199   6.246   2.553   4.728 -0.0817  0.1654 -0.4845
11595TIP3    H156200   6.172   2.506   4.768 -1.0867  2.9493  1.0244
11595TIP3    H256201   6.206   2.604   4.658  0.6174  0.7239 -0.4736
11596TIP3   OH256202   0.705   6.107  15.010 -0.0261  0.0446  0.1063
11596TIP3    H156203   0.719   6.113  14.916  0.9107  3.9920  0.4234
11596TIP3    H256204   0.774   6.049  15.041  0.3792 -0.3347 -1.4566
11597TIP3   OH256205   5.759   6.035  14.724  0.5789  0.3641  0.2067
11597TIP3    H156206   5.796   6.015  14.811  1.0729 -1.9326 -0.4794
11597TIP3    H256207   5.671   6.069  14.743  0.1372 -1.4306  1.5871
11598TIP3   OH256208   6.537   3.706  11.412 -0.2510  0.1722 -0.3598
11598TIP3    H156209   6.548   3.687  11.319 -0.1597 -0.0108 -0.3106
11598TIP3    H256210   6.481   3.635  11.444 -0.8928  0.6396 -0.4341
11599TIP3   OH256211   6.608   2.749   4.827  0.1151  0.0213 -0.7443
11599TIP3    H156212   6.615   2.837   4.865 -0.0375  0.3300 -1.4335
11599TIP3    H256213   6.684   2.703   4.862  0.9351  0.8303 -1.4276
11600TIP3   OH256214   4.806   5.054  16.764  0.0570  0.0334  0.7091
11600TIP3    H156215   4.870   5.019  16.827 -2.6011 -2.2421  2.2496
11600TIP3    H256216   4.778   4.978  16.714  0.6701  1.5192 -1.9449
11601TIP3   OH256217   2.280   5.222  15.516 -0.1347 -0.5139  0.2947
11601TIP3    H156218   2.376   5.219  15.524 -0.0057  0.8996 -0.5572
11601TIP3    H256219   2.250   5.252  15.602  0.2728  0.2386  0.1768
11602TIP3   OH256220   6.695   2.564   2.836  0.2233 -0.2357  0.2603
11602TIP3    H156221   6.640   2.608   2.901 -0.9150  0.9578 -1.4763
11602TIP3    H256222   6.765   2.627   2.817 -0.3646  0.0978 -0.8543
11603TIP3   OH256223   1.471   4.029  16.257  0.4278  0.3686  0.3013
11603TIP3    H156224   1.501   4.105  16.307 -2.0676  0.3608  1.8648
11603TIP3    H256225   1.378   4.045  16.243  0.4683 -1.0587 -1.8338
11604TIP3   OH256226   4.025   2.127   2.065 -0.0621 -0.1831 -0.5250
11604TIP3    H156227   4.028   2.100   1.973  2.7314  0.9316 -0.8114
11604TIP3    H256228   4.115   2.115   2.097 -0.7651  0.4093  1.7749
11605TIP3   OH256229   4.205   1.700   6.010  0.0397  0.3116  0.6652
11605TIP3    H156230   4.133   1.666   6.062 -0.4711 -0.2642 -0.4102
11605TIP3    H256231   4.165   1.727   5.927  0.4182  3.5100  1.4540
11606TIP3   OH256232   2.349   3.138   1.600  0.1603  0.1122 -0.2493
11606TIP3    H156233   2.346   3.140   1.695 -1.6172 -0.3886 -0.2661
11606TIP3    H256234   2.346   3.230   1.573  4.0484  0.4345  0.2028
11607TIP3   OH256235   3.546   5.160   6.334  0.1537 -0.3041 -0.9728
11607TIP3    H156236   3.619   5.200   6.382 -0.7075  1.0839 -0.8002
11607TIP3    H256237   3.566   5.067   6.333  1.7744  0.0312 -0.6499
11608TIP3   OH256238   6.490   1.378  15.810 -0.4270 -0.2296  0.1209
11608TIP3    H156239   6.405   1.341  15.832 -1.2683 -0.1206 -2.7083
11608TIP3    H256240   6.554   1.312  15.837 -1.6286 -1.7776 -0.7629
11609TIP3   OH256241   6.480   6.412   1.958  0.3059  0.1874 -0.6935
11609TIP3    H156242   6.530   6.366   2.026 -2.3167  1.1815  1.9946
11609TIP3    H256243   6.447   6.343   1.902 -0.0434 -0.9108  0.8247
11610TIP3   OH256244   6.361   2.898   2.982  0.4438  0.0270  0.5044
11610TIP3    H156245   6.303   2.947   3.040 -0.2567 -2.1655  1.6990
11610TIP3    H256246   6.307   2.877   2.907  0.7222  0.9750  0.0259
11611TIP3   OH256247   6.650   0.625   0.478 -0.5600 -0.0177  0.6260
11611TIP3    H156248   6.610   0.709   0.457  0.1563 -0.1340 -1.3114
11611TIP3    H256249   6.630   0.569   0.403  2.1934 -0.4146  0.1320
11612TIP3   OH256250   3.020   4.725  11.593 -0.5225 -0.3848  0.2322
11612TIP3    H156251   2.966   4.776  11.653  0.8063 -1.2072  2.1602
11612TIP3    H256252   3.025   4.779  11.514  0.1019  2.0767  1.8921
11613TIP3   OH256253   5.403   5.389   6.509  0.0337 -0.0024 -0.5248
11613TIP3    H156254   5.484   5.339   6.518  0.1307 -0.3409 -2.8639
11613TIP3    H256255   5.432   5.476   6.480 -0.3206  0.5319  0.6991
11614TIP3   OH256256   3.784   5.579  12.091 -0.2508 -0.0246  0.3533
11614TIP3    H156257   3.783   5.485  12.073 -0.9016  0.2995 -1.3937
11614TIP3    H256258   3.693   5.607  12.081  0.0760  0.9430 -0.0019
11615TIP3   OH256259   1.275   1.994   5.769  0.1741  0.5102  0.6935
11615TIP3    H156260   1.220   2.032   5.837 -0.3111 -1.8005  1.6040
11615TIP3    H256261   1.342   2.061   5.753 -1.1153  2.0836  1.6934
11616TIP3   OH256262   1.922   5.497  16.407 -0.1902 -0.0613 -0.0706
11616TIP3    H156263   1.862   5.507  16.333 -1.0739 -3.0896  0.1848
11616TIP3    H256264   2.002   5.541  16.378 -0.7296 -0.6702 -2.6042
11617TIP3   OH256265   2.746   0.303  14.509  0.0335 -0.2392  0.1614
11617TIP3    H156266   2.658   0.299  14.546  0.2391 -1.2176  0.5421
11617TIP3    H256267   2.794   0.232  14.551  1.0198  0.3108 -0.0172
11618TIP3   OH256268   3.468   4.124  11.683  0.2968  0.3629  0.3004
11618TIP3    H156269   3.515   4.196  11.725 -0.7218  1.0886  0.2304
11618TIP3    H256270   3.452   4.155  11.594 -0.1259  0.0424  0.2611
11619TIP3   OH256271   3.387   4.456  12.397 -0.6042 -0.0120 -0.2203
11619TIP3    H156272   3.454   4.501  12.345  1.1725  0.3395  2.3092
11619TIP3    H256273   3.404   4.362  12.383 -1.8738  0.0344 -2.3908
11620TIP3   OH256274   4.771   0.941   5.075 -0.3500 -0.4964 -0.8678
11620TIP3    H156275   4.696   0.936   5.016 -0.3533 -0.9002 -0.8335
11620TIP3    H256276   4.754   1.017   5.131  0.0431  0.3645 -1.9087
11621TIP3   OH256277   5.293   5.251   0.639 -0.0012 -0.4822  0.0254
11621TIP3    H156278   5.272   5.159   0.623  1.2397 -0.7372 -0.2466
11621TIP3    H256279   5.318   5.285   0.553  1.2182 -0.3627  0.4143
11622TIP3   OH256280   0.966   3.143  12.941 -0.3775  0.1161 -0.1248
11622TIP3    H156281   0.875   3.114  12.934 -0.7650  1.2064  0.3796
11622TIP3    H256282   0.968   3.227  12.895 -0.2849  1.5093  2.3520
11623TIP3   OH256283   5.136   4.475   1.595 -0.1216 -0.3182 -0.1897
11623TIP3    H156284   5.061   4.521   1.635 -0.9947 -0.9268 -1.0990
11623TIP3    H256285   5.179   4.431   1.668  0.6174  1.7799  0.6719
11624TIP3   OH256286   3.523   5.160  15.664 -0.0223 -0.3892  0.6937
11624TIP3    H156287   3.616   5.178  15.659  0.1337 -1.0596  1.1278
11624TIP3    H256288   3.514   5.072  15.626 -0.5294 -0.1435  0.2443
11625TIP3   OH256289   6.291   5.760   5.166 -1.0443  0.4181  0.2972
11625TIP3    H156290   6.352   5.695   5.131 -0.0862  0.7594  1.3060
11625TIP3    H256291   6.248   5.716   5.240  0.4882  1.3141  1.7458
11626TIP3   OH256292   0.735   4.348  13.185  0.2199  0.2199  0.4540
11626TIP3    H156293   0.640   4.349  13.198 -0.0084 -1.5878 -0.9826
11626TIP3    H256294   0.754   4.431  13.141 -0.9907 -0.3512 -1.1785
11627TIP3   OH256295   5.928   3.344  13.798 -0.0522 -0.2521  0.3791
11627TIP3    H156296   5.886   3.430  13.806 -2.2303 -1.1761 -0.6346
11627TIP3    H256297   5.987   3.353  13.723  0.0624  0.5023  0.5574
11628TIP3   OH256298   6.535   5.485  13.526 -0.0073  0.2254 -0.7434
11628TIP3    H156299   6.458   5.517  13.573 -0.5232  0.0274 -1.4420
11628TIP3    H256300   6.500   5.443  13.448  0.4922 -3.4416  0.8884
11629TIP3   OH256301   2.543   2.700  15.328 -0.1423  0.0652  0.7769
11629TIP3    H156302   2.619   2.757  15.340  2.3519 -2.6191 -1.6117
11629TIP3    H256303   2.553   2.632  15.394  0.8595 -1.5704 -0.9962
11630TIP3   OH256304   1.353   2.101  13.478  0.8427 -0.1336  0.6026
11630TIP3    H156305   1.288   2.163  13.511 -1.0331 -0.7905 -1.7207
11630TIP3    H256306   1.381   2.052  13.556 -0.8327  0.7215  1.7870
11631TIP3   OH256307   5.533   2.299   0.486  0.3245  0.4821 -0.4217
11631TIP3    H156308   5.477   2.368   0.449  1.0128  2.1498  1.5263
11631TIP3    H256309   5.589   2.272   0.413  1.2002  3.2042 -0.8098
11632TIP3   OH256310   4.763   0.416  12.395  0.5014  0.4447  0.1315
11632TIP3    H156311   4.740   0.468  12.318 -2.9437 -0.8478  0.2206
11632TIP3    H256312   4.774   0.327  12.362 -0.4121 -0.0121  1.0400
11633TIP3   OH256313   4.779   3.236   1.359 -0.1713 -0.1847 -0.3694
11633TIP3    H156314   4.686   3.257   1.371  0.0445  0.3284  0.4872
11633TIP3    H256315   4.824   3.314   1.393  0.5693 -0.4911 -0.6655
11634TIP3   OH256316   1.428   2.389   0.633  0.1130  0.6092 -0.0946
11634TIP3    H156317   1.471   2.323   0.688 -0.7411 -0.8797 -1.1843
11634TIP3    H256318   1.337   2.391   0.665  0.0041  0.8755 -0.4215
11635TIP3   OH256319   1.286   5.193   1.700 -0.3198 -0.0890  0.0609
11635TIP3    H156320   1.250   5.267   1.749 -0.5470 -0.4645  0.4614
11635TIP3    H256321   1.336   5.144   1.765 -2.8161 -2.0673  0.5483
11636TIP3   OH256322   3.489   2.811   2.627 -0.0031 -0.0271  0.3324
11636TIP3    H156323   3.546   2.861   2.685  1.8174  0.1191 -1.5271
11636TIP3    H256324   3.412   2.866   2.615 -0.7811 -0.3899  3.1840
11637TIP3   OH256325   3.209   2.845  15.442 -0.0777  0.5331  0.3793
11637TIP3    H156326   3.272   2.783  15.479 -1.0520  0.0326  1.2151
11637TIP3    H256327   3.221   2.836  15.348  1.4541  0.8078  0.5208
11638TIP3   OH256328   1.847   3.866   6.185 -0.4910 -0.5193 -0.3088
11638TIP3    H156329   1.815   3.792   6.132  0.1617  0.4673 -2.1125
11638TIP3    H256330   1.895   3.921   6.123  0.5310  0.5299  1.3827
11639TIP3   OH256331   2.430   5.908   1.577 -0.2278  0.3392  0.3120
11639TIP3    H156332   2.401   5.871   1.494 -0.5222  0.6310  0.2840
11639TIP3    H256333   2.524   5.891   1.580 -0.6467 -1.9224  1.0793
11640TIP3   OH256334   6.594   2.535   2.511  0.4330 -0.1144 -0.5031
11640TIP3    H156335   6.684   2.503   2.505  0.4913  0.1668 -1.2921
11640TIP3    H256336   6.541   2.457   2.527  0.8934 -0.1785  0.7696
11641TIP3   OH256337   5.179   2.858  13.634  0.3666 -0.3989 -0.5740
11641TIP3    H156338   5.262   2.894  13.665  0.5741  0.6965 -2.2869
11641TIP3    H256339   5.204   2.780  13.584  0.4410  0.2280 -1.5404
11642TIP3   OH256340   1.409   1.623   4.723 -0.4022  0.8763 -0.2586
11642TIP3    H156341   1.422   1.702   4.671 -0.1331 -0.6312 -2.5777
11642TIP3    H256342   1.348   1.649   4.792  2.4946  4.0233  1.2702
11643TIP3   OH256343   5.555   5.491   4.491 -0.1636  0.4255 -0.1763
11643TIP3    H156344   5.523   5.530   4.572  3.1070 -0.8559  1.8480
11643TIP3    H256345   5.536   5.397   4.500 -1.8060  0.5681 -1.9235
11644TIP3   OH256346   5.583   6.738   2.059 -0.0488 -0.8958 -0.3083
11644TIP3    H156347   5.554   6.810   2.004 -1.5716 -0.2954  1.2070
11644TIP3    H256348   5.634   6.781   2.129  0.3875 -1.4618 -0.2767
11645TIP3   OH256349   2.456   2.930  11.150  0.7698 -0.4667  0.0899
11645TIP3    H156350   2.405   2.853  11.176 -1.1500  0.4787 -0.7112
11645TIP3    H256351   2.482   2.912  11.060 -0.2985  0.0932 -0.3483
11646TIP3   OH256352   4.101   5.489  16.776 -0.1222  0.4676  0.2628
11646TIP3    H156353   4.096   5.432  16.853 -1.1798  0.5337  0.2597
11646TIP3    H256354   4.010   5.517  16.762  0.2499  1.4195 -0.2800
11647TIP3   OH256355   0.714   6.341  14.644  0.1254 -0.2812  0.1226
11647TIP3    H156356   0.763   6.404  14.591  0.9284  0.5658  1.8284
11647TIP3    H256357   0.775   6.267  14.655 -0.0336 -0.4472 -0.1073
11648TIP3   OH256358   6.114   2.692   4.529 -0.5966 -0.2912  0.3091
11648TIP3    H156359   6.083   2.776   4.562  0.7778  1.3515 -2.4017
11648TIP3    H256360   6.108   2.700   4.434  0.1116 -3.0618 -0.0113
11649TIP3   OH256361   5.783   1.993  12.028 -0.1215 -0.1735 -0.0642
11649TIP3    H156362   5.774   1.916  12.084  0.2392  0.7433  1.2613
11649TIP3    H256363   5.735   2.062  12.073  1.8279  1.0922  0.1022
11650TIP3   OH256364   0.455   5.699   3.259  0.2507  0.1002 -0.3832
11650TIP3    H156365   0.508   5.760   3.311  1.9536 -0.3918 -1.5197
11650TIP3    H256366   0.375   5.749   3.240  0.0295  0.6626  1.7821
11651TIP3   OH256367   6.523   6.626  13.223 -0.0250  0.3126  0.1594
11651TIP3    H156368   6.546   6.700  13.166  1.2341 -0.1528  0.0650
11651TIP3    H256369   6.606   6.595  13.258 -0.4358 -1.6669 -0.5430
11652TIP3   OH256370   2.959   4.721  10.835 -0.0562 -0.0032 -0.1806
11652TIP3    H156371   3.016   4.694  10.907  1.7530  0.5024 -1.3941
11652TIP3    H256372   3.003   4.688  10.757 -0.4070  2.0931 -1.2887
11653TIP3   OH256373   5.894   0.709   2.069  0.1343  0.4397 -0.1736
11653TIP3    H156374   5.944   0.670   1.998 -1.8129 -1.9901 -0.2781
11653TIP3    H256375   5.919   0.659   2.146  1.2968  2.2514  0.6496
11654TIP3   OH256376   5.630   6.667   3.128 -0.0836 -0.0547  0.1918
11654TIP3    H156377   5.652   6.634   3.215  0.4168  0.7813  0.3832
11654TIP3    H256378   5.539   6.641   3.115 -0.5887  1.0131  1.5158
11655TIP3   OH256379   2.069   4.406   3.963 -0.0058  0.3522 -0.0022
11655TIP3    H156380   2.122   4.435   3.888  0.5088 -2.8052 -0.9173
11655TIP3    H256381   2.013   4.337   3.928 -1.6457  0.6420  1.9661
11656TIP3   OH256382   6.114   4.858  16.998  0.0638 -0.0286  0.2183
11656TIP3    H156383   6.188   4.849  16.938 -0.3857  2.3057 -0.7675
11656TIP3    H256384   6.131   4.796  17.068  1.5756 -1.4547 -1.3752
11657TIP3   OH256385   1.820   1.408  10.729  0.0747 -0.1864  0.0310
11657TIP3    H156386   1.745   1.456  10.764  0.8536  2.7108 -2.0812
11657TIP3    H256387   1.832   1.444  10.641  1.6249 -3.2899 -1.1077
11658TIP3   OH256388   3.526   3.349   2.290 -0.0555  0.1954  0.3001
11658TIP3    H156389   3.593   3.406   2.253  1.1197  0.2633  2.4351
11658TIP3    H256390   3.516   3.379   2.380 -0.3538 -2.1204  1.0763
11659TIP3   OH256391   2.169   1.504  12.820 -0.8154 -0.0364  0.3483
11659TIP3    H156392   2.126   1.421  12.839 -1.0235 -0.1579 -0.6335
11659TIP3    H256393   2.125   1.567  12.877 -1.4892 -0.3746  0.2096
11660TIP3   OH256394   5.127   4.863   1.621 -0.4254 -0.5056  0.2388
11660TIP3    H156395   5.215   4.835   1.596 -0.2045 -0.8311  1.3429
11660TIP3    H256396   5.140   4.914   1.701 -1.2604 -0.7478  0.5342
11661TIP3   OH256397   5.749   5.925  11.056 -0.2252 -0.2168 -0.0776
11661TIP3    H156398   5.802   5.927  11.136  0.1292  1.2981 -0.3288
11661TIP3    H256399   5.765   6.010  11.015 -0.6503 -0.8566 -1.6039
11662TIP3   OH256400   6.762   5.912  11.139  0.1577  0.4492  0.3246
11662TIP3    H156401   6.811   5.905  11.058  0.5588 -0.3933  0.6432
11662TIP3    H256402   6.672   5.931  11.111  0.9827  3.9685 -0.2187
11663TIP3   OH256403   6.740   3.790   5.126 -0.3806 -0.0861  0.0463
11663TIP3    H156404   6.823   3.757   5.161 -0.5711 -0.0895  0.4949
11663TIP3    H256405   6.678   3.781   5.198 -0.1404  2.4231  0.6205
11664TIP3   OH256406   4.831   6.096  12.529 -0.1688 -0.7225  0.5822
11664TIP3    H156407   4.765   6.164  12.518  0.2609 -0.2232  1.0651
11664TIP3    H256408   4.861   6.077  12.440 -0.6534 -0.6417  0.4036
11665TIP3   OH256409   5.354   5.167  16.648 -0.0862  1.0200  0.3170
11665TIP3    H156410   5.362   5.253  16.689 -0.2188  1.7096 -1.0723
11665TIP3    H256411   5.288   5.180  16.579  0.0334 -0.1398 -0.0217
11666TIP3   OH256412   0.839   0.950   2.486 -0.1483  0.2294 -0.3813
11666TIP3    H156413   0.814   0.872   2.438  1.9872 -0.2756 -0.7369
11666TIP3    H256414   0.760   1.004   2.488 -1.0863 -1.0572 -1.8554
11667TIP3   OH256415   6.019   4.558  16.309  0.1477 -0.2752  0.6372
11667TIP3    H156416   6.077   4.615  16.258  1.8829 -2.2210  0.3560
11667TIP3    H256417   5.952   4.530  16.246 -1.3883  2.2863  1.0587
11668TIP3   OH256418   2.747   4.020  16.839 -0.6810  0.1590  0.3252
11668TIP3    H156419   2.760   4.030  16.745 -0.5463 -0.3312  0.2931
11668TIP3    H256420   2.817   4.072  16.879 -0.7728  0.4145  0.1597
11669TIP3   OH256421   0.789   5.786  15.358  0.6471 -0.2558  0.1010
11669TIP3    H156422   0.750   5.811  15.274  0.6159 -0.7355 -0.0291
11669TIP3    H256423   0.745   5.704  15.381  0.5050 -0.0168  0.6880
11670TIP3   OH256424   5.977   0.322   3.482  0.1972 -0.0416 -0.5398
11670TIP3    H156425   5.979   0.281   3.568 -0.8028  0.6363 -0.1838
11670TIP3    H256426   6.041   0.393   3.488  0.0553  0.0687 -0.3172
11671TIP3   OH256427   3.651   0.926  15.357  0.2057 -0.4052 -0.3439
11671TIP3    H156428   3.670   0.833  15.371 -0.3528 -0.3867  0.5064
11671TIP3    H256429   3.726   0.972  15.396 -0.6875 -0.4051  1.3718
11672TIP3   OH256430   0.314   3.385   2.966  0.3838 -0.0998 -0.2158
11672TIP3    H156431   0.319   3.290   2.980  1.6730  0.0908  0.7622
11672TIP3    H256432   0.254   3.416   3.034 -0.3031 -0.2542 -0.7510
11673TIP3   OH256433   4.365   2.293  15.852  0.1389  0.3603 -0.2220
11673TIP3    H156434   4.414   2.368  15.818  2.4693 -0.9282  0.1905
11673TIP3    H256435   4.324   2.254  15.775  2.5997 -0.5487 -1.1222
11674TIP3   OH256436   6.201   5.041  13.727  0.0668  0.0060 -0.6692
11674TIP3    H156437   6.117   5.078  13.753  0.2589 -0.3256  0.4651
11674TIP3    H256438   6.228   5.092  13.651 -2.1109 -1.2075 -2.2878
11675TIP3   OH256439   4.750   6.339   5.036  0.1884  0.1678  0.6068
11675TIP3    H156440   4.702   6.279   5.093 -1.9138 -0.2476 -1.5667
11675TIP3    H256441   4.752   6.296   4.951  1.3638  1.8082 -0.2243
11676TIP3   OH256442   6.047   0.170  17.188 -0.3513 -0.0132 -0.2263
11676TIP3    H156443   6.083   0.104  17.247 -0.2251  0.0139 -0.2717
11676TIP3    H256444   6.058   0.253  17.233  2.6802  0.3990 -1.6418
11677TIP3   OH256445   3.279   1.117  15.464  0.1243 -0.6913 -0.1186
11677TIP3    H156446   3.199   1.090  15.510 -1.3149  1.0427 -1.5357
11677TIP3    H256447   3.283   1.058  15.389 -0.0200 -0.5441 -0.2426
11678TIP3   OH256448   1.050   6.527  13.281 -0.3970  0.1342  0.3128
11678TIP3    H156449   1.076   6.589  13.350  0.4798 -0.9319  0.9679
11678TIP3    H256450   1.003   6.580  13.217  1.0432  1.6475  0.4599
11679TIP3   OH256451   3.343   5.151  16.073 -0.0335 -0.0277  0.1840
11679TIP3    H156452   3.337   5.073  16.017 -0.6518  1.1438 -1.4373
11679TIP3    H256453   3.424   5.140  16.122  0.0845 -1.5009 -0.3332
11680TIP3   OH256454   1.496   4.862  15.758 -0.6150  0.4840 -1.0270
11680TIP3    H156455   1.527   4.932  15.816  0.5211  0.0817 -1.1267
11680TIP3    H256456   1.574   4.807  15.744 -1.4006 -0.5843 -1.2458
11681TIP3   OH256457   0.231   0.860   3.354  0.4971  0.0785 -0.2246
11681TIP3    H156458   0.190   0.923   3.295 -0.7294  0.7966  1.3518
11681TIP3    H256459   0.162   0.796   3.373  1.1940 -0.7421 -0.4070
11682TIP3   OH256460   5.370   1.226   0.785  0.8499  0.0057  0.7723
11682TIP3    H156461   5.348   1.195   0.874 -0.5928 -1.9453 -0.2170
11682TIP3    H256462   5.286   1.227   0.739  1.8586 -0.8233 -1.1270
11683TIP3   OH256463   1.696   5.894  12.239 -1.0355 -0.0592  0.0557
11683TIP3    H156464   1.756   5.899  12.313 -1.3883  0.1659  0.3282
11683TIP3    H256465   1.751   5.906  12.162 -0.2995 -2.5037  0.1305
11684TIP3   OH256466   1.125   6.270  10.893 -0.6116  0.6516 -0.5689
11684TIP3    H156467   1.214   6.282  10.927 -0.4831  0.1919 -0.7321
11684TIP3    H256468   1.139   6.246  10.801 -0.9310  1.2780 -0.7871
11685TIP3   OH256469   3.063   4.908  11.398  0.4632 -0.6353  0.5219
11685TIP3    H156470   3.000   4.968  11.439  0.1635 -0.0671 -0.7607
11685TIP3    H256471   3.117   4.964  11.343 -1.1414 -1.7635 -2.3189
11686TIP3   OH256472   5.275   6.258   0.475  0.7360  0.7655 -0.1491
11686TIP3    H156473   5.232   6.262   0.561  0.6564  0.8095 -0.1903
11686TIP3    H256474   5.303   6.167   0.466 -2.0682 -0.0264 -1.4332
11687TIP3   OH256475   4.340   2.275  16.280 -0.3897  0.5808  0.3002
11687TIP3    H156476   4.433   2.259  16.300 -0.3450  2.7996  2.1094
11687TIP3    H256477   4.313   2.199  16.228  1.7734 -1.3563  1.8962
11688TIP3   OH256478   3.522   3.370   4.878 -0.2003  0.1547  0.2864
11688TIP3    H156479   3.491   3.281   4.860 -0.1645  0.2085 -0.0498
11688TIP3    H256480   3.583   3.360   4.951  0.3346 -0.1947 -0.1996
11689TIP3   OH256481   1.722   2.964  13.106 -0.8468 -0.1408  0.9665
11689TIP3    H156482   1.727   3.058  13.123 -1.3200 -0.2702  1.8368
11689TIP3    H256483   1.630   2.948  13.086 -0.7642 -0.4224  0.8049
11690TIP3   OH256484   1.814   1.434   0.911 -0.0470  0.2473 -0.0489
11690TIP3    H156485   1.895   1.410   0.866  0.0323 -0.6494  0.5807
11690TIP3    H256486   1.791   1.358   0.963 -1.9706  0.0119 -1.1754
11691TIP3   OH256487   0.630   0.529   5.259  0.0165 -0.0388  0.3520
11691TIP3    H156488   0.668   0.488   5.181  1.7468 -0.2588  1.2875
11691TIP3    H256489   0.568   0.593   5.224  1.1427  0.2352 -1.2205
11692TIP3   OH256490   2.570   3.454  15.846  0.1235  0.2674 -0.5101
11692TIP3    H156491   2.518   3.533  15.834  1.1268  1.1668  0.8171
11692TIP3    H256492   2.528   3.408  15.919 -0.1039 -0.1252 -0.8852
11693TIP3   OH256493   4.539   0.155   5.919  0.8823  0.1418 -0.6007
11693TIP3    H156494   4.522   0.235   5.969 -1.6102  0.3122 -1.6409
11693TIP3    H256495   4.515   0.085   5.979 -0.9474  0.3141 -1.1021
11694TIP3   OH256496   2.322   2.838   4.915  0.4318  0.0270 -0.2647
11694TIP3    H156497   2.254   2.883   4.865  0.3106  3.4600  2.8057
11694TIP3    H256498   2.276   2.764   4.955 -0.8319  0.6187 -0.5648
11695TIP3   OH256499   0.363   0.034  15.628 -0.6910  0.0733 -0.0094
11695TIP3    H156500   0.381   0.051  15.721 -0.1670  1.4257 -0.3396
11695TIP3    H256501   0.407   0.106  15.582 -0.5280 -0.8591 -1.3370
11696TIP3   OH256502   5.809   2.468  12.083 -0.1275 -0.3644 -0.0588
11696TIP3    H156503   5.748   2.403  12.048 -0.0145  0.5524 -2.0321
11696TIP3    H256504   5.774   2.552  12.053  0.6529  0.3702  1.0427
11697TIP3   OH256505   3.843   3.635   5.213  0.8017 -0.2898  0.2754
11697TIP3    H156506   3.838   3.704   5.147  0.3621  1.2968  1.9328
11697TIP3    H256507   3.753   3.606   5.224  1.0061 -1.2595 -0.5342
11698TIP3   OH256508   3.193   6.018   3.087 -0.3127  0.3827 -0.3214
11698TIP3    H156509   3.255   5.995   3.019 -1.2346 -1.1574 -0.6679
11698TIP3    H256510   3.234   6.090   3.135  0.6267  1.0240 -2.0840
11699TIP3   OH256511   2.791   3.215  16.049 -0.6072 -0.3285  0.4896
11699TIP3    H156512   2.763   3.126  16.068 -0.4140 -0.6830 -0.8117
11699TIP3    H256513   2.796   3.219  15.953  2.8245 -0.0156  0.5924
11700TIP3   OH256514   3.052   0.722   0.905 -0.1536  0.1975  0.9571
11700TIP3    H156515   3.147   0.726   0.909 -0.1592  0.7521  0.4742
11700TIP3    H256516   3.024   0.732   0.997  0.3534 -3.1235  1.5137
11701TIP3   OH256517   1.747   2.673  15.246  0.3712  1.0245  0.3405
11701TIP3    H156518   1.798   2.696  15.168 -0.2479  0.9507 -0.0971
11701TIP3    H256519   1.765   2.580  15.261 -1.7062  0.2992 -1.4187
11702TIP3   OH256520   1.660   2.774  14.809 -0.4308 -0.5423  0.0626
11702TIP3    H156521   1.608   2.710  14.859 -0.7058 -0.6220 -0.3205
11702TIP3    H256522   1.602   2.800  14.738 -0.3527  0.2058  0.2708
11703TIP3   OH256523   2.171   2.877  17.046 -0.2765  0.2052 -0.4476
11703TIP3    H156524   2.158   2.801  16.989  0.3910 -0.1014 -0.1979
11703TIP3    H256525   2.143   2.847  17.133 -0.2056  0.3136 -0.3887
11704TIP3   OH256526   4.423   5.134   1.215 -0.1924 -0.3461  0.7488
11704TIP3    H156527   4.408   5.121   1.122  1.0535  0.6423  0.3810
11704TIP3    H256528   4.339   5.162   1.250 -0.7181 -0.9464 -0.0383
11705TIP3   OH256529   6.697   6.271  16.880  0.4200 -0.0948  0.7751
11705TIP3    H156530   6.665   6.238  16.796  0.3150 -0.3268  0.9070
11705TIP3    H256531   6.673   6.202  16.943 -1.3012  0.9756  1.3270
11706TIP3   OH256532   2.013   0.315  16.401  0.3843 -0.5856 -0.2847
11706TIP3    H156533   2.010   0.355  16.488 -0.4950 -1.7562  0.2317
11706TIP3    H256534   1.969   0.379  16.344 -0.6276 -0.6018  0.4565
11707TIP3   OH256535   6.641   3.610  12.379 -0.3999  0.7339  0.3019
11707TIP3    H156536   6.716   3.554  12.361 -0.9963 -0.6975  2.0233
11707TIP3    H256537   6.585   3.601  12.302  0.2019  0.0850 -0.0636
11708TIP3   OH256538   5.852   3.638  13.862  0.0984  0.3302 -0.4350
11708TIP3    H156539   5.785   3.693  13.823  0.3121  0.9514  0.0639
11708TIP3    H256540   5.844   3.653  13.956  1.9333  1.6179 -0.4365
11709TIP3   OH256541   3.283   0.756   2.309 -0.2476 -0.2016  0.3529
11709TIP3    H156542   3.284   0.840   2.264 -0.0085  0.0266  0.7780
11709TIP3    H256543   3.276   0.691   2.239 -3.4936  0.2774  0.1677
11710TIP3   OH256544   5.169   1.622  13.726  0.5467  0.2073 -0.0163
11710TIP3    H156545   5.176   1.540  13.678 -1.1038 -0.6304  1.1233
11710TIP3    H256546   5.078   1.650  13.714  1.0155  1.7196 -0.1523
11711TIP3   OH256547   0.609   4.136  15.984 -0.1941  0.2312  0.4240
11711TIP3    H156548   0.568   4.130  16.070 -0.2515 -1.0922  0.3210
11711TIP3    H256549   0.537   4.124  15.922 -0.3196  2.2214  0.1625
11712TIP3   OH256550   3.373   6.260  13.580  0.1363  0.8155  0.1011
11712TIP3    H156551   3.313   6.189  13.605  0.0317  0.6234 -0.6862
11712TIP3    H256552   3.404   6.295  13.663 -2.7017  2.3202  0.6074
11713TIP3   OH256553   2.575   3.910  11.273 -0.0070  0.2564  0.4342
11713TIP3    H156554   2.508   3.978  11.276  1.0592  1.2941  1.0874
11713TIP3    H256555   2.535   3.836  11.319 -0.9226  0.6577  0.3031
11714TIP3   OH256556   6.640   6.679   2.880 -0.6804 -1.0127 -0.2502
11714TIP3    H156557   6.701   6.684   2.806  0.1308 -0.7594  0.4396
11714TIP3    H256558   6.686   6.629   2.947 -1.6380 -1.7466 -0.1141
11715TIP3   OH256559   5.945   2.933   4.576  0.2745  0.4452  0.0574
11715TIP3    H156560   6.004   2.999   4.540  1.7313 -0.5631  0.5470
11715TIP3    H256561   5.878   2.922   4.509  1.0939  1.0249 -0.8715
11716TIP3   OH256562   4.676   2.349  14.025  0.2159  0.1959 -0.1050
11716TIP3    H156563   4.729   2.271  14.040  2.7852  1.8222 -0.4152
11716TIP3    H256564   4.648   2.376  14.112  0.9615  0.0315  0.1918
11717TIP3   OH256565   2.851   4.633  11.942  0.2934 -0.0736 -0.2634
11717TIP3    H156566   2.830   4.578  11.866  0.0829 -0.4341  0.0543
11717TIP3    H256567   2.939   4.666  11.924  0.6218 -0.9139 -0.2190
11718TIP3   OH256568   0.983   5.605  14.705  0.2734 -0.2062 -0.2419
11718TIP3    H156569   1.039   5.601  14.783 -0.1533 -0.4321  0.0511
11718TIP3    H256570   0.925   5.679  14.720 -3.8005 -3.7130  2.3575
11719TIP3   OH256571   5.722   2.551  14.131 -0.0361  0.1275 -0.5182
11719TIP3    H156572   5.812   2.580  14.142  0.6553 -2.3459  0.8135
11719TIP3    H256573   5.673   2.630  14.107  2.3139  1.6527 -0.3978
11720TIP3   OH256574   2.277   2.253   4.085  0.7902 -0.3840  0.1447
11720TIP3    H156575   2.245   2.171   4.123 -1.4016 -0.2661 -1.3540
11720TIP3    H256576   2.284   2.313   4.159 -0.7292 -0.9785  0.7873
11721TIP3   OH256577   3.699   3.269  17.083  0.6002 -0.3856 -0.0700
11721TIP3    H156578   3.649   3.216  17.021 -0.2278  2.7510 -2.2002
11721TIP3    H256579   3.638   3.288  17.154  0.1800 -0.3991 -0.4260
11722TIP3   OH256580   5.271   3.152   6.467  0.5390 -0.3617  0.3778
11722TIP3    H156581   5.361   3.155   6.434  0.5839 -0.1204  0.5159
11722TIP3    H256582   5.235   3.070   6.432  0.1798  0.4907 -1.3344
11723TIP3   OH256583   2.888   6.666   0.535 -0.0820  0.5424 -0.2996
11723TIP3    H156584   2.835   6.717   0.595 -0.3608 -0.7152  0.5504
11723TIP3    H256585   2.824   6.613   0.487  0.3141 -0.2107 -0.0067
11724TIP3   OH256586   2.451   4.568  16.194  0.2345  0.3080  0.3712
11724TIP3    H156587   2.432   4.488  16.243 -0.5515  0.4063  0.2415
11724TIP3    H256588   2.471   4.633  16.261 -1.9383  0.7355  0.6639
11725TIP3   OH256589   4.742   0.720  11.249  0.1335  0.0401  0.2736
11725TIP3    H156590   4.734   0.749  11.158 -0.5511 -0.0048  0.3109
11725TIP3    H256591   4.651   0.711  11.278  0.3516  0.4277  1.0771
11726TIP3   OH256592   4.268   5.457   1.674  0.1247  0.1962  0.1046
11726TIP3    H156593   4.345   5.451   1.730  0.0747  1.5821  0.3288
11726TIP3    H256594   4.289   5.525   1.610 -1.9872  2.6930  1.9225
11727TIP3   OH256595   5.907   5.758  14.018 -0.0196 -0.3375 -0.6332
11727TIP3    H156596   5.832   5.813  14.039 -0.2750 -1.1162  0.5846
11727TIP3    H256597   5.975   5.786  14.079 -0.4257 -1.9165  0.5733
11728TIP3   OH256598   2.490   2.733  13.714 -0.6040  0.1925 -0.4216
11728TIP3    H156599   2.451   2.816  13.687 -4.0258 -0.9000  0.8538
11728TIP3    H256600   2.432   2.666  13.677 -0.7985 -1.4768  2.7060
11729TIP3   OH256601   3.372   5.495   5.871 -0.4858  0.1180  0.2842
11729TIP3    H156602   3.320   5.464   5.945  1.2455 -0.0031  1.4709
11729TIP3    H256603   3.383   5.418   5.816 -2.5643  0.4205 -0.5996
11730TIP3   OH256604   1.689   3.365  15.655  0.0903 -0.2612  0.0906
11730TIP3    H156605   1.632   3.436  15.685 -0.5365  0.0023 -1.6602
11730TIP3    H256606   1.776   3.404  15.652  0.1059 -0.2018  1.2320
11731TIP3   OH256607   5.448   1.420   2.479 -0.1823  0.4110 -0.0094
11731TIP3    H156608   5.446   1.382   2.567  0.6698 -1.6242 -0.8291
11731TIP3    H256609   5.356   1.430   2.455 -0.4611 -2.1867 -0.1698
11732TIP3   OH256610   6.320   3.535  14.505 -0.7510 -0.2034  0.2314
11732TIP3    H156611   6.290   3.527  14.596 -0.5284 -1.6697  0.1899
11732TIP3    H256612   6.331   3.444  14.476 -1.6955  0.2308 -1.5547
11733TIP3   OH256613   2.060   2.374   2.931 -0.0433 -0.6922  0.1164
11733TIP3    H156614   2.152   2.353   2.948 -0.6397 -2.5522  1.1283
11733TIP3    H256615   2.028   2.408   3.015 -0.7133 -1.6447  0.2542
11734TIP3   OH256616   2.046   1.217  15.336 -0.6523  0.4448  0.4400
11734TIP3    H156617   2.133   1.213  15.375  0.0632  0.1276 -1.1902
11734TIP3    H256618   1.989   1.242  15.409  0.6587 -0.2172  1.7109
11735TIP3   OH256619   0.627   6.062   6.578 -0.1106 -0.4516 -0.1230
11735TIP3    H156620   0.635   6.063   6.483  0.9336  0.5930 -0.0306
11735TIP3    H256621   0.717   6.066   6.610 -0.4304 -1.2220  0.9125
11736TIP3   OH256622   5.306   0.128   2.271  0.0821  0.6557  0.3624
11736TIP3    H156623   5.237   0.107   2.209 -2.3562  1.8264  2.5647
11736TIP3    H256624   5.346   0.044   2.293 -1.4839 -0.1927 -0.0021
11737TIP3   OH256625   3.446   5.997  16.252  0.2247  0.0379  0.4889
11737TIP3    H156626   3.452   6.002  16.347  0.4364  1.6122  0.4055
11737TIP3    H256627   3.433   5.904  16.234 -1.1843 -0.1211  2.1349
11738TIP3   OH256628   4.235   4.254   1.516 -0.1572  0.3750 -0.1840
11738TIP3    H156629   4.146   4.231   1.492  0.0951 -1.5271  0.6390
11738TIP3    H256630   4.263   4.316   1.448 -2.3659  1.6532  0.0403
11739TIP3   OH256631   5.475   5.021  12.855 -0.2371  0.4262 -0.0883
11739TIP3    H156632   5.397   4.975  12.886 -0.0850  0.8039  0.8919
11739TIP3    H256633   5.462   5.031  12.761 -0.2612 -1.6626 -0.3297
11740TIP3   OH256634   0.063   1.306   3.243 -0.4775 -0.3673  0.8856
11740TIP3    H156635   0.064   1.375   3.309  1.6159  0.2836  0.2273
11740TIP3    H256636   0.062   1.354   3.160  0.1759 -1.1253  0.4366
11741TIP3   OH256637   3.785   1.852  13.144 -0.3371  0.1819 -0.1604
11741TIP3    H156638   3.711   1.861  13.205 -0.8096 -0.1576 -0.6777
11741TIP3    H256639   3.833   1.935  13.152 -0.7849  0.4116  0.1673
11742TIP3   OH256640   6.187   3.684  13.034 -0.0101 -0.1686 -0.3218
11742TIP3    H156641   6.223   3.604  13.072 -2.7710 -0.4694  1.8187
11742TIP3    H256642   6.206   3.752  13.098 -2.2136 -0.1400  0.3371
11743TIP3   OH256643   0.954   3.373   6.268  0.1681  0.0010 -0.4636
11743TIP3    H156644   0.899   3.424   6.210 -0.6394 -2.0895 -1.6060
11743TIP3    H256645   0.894   3.312   6.311  1.2228 -0.6404  0.1296
11744TIP3   OH256646   4.442   3.292   4.041 -0.3244  0.5046  0.4813
11744TIP3    H156647   4.391   3.359   3.995 -0.1227  1.4264  1.5758
11744TIP3    H256648   4.532   3.308   4.014 -0.4864 -0.6183 -0.8236
11745TIP3   OH256649   6.000   2.137   0.900 -0.5979  0.1692 -0.4384
11745TIP3    H156650   6.048   2.066   0.858 -0.2046 -0.0709  0.3945
11745TIP3    H256651   6.061   2.212   0.898 -0.6440  0.2060 -0.4646
11746TIP3   OH256652   6.280   2.852   1.403 -0.1609 -0.8323 -0.3700
11746TIP3    H156653   6.236   2.776   1.363 -0.6360 -1.9749  2.2177
11746TIP3    H256654   6.224   2.926   1.380 -1.2061 -1.6689 -0.5930
11747TIP3   OH256655   0.750   5.400  12.205 -1.1862 -0.2087  0.6003
11747TIP3    H156656   0.781   5.335  12.269  0.4885  0.1591  0.1837
11747TIP3    H256657   0.730   5.348  12.127  0.7169 -0.1703  0.0714
11748TIP3   OH256658   4.922   4.524   2.818  0.8984  0.6159  0.0178
11748TIP3    H156659   4.932   4.455   2.752  0.0020  1.7547 -1.3512
11748TIP3    H256660   4.994   4.584   2.800  0.7270  0.8630  0.1646
11749TIP3   OH256661   0.301   1.265  13.043 -0.1144 -0.5229 -0.2028
11749TIP3    H156662   0.318   1.220  13.126 -1.7990 -0.8820 -0.0532
11749TIP3    H256663   0.229   1.325  13.062  1.4791  1.6059 -0.6344
11750TIP3   OH256664   5.533   0.191   3.294 -0.2864  0.1734 -0.2322
11750TIP3    H156665   5.526   0.220   3.204 -0.2611  0.1511 -0.2415
11750TIP3    H256666   5.568   0.102   3.288 -0.5784  0.0574 -0.2137
11751TIP3   OH256667   3.714   4.642   0.562 -0.1931 -0.1920 -0.0997
11751TIP3    H156668   3.665   4.633   0.644  0.8669  0.2403  0.5931
11751TIP3    H256669   3.661   4.702   0.509 -1.8080 -1.9048 -0.4796
11752TIP3   OH256670   0.264   0.525  13.879 -0.5127  0.1266 -0.0119
11752TIP3    H156671   0.229   0.471  13.950  1.2755 -0.3141  0.5370
11752TIP3    H256672   0.198   0.594  13.868 -0.8645  0.1468  1.9937
11753TIP3   OH256673   1.613   2.067  13.976 -0.0106 -0.6139 -0.5361
11753TIP3    H156674   1.588   2.153  14.009  1.7256  0.5406 -2.0856
11753TIP3    H256675   1.696   2.048  14.020 -0.5999 -1.6876  0.1162
11754TIP3   OH256676   5.120   1.113   6.322  0.5645  0.1797 -0.0004
11754TIP3    H156677   5.179   1.162   6.380 -1.7071  0.5831  2.0178
11754TIP3    H256678   5.049   1.083   6.379 -1.2060 -0.2825 -2.3810
11755TIP3   OH256679   6.607   3.162   4.125  0.1961  0.6565  0.4964
11755TIP3    H156680   6.607   3.255   4.148 -1.9176  0.7018  0.4246
11755TIP3    H256681   6.533   3.125   4.173  0.9966 -0.9861  0.4915
11756TIP3   OH256682   0.688   1.197   4.458  1.1329  0.2835  0.1505
11756TIP3    H156683   0.700   1.119   4.403  1.1104  0.5691 -0.2641
11756TIP3    H256684   0.664   1.266   4.396  1.6376  0.7360  0.4508
11757TIP3   OH256685   2.189   3.495   0.335 -0.2672 -0.0142 -0.1963
11757TIP3    H156686   2.219   3.404   0.343 -1.6450 -0.6177 -1.5568
11757TIP3    H256687   2.197   3.515   0.242  1.4789  1.8099  0.3056
11758TIP3   OH256688   5.882   3.459   4.602 -0.4080 -0.1920 -0.0247
11758TIP3    H156689   5.814   3.515   4.640  1.2826  1.6888  0.3261
11758TIP3    H256690   5.963   3.491   4.641  0.6631 -2.5965 -0.2132
11759TIP3   OH256691   2.208   4.525  15.252  0.1438  0.1062  0.3589
11759TIP3    H156692   2.294   4.565  15.240  0.6595 -0.5136  1.9390
11759TIP3    H256693   2.149   4.600  15.266  0.6412  0.4612  0.5866
11760TIP3   OH256694   5.722   4.650  12.169 -0.8612 -0.7126  0.2056
11760TIP3    H156695   5.694   4.625  12.080 -0.4071 -0.0041 -0.1393
11760TIP3    H256696   5.794   4.711  12.155 -1.9227  0.7587  1.0270
11761TIP3   OH256697   6.071   5.695  11.794  0.5734  0.0125 -0.2608
11761TIP3    H156698   6.128   5.766  11.765  0.8062 -0.1429 -0.1879
11761TIP3    H256699   6.058   5.641  11.716 -0.1360  0.4945 -0.4738
11762TIP3   OH256700   3.201   3.954  11.493  0.2244  0.2469  0.5220
11762TIP3    H156701   3.196   3.910  11.579 -0.2832  1.1444  0.9585
11762TIP3    H256702   3.230   3.885  11.433 -3.2959 -1.4833  0.6445
11763TIP3   OH256703   5.432   2.511  15.705  0.5809 -0.1469  0.1032
11763TIP3    H156704   5.395   2.459  15.776 -0.5600 -0.2165 -0.5286
11763TIP3    H256705   5.455   2.447  15.637 -1.2365  0.1741 -0.8587
11764TIP3   OH256706   0.618   4.471   1.920  0.4380 -0.3296  0.1592
11764TIP3    H156707   0.599   4.562   1.942 -0.8687 -0.5935  0.1337
11764TIP3    H256708   0.636   4.472   1.826 -0.8925 -0.2975 -0.1032
11765TIP3   OH256709   0.423   6.215   0.373  0.4329  0.1498 -0.5331
11765TIP3    H156710   0.375   6.163   0.438  0.4415 -0.6715 -1.1694
11765TIP3    H256711   0.459   6.288   0.422 -0.1776 -0.0692  0.2482
11766TIP3   OH256712   1.288   3.605   1.253  0.1991 -0.1598 -0.0719
11766TIP3    H156713   1.217   3.653   1.210 -1.6874 -0.8743  2.1139
11766TIP3    H256714   1.309   3.658   1.330  0.6636 -0.9461  0.3465
11767TIP3   OH256715   1.153   2.985  15.283  0.1784  0.0134  0.0214
11767TIP3    H156716   1.136   3.076  15.259 -0.2175 -1.1700 -4.7370
11767TIP3    H256717   1.239   2.987  15.325  0.1653  2.5967 -0.0095
11768TIP3   OH256718   1.212   0.341   2.073 -0.1873 -0.3926  0.5773
11768TIP3    H156719   1.259   0.403   2.130 -0.9449 -0.1187  0.9158
11768TIP3    H256720   1.122   0.375   2.071  0.0254  0.0986 -1.4902
11769TIP3   OH256721   4.403   6.339  12.663 -0.2377  0.1950  0.3266
11769TIP3    H156722   4.432   6.393  12.590 -0.4843 -0.0271  0.0618
11769TIP3    H256723   4.353   6.399  12.718  3.0902  1.3043  2.2860
11770TIP3   OH256724   5.712   5.545  16.919 -0.1414 -0.3779 -0.3512
11770TIP3    H156725   5.668   5.585  16.844 -1.0254 -1.6504 -0.5227
11770TIP3    H256726   5.648   5.550  16.990  1.0814  1.7768  0.6227
11771TIP3   OH256727   0.631   2.184  14.820 -0.1664  0.4732  0.1239
11771TIP3    H156728   0.590   2.245  14.880 -1.5946  1.4144 -1.7700
11771TIP3    H256729   0.563   2.120  14.800  0.2947  0.1613 -0.4680
11772TIP3   OH256730   3.774   1.944   3.464 -0.0448 -0.2345  0.6788
11772TIP3    H156731   3.809   1.972   3.549  0.2779  0.7819  0.2221
11772TIP3    H256732   3.772   2.024   3.411  3.7622 -1.5685 -1.6882
11773TIP3   OH256733   6.060   1.604  12.988 -0.0817  0.1997  0.0502
11773TIP3    H156734   6.097   1.518  13.008 -0.0731  0.4695  1.2646
11773TIP3    H256735   6.125   1.646  12.932  1.0318  0.3083  1.3818
11774TIP3   OH256736   6.229   4.479  17.221  0.5305  0.0699 -0.0249
11774TIP3    H156737   6.268   4.478  17.308 -1.1968 -3.4939  0.8296
11774TIP3    H256738   6.232   4.387  17.193 -2.6274  0.5055 -2.0047
11775TIP3   OH256739   4.988   6.224  17.073 -0.1881  0.1730 -0.2508
11775TIP3    H156740   5.071   6.242  17.116  0.8892 -1.6608 -1.5145
11775TIP3    H256741   5.000   6.253  16.983 -0.6846 -0.7055 -0.6083
11776TIP3   OH256742   2.901   1.807  14.746 -0.4067 -0.7712  0.6296
11776TIP3    H156743   2.960   1.846  14.681 -0.4556 -0.9808  0.4586
11776TIP3    H256744   2.838   1.876  14.766  0.4612 -0.2305  1.5147
11777TIP3   OH256745   3.769   0.772  12.779 -0.1378  0.1549 -0.2044
11777TIP3    H156746   3.857   0.784  12.815 -0.5944  3.0105  0.0724
11777TIP3    H256747   3.782   0.721  12.699  1.8573  1.2298 -0.5884
11778TIP3   OH256748   0.812   4.486   4.090 -0.1390 -0.1411  0.1019
11778TIP3    H156749   0.732   4.463   4.043 -0.6538 -0.5706  1.1692
11778TIP3    H256750   0.882   4.475   4.025 -0.8175 -0.8852 -0.5161
11779TIP3   OH256751   1.370   4.395  16.684  0.1418 -0.4327  0.3391
11779TIP3    H156752   1.297   4.395  16.746 -0.5965 -2.6963 -0.4956
11779TIP3    H256753   1.356   4.473  16.631 -2.0004 -1.1456 -0.1873
11780TIP3   OH256754   3.063   3.523  14.918 -0.0112 -0.0909 -0.0748
11780TIP3    H156755   3.129   3.454  14.915 -1.2869 -1.4095  1.1027
11780TIP3    H256756   3.102   3.597  14.871  1.2626 -1.7274 -1.6429
11781TIP3   OH256757   4.719   1.201  12.248 -0.3743  0.2673  0.0303
11781TIP3    H156758   4.770   1.187  12.328 -0.0622  0.3857 -0.1467
11781TIP3    H256759   4.667   1.279  12.266 -0.0523  0.4921 -0.0053
11782TIP3   OH256760   6.681   1.687   1.490  0.3421  0.0481 -0.4565
11782TIP3    H156761   6.665   1.655   1.579  2.1955  1.5298  0.4377
11782TIP3    H256762   6.595   1.686   1.449 -0.6898  0.1864  1.6371
11783TIP3   OH256763   5.287   6.720  11.868 -0.1735 -0.0640 -0.7855
11783TIP3    H156764   5.216   6.669  11.828 -0.3584 -1.9339  1.8090
11783TIP3    H256765   5.367   6.679  11.837 -0.2877 -0.5663 -0.4129
11784TIP3   OH256766   2.121   4.944  11.379  0.3429 -0.4960 -0.2192
11784TIP3    H156767   2.036   4.987  11.369  0.9732  0.7390 -0.3553
11784TIP3    H256768   2.164   4.956  11.295  0.5411 -1.3970 -0.2530
11785TIP3   OH256769   0.689   6.307  13.556 -0.7859  0.3764 -0.3532
11785TIP3    H156770   0.781   6.322  13.576 -0.9064  0.4860  0.1393
11785TIP3    H256771   0.643   6.375  13.606 -1.0355  1.2771 -1.7849
11786TIP3   OH256772   3.818   5.344   4.379 -0.2650  0.6253 -0.4305
11786TIP3    H156773   3.725   5.322   4.379 -0.2253  0.4534 -0.1809
11786TIP3    H256774   3.835   5.379   4.291 -0.8054  1.6948 -0.1127
11787TIP3   OH256775   4.384   4.020  11.988  0.4390 -0.8973  0.4358
11787TIP3    H156776   4.389   4.046  11.896 -1.6352  0.5412  0.7017
11787TIP3    H256777   4.294   3.989  11.999  0.1725  0.5031  2.3669
11788TIP3   OH256778   2.604   0.963  10.872 -0.2707 -0.1980  0.4779
11788TIP3    H156779   2.559   0.949  10.789 -1.2146  1.0811  0.7568
11788TIP3    H256780   2.549   1.026  10.919 -0.0954 -1.3712  2.3419
11789TIP3   OH256781   3.026   0.674  12.796 -0.0922 -0.2330 -0.4373
11789TIP3    H156782   2.938   0.712  12.793 -0.0681 -0.2351 -1.3283
11789TIP3    H256783   3.014   0.583  12.766 -0.0655 -0.7899  1.1705
11790TIP3   OH256784   2.430   1.746   1.526  0.1477  0.0682  0.6185
11790TIP3    H156785   2.421   1.828   1.477  0.8575 -0.5501 -0.5785
11790TIP3    H256786   2.501   1.763   1.589  2.3249 -0.5208 -1.5998
11791TIP3   OH256787   0.939   0.174  14.899  0.0028  0.1935 -0.0555
11791TIP3    H156788   0.849   0.162  14.867  0.9904 -1.8647 -2.2159
11791TIP3    H256789   0.928   0.219  14.983 -3.2580 -2.6805  1.2179
11792TIP3   OH256790   6.650   6.336   5.796 -0.3117  0.5307 -0.0742
11792TIP3    H156791   6.628   6.408   5.856  1.1061  1.3452 -0.5208
11792TIP3    H256792   6.739   6.354   5.768 -0.6915 -0.2367 -1.8767
11793TIP3   OH256793   6.538   6.493  13.543  0.1474 -0.0347 -0.0806
11793TIP3    H156794   6.458   6.492  13.596  1.5641  0.0053  2.1281
11793TIP3    H256795   6.573   6.581  13.555  1.6508 -0.7302  0.7054
11794TIP3   OH256796   0.256   4.899  16.650  0.5910  0.1972 -0.7052
11794TIP3    H156797   0.273   4.984  16.690 -1.4278  1.2928 -2.0901
11794TIP3    H256798   0.173   4.870  16.689  0.5303 -0.4558 -1.3056
11795TIP3   OH256799   1.877   1.514   0.251  0.3581  0.2173  0.3415
11795TIP3    H156800   1.954   1.457   0.248 -0.3103 -0.7034  0.3818
11795TIP3    H256801   1.807   1.462   0.209 -0.4213  0.7431  0.9754
11796TIP3   OH256802   2.638   5.860   4.428  0.6612 -0.5599 -0.7671
11796TIP3    H156803   2.578   5.925   4.391  0.4551 -0.8387 -0.9284
11796TIP3    H256804   2.703   5.845   4.359  1.6486  0.6701 -0.1220
11797TIP3   OH256805   6.028   5.578   1.132  0.0740 -0.0482 -0.2467
11797TIP3    H156806   5.999   5.663   1.165 -0.0772 -0.6738  1.2453
11797TIP3    H256807   6.123   5.582   1.136  0.0567 -0.1222  0.2781
11798TIP3   OH256808   5.374   0.928  10.162 -0.2490  0.6180 -0.6555
11798TIP3    H156809   5.469   0.942  10.169 -0.3433  0.4700  1.0404
11798TIP3    H256810   5.341   1.010  10.124  0.4785  0.9090 -0.6701
11799TIP3   OH256811   4.683   1.502   3.836 -1.0338 -0.8796  0.5456
11799TIP3    H156812   4.603   1.451   3.824 -1.3011 -0.8609  2.0464
11799TIP3    H256813   4.663   1.558   3.912 -0.8007  1.5412 -1.1127
11800TIP3   OH256814   0.353   2.972   6.279  0.1910 -0.6103 -0.0861
11800TIP3    H156815   0.297   3.018   6.341  0.2545 -0.5325 -0.0858
11800TIP3    H256816   0.442   2.994   6.307  0.2217 -0.7794 -0.0508
11801TIP3   OH256817   4.316   3.736   4.887 -0.1366 -0.0557 -0.0749
11801TIP3    H156818   4.334   3.700   4.974 -2.8977 -0.5829  0.3200
11801TIP3    H256819   4.221   3.739   4.882 -0.0261 -0.6008 -3.3431
11802TIP3   OH256820   2.429   3.832   3.396 -0.8798  0.8469 -0.1688
11802TIP3    H156821   2.520   3.838   3.367  0.3104 -3.1851  2.3262
11802TIP3    H256822   2.381   3.802   3.319  0.5957 -0.7912 -0.4770
11803TIP3   OH256823   2.985   5.252   3.507 -0.0892 -0.4040  0.0623
11803TIP3    H156824   2.987   5.318   3.438  0.0013 -1.7136 -1.2212
11803TIP3    H256825   3.059   5.194   3.487 -0.9168 -1.6103  0.4271
11804TIP3   OH256826   0.464   4.224  12.034  0.0777  0.5060  0.5916
11804TIP3    H156827   0.464   4.181  11.949  0.4015  1.0813  0.2904
11804TIP3    H256828   0.385   4.194  12.077  0.4605 -0.6196  0.5079
11805TIP3   OH256829   0.672   5.144   5.894 -0.3136  0.0537  0.1075
11805TIP3    H156830   0.751   5.179   5.935  0.4362 -2.2776  0.7431
11805TIP3    H256831   0.603   5.155   5.960 -1.0432  3.9642 -1.2076
11806TIP3   OH256832   1.970   3.656   1.013 -0.0392  0.6718 -0.2151
11806TIP3    H156833   1.913   3.579   1.013  0.9165 -0.0461 -0.9405
11806TIP3    H256834   1.980   3.679   1.105  0.2812 -0.5327  0.0527
11807TIP3   OH256835   3.590   5.544   1.470 -0.6179 -0.2316  0.2273
11807TIP3    H156836   3.560   5.457   1.496 -4.0989  1.0259  0.7240
11807TIP3    H256837   3.529   5.604   1.512  1.4315  2.4702 -0.4764
11808TIP3   OH256838   3.407   1.804  14.646 -0.3039  0.3414  0.3702
11808TIP3    H156839   3.377   1.769  14.563  2.4172 -0.1741 -0.4470
11808TIP3    H256840   3.333   1.792  14.706 -1.6181 -1.0050 -1.4763
11809TIP3   OH256841   5.569   0.025  14.927 -0.1649  0.1943  0.3251
11809TIP3    H156842   5.501   0.086  14.956 -0.8057 -0.4804  0.2712
11809TIP3    H256843   5.616   0.002  15.007 -0.3617  0.2343  0.4536
11810TIP3   OH256844   5.438   5.861  15.440 -0.3557  0.3252 -0.1237
11810TIP3    H156845   5.448   5.944  15.393 -2.7473  0.5086 -0.3640
11810TIP3    H256846   5.519   5.853  15.491  1.6299  0.8399 -3.0839
11811TIP3   OH256847   1.090   5.374  15.881 -0.5744  0.0997 -0.0787
11811TIP3    H156848   1.110   5.467  15.869  1.2794 -0.1147  1.1197
11811TIP3    H256849   0.995   5.369  15.877 -0.6695  1.9540 -0.8016
11812TIP3   OH256850   6.633   5.743   3.910 -0.0397 -0.1486 -0.4605
11812TIP3    H156851   6.706   5.798   3.881  1.2066 -0.8212  1.2965
11812TIP3    H256852   6.568   5.805   3.944  0.9155  0.3184  0.5527
11813TIP3   OH256853   4.454   4.334  11.747 -0.2568 -0.3962  0.3645
11813TIP3    H156854   4.511   4.263  11.716  1.6784  1.6452 -0.9469
11813TIP3    H256855   4.466   4.336  11.841 -1.0761 -2.4033  0.5343
11814TIP3   OH256856   5.945   0.378  10.957 -0.9521 -0.1184 -0.1632
11814TIP3    H156857   5.866   0.429  10.976 -0.3678 -0.1955  2.5927
11814TIP3    H256858   6.016   0.441  10.958 -0.8967 -0.1281 -2.1757
11815TIP3   OH256859   5.187   5.085   4.135  0.1675  0.0079 -0.2540
11815TIP3    H156860   5.249   5.155   4.158  2.8174 -2.1099 -0.7043
11815TIP3    H256861   5.161   5.048   4.220 -0.0578  0.5342 -0.0890
11816TIP3   OH256862   0.059   5.323   4.573  0.1796  0.1568  0.3150
11816TIP3    H156863  -0.007   5.343   4.640  0.1571 -3.0649  1.3380
11816TIP3    H256864   0.139   5.364   4.605 -0.3062  0.3128  1.3364
11817TIP3   OH256865   6.099   4.300   4.924  0.0860 -0.5010 -0.6420
11817TIP3    H156866   6.112   4.385   4.967 -0.1698 -0.2141 -1.1230
11817TIP3    H256867   6.183   4.255   4.936  0.2550 -0.1446 -0.4581
11818TIP3   OH256868   1.855   0.832  14.906 -0.2099 -0.1149  0.2584
11818TIP3    H156869   1.938   0.858  14.865 -0.2531 -2.1600 -1.1725
11818TIP3    H256870   1.829   0.909  14.956  1.2852  1.4554 -1.2840
11819TIP3   OH256871   2.155   1.463  11.176  0.4823 -0.0774 -0.7079
11819TIP3    H156872   2.094   1.459  11.249 -2.1357  0.1799 -2.8027
11819TIP3    H256873   2.151   1.554  11.147  0.5485 -0.4654 -1.9491
11820TIP3   OH256874   2.237   2.658  14.718  0.0394 -0.1602  0.1678
11820TIP3    H156875   2.322   2.654  14.761  0.3106 -1.1613 -0.4417
11820TIP3    H256876   2.247   2.725  14.650  0.8936 -1.5024 -1.0543
11821TIP3   OH256877   0.043   0.752  14.126 -0.0198  0.3249 -0.1001
11821TIP3    H156878   0.095   0.672  14.136 -2.2497 -0.9365  1.9317
11821TIP3    H256879   0.058   0.800  14.207  0.4087  1.4332 -0.8298
11822TIP3   OH256880   0.976   2.847   5.938 -0.1431 -0.2140 -0.1435
11822TIP3    H156881   0.971   2.789   6.014 -0.9288 -0.7515 -0.5865
11822TIP3    H256882   1.068   2.871   5.930 -0.0182 -0.4018  0.7936
11823TIP3   OH256883   4.038   3.229   5.808  0.4302  0.0792 -0.0925
11823TIP3    H156884   4.022   3.243   5.902  2.0708 -0.5025  0.2836
11823TIP3    H256885   4.052   3.135   5.800 -2.5879 -0.3443 -1.4015
11824TIP3   OH256886   4.212   1.740   1.487  0.7786 -0.2959  0.2586
11824TIP3    H156887   4.135   1.792   1.465  2.3962  1.2961 -1.8076
11824TIP3    H256888   4.262   1.796   1.547  0.4691 -1.2521  1.4431
11825TIP3   OH256889   1.525   0.549  13.994  0.3120  0.2488  0.2492
11825TIP3    H156890   1.614   0.529  13.964  0.5012 -0.8995  1.5451
11825TIP3    H256891   1.508   0.637  13.961  1.7146  0.2574 -0.4925
11826TIP3   OH256892   2.906   5.253   5.419 -0.4148 -0.4570 -0.5064
11826TIP3    H156893   2.853   5.315   5.469 -1.5970 -0.2869 -1.9415
11826TIP3    H256894   2.988   5.246   5.469 -0.9816  0.8394  0.6425
11827TIP3   OH256895   5.307   4.036   5.862 -0.5391  0.4971  0.2865
11827TIP3    H156896   5.275   4.123   5.884 -3.1430 -0.1869 -0.5721
11827TIP3    H256897   5.286   4.026   5.769  2.9645  0.3000 -0.5319
11828TIP3   OH256898   0.140   6.591   2.976  0.3013  0.3672 -0.1415
11828TIP3    H156899   0.153   6.505   3.016  1.0250  0.2572 -0.6077
11828TIP3    H256900   0.221   6.638   2.996  0.6846  0.2988 -1.5023
11829TIP3   OH256901   3.745   5.578  14.308  0.5051 -0.3236  0.3416
11829TIP3    H156902   3.810   5.514  14.279  0.1092 -1.2730  1.5047
11829TIP3    H256903   3.706   5.612  14.227  0.8601 -1.4020 -0.2873
11830TIP3   OH256904   5.937   3.940  13.241  0.3427 -0.3440  0.4562
11830TIP3    H156905   5.963   4.024  13.203  0.5704 -0.1907  0.9425
11830TIP3    H256906   5.899   3.891  13.168  0.4184  0.0941  0.1218
11831TIP3   OH256907   5.561   0.738   5.737 -0.6793 -0.2841 -0.3531
11831TIP3    H156908   5.516   0.801   5.793  0.2508  0.5666 -0.5498
11831TIP3    H256909   5.498   0.721   5.666 -0.9990  0.2943 -0.2161
11832TIP3   OH256910   0.892   3.742   5.783 -0.0013  0.8765 -0.1993
11832TIP3    H156911   0.830   3.743   5.711 -0.3103 -0.1087  0.0465
11832TIP3    H256912   0.863   3.813   5.841 -1.3461 -0.0430  0.2837
11833TIP3   OH256913   2.724   1.980  14.827  0.1615 -0.3227 -0.2280
11833TIP3    H156914   2.629   1.987  14.825  0.0382 -1.9041 -1.3612
11833TIP3    H256915   2.744   1.952  14.916 -0.5135 -0.8369 -0.2310
11834TIP3   OH256916   6.611   6.317   2.415 -0.1678 -0.3175 -0.2385
11834TIP3    H156917   6.593   6.317   2.321 -0.0991  0.7885 -0.2576
11834TIP3    H256918   6.599   6.408   2.442 -2.8365 -1.0869  1.3318
11835TIP3   OH256919   3.609   2.677   4.678  0.0866 -0.2200  0.0426
11835TIP3    H156920   3.643   2.694   4.590  1.5478  3.9137  1.2772
11835TIP3    H256921   3.516   2.698   4.672  0.3102  0.7056 -0.4128
11836TIP3   OH256922   0.395   5.478   0.486  0.1339 -0.0884  0.7317
11836TIP3    H156923   0.316   5.461   0.435  0.4198  0.6394  0.0360
11836TIP3    H256924   0.363   5.502   0.573 -0.4001 -0.0971  0.5376
11837TIP3   OH256925   4.067   0.288  14.151  0.4626  0.4738 -0.1159
11837TIP3    H156926   4.059   0.383  14.147  1.0552  0.4789 -1.7174
11837TIP3    H256927   4.077   0.261  14.060 -4.0934 -1.5673 -0.1410
11838TIP3   OH256928   0.042   5.452   1.810  0.2046  0.2374 -1.1932
11838TIP3    H156929   0.049   5.518   1.880  1.1307 -0.5912 -0.4904
11838TIP3    H256930   0.071   5.498   1.731 -1.4732  1.3735 -1.1629
11839TIP3   OH256931   3.296   4.670   5.129 -0.2220  0.3544  0.7941
11839TIP3    H156932   3.371   4.615   5.151 -0.0772  0.2778  0.1094
11839TIP3    H256933   3.281   4.655   5.036 -1.0030  0.4776  0.8948
11840TIP3   OH256934   0.631   4.917   4.188  0.4444 -0.1352  0.3828
11840TIP3    H156935   0.603   4.953   4.272 -1.7370  0.4882 -0.5937
11840TIP3    H256936   0.614   4.823   4.196 -1.0346  0.0995  0.1688
11841TIP3   OH256937   3.579   4.793   4.165  0.1765  0.6117 -0.4614
11841TIP3    H156938   3.584   4.728   4.095 -0.1915  0.5765 -0.4507
11841TIP3    H256939   3.639   4.760   4.232  1.1721  1.0586 -1.0991
11842TIP3   OH256940   2.169   5.712  14.065 -0.1387 -0.5971 -0.3693
11842TIP3    H156941   2.139   5.622  14.074 -0.7036 -0.3813 -0.0624
11842TIP3    H256942   2.177   5.744  14.155  0.2198 -0.3974 -0.4744
11843TIP3   OH256943   0.820   1.079   1.779  0.0170 -0.1935  0.6700
11843TIP3    H156944   0.834   0.984   1.780 -0.8448 -0.3180  1.8657
11843TIP3    H256945   0.868   1.109   1.702 -0.0821 -1.6633  0.0146
11844TIP3   OH256946   5.692   4.303  13.259 -0.2580 -0.2566 -0.7905
11844TIP3    H156947   5.774   4.262  13.233 -0.0070 -0.4275  0.2578
11844TIP3    H256948   5.700   4.394  13.230  1.1423  0.2367  1.1070
11845TIP3   OH256949   2.694   2.854  15.777 -0.0072  0.4174 -0.1602
11845TIP3    H156950   2.746   2.775  15.764  2.5534  2.2363 -1.3834
11845TIP3    H256951   2.637   2.859  15.701 -0.0760 -0.1541 -0.1456
11846TIP3   OH256952   3.014   0.060  13.878  0.7049 -0.2112  0.2114
11846TIP3    H156953   3.053   0.019  13.801  0.1246 -0.7867  0.2218
11846TIP3    H256954   2.948  -0.002  13.907  0.8636  0.0471  1.1245
11847TIP3   OH256955   3.139   1.033   5.179  0.4017 -0.2637  0.0299
11847TIP3    H156956   3.145   0.945   5.215  0.8363 -0.8289 -1.3722
11847TIP3    H256957   3.164   1.023   5.087 -1.2169  1.0353 -0.5800
11848TIP3   OH256958   5.307   4.723   0.514  0.0250 -0.1516  0.5805
11848TIP3    H156959   5.328   4.646   0.566  1.6732 -2.5653 -3.4149
11848TIP3    H256960   5.392   4.760   0.490 -0.6084 -0.0400 -1.6375
11849TIP3   OH256961   0.049   0.174   6.058  0.2747  0.4668 -0.5354
11849TIP3    H156962   0.104   0.222   5.997  0.8710  0.8040  0.2487
11849TIP3    H256963  -0.027   0.230   6.072  0.0805  0.3296 -1.0736
11850TIP3   OH256964   2.370   0.434  11.521  0.2393  0.0742  0.6102
11850TIP3    H156965   2.362   0.383  11.440 -0.4348  1.1599 -0.0142
11850TIP3    H256966   2.363   0.525  11.493 -0.5143  0.4423  1.9462
11851TIP3   OH256967   3.277   0.621  14.702 -0.1847  0.6086  0.0247
11851TIP3    H156968   3.267   0.631  14.607  1.0924  1.1706 -0.0602
11851TIP3    H256969   3.352   0.563  14.713 -1.2493 -0.6448  0.6799
11852TIP3   OH256970   6.685   1.517   2.007 -0.3995 -0.5434  0.1252
11852TIP3    H156971   6.648   1.542   2.091  1.4396 -2.7760  1.6348
11852TIP3    H256972   6.768   1.565   2.001 -0.5577 -0.3332 -0.4513
11853TIP3   OH256973   4.320   2.062  16.981  0.4642  0.3035 -0.2756
11853TIP3    H156974   4.386   2.008  17.024  3.0855  3.3450 -0.2300
11853TIP3    H256975   4.351   2.071  16.891 -0.8236  0.3334 -0.7260
11854TIP3   OH256976   3.347   6.218  13.317  0.3600 -0.1097 -0.2792
11854TIP3    H156977   3.384   6.130  13.317 -1.4751 -0.8907  0.0580
11854TIP3    H256978   3.360   6.250  13.407 -0.9823 -0.9161  0.2207
11855TIP3   OH256979   3.913   0.837   0.367  0.4529 -0.4747 -0.2063
11855TIP3    H156980   3.984   0.871   0.312 -1.4892  0.2307 -2.3768
11855TIP3    H256981   3.877   0.763   0.317 -1.5475  0.3690 -0.0837
11856TIP3   OH256982   5.651   5.997   2.042 -0.1173 -0.2946 -0.4008
11856TIP3    H156983   5.626   5.983   2.134  1.6625  0.6391  0.2484
11856TIP3    H256984   5.610   6.080   2.019 -0.1781 -0.2954 -0.2961
11857TIP3   OH256985   4.539   1.116   2.885  0.3540 -0.3363 -0.0068
11857TIP3    H156986   4.610   1.139   2.944  0.6159 -2.8324  0.6870
11857TIP3    H256987   4.516   1.026   2.909 -1.9716 -0.1083 -1.2714
11858TIP3   OH256988   6.225   5.877  12.397  0.1900  0.4447  0.0589
11858TIP3    H156989   6.296   5.905  12.339  0.2234 -0.6126 -0.4276
11858TIP3    H256990   6.146   5.882  12.344 -0.0590  1.2661  0.4915
11859TIP3   OH256991   5.268   0.716   4.020 -0.4012 -0.2186  0.3344
11859TIP3    H156992   5.360   0.698   4.038 -0.1180  1.3699  0.5690
11859TIP3    H256993   5.225   0.631   4.025  1.2663 -1.1741 -1.1458
11860TIP3   OH256994   1.506   4.332  16.232  0.2891 -0.0132  0.2772
11860TIP3    H156995   1.428   4.387  16.241  0.5753  0.2021  1.5722
11860TIP3    H256996   1.541   4.327  16.321  2.6062  1.1521 -0.5347
11861TIP3   OH256997   6.041   2.564   2.005 -0.4167  0.3604 -0.0806
11861TIP3    H156998   6.104   2.622   2.048 -1.5944  1.3091  0.3919
11861TIP3    H256999   6.082   2.540   1.922  1.7878 -1.2655  1.4145
11862TIP3   OH257000   4.507   2.335  13.154  0.1122  0.2010 -0.6322
11862TIP3    H157001   4.566   2.264  13.177  0.5164 -0.0106 -2.3145
11862TIP3    H257002   4.565   2.409  13.134 -0.1913  0.0535 -2.0795
11863TIP3   OH257003   0.030   1.493  14.344 -0.4593 -0.0348 -0.1100
11863TIP3    H157004   0.006   1.428  14.410  2.4704 -0.9910  0.0887
11863TIP3    H257005   0.052   1.441  14.266  2.2946  0.6687  0.1711
11864TIP3   OH257006   0.902   1.428   4.659 -0.3296 -0.2160  0.5457
11864TIP3    H157007   0.931   1.518   4.644  1.6547 -0.7987  0.7051
11864TIP3    H257008   0.968   1.374   4.616 -1.3576 -1.6061  0.6715
11865TIP3   OH257009   3.061   3.604  10.997 -0.0873  0.3445  0.1959
11865TIP3    H157010   3.018   3.573  10.917 -0.9652  0.7342  0.5147
11865TIP3    H257011   3.155   3.593  10.980 -0.3332 -1.0718 -0.2736
11866TIP3   OH257012   4.268   6.700   2.897  0.3396 -0.8164  0.1983
11866TIP3    H157013   4.336   6.735   2.955 -0.0108 -1.1432  0.8135
11866TIP3    H257014   4.198   6.671   2.957 -0.1497 -0.8886 -0.4016
11867TIP3   OH257015   5.581   3.550   4.371  0.5244  0.5246 -0.1306
11867TIP3    H157016   5.548   3.636   4.395  0.0690  0.0937  0.8391
11867TIP3    H257017   5.643   3.528   4.440  0.3388 -0.0883 -0.1510
11868TIP3   OH257018   2.425   0.346  11.784 -0.3843 -0.5061  0.0686
11868TIP3    H157019   2.408   0.382  11.697 -0.8187 -0.9855 -0.0430
11868TIP3    H257020   2.459   0.258  11.767  0.0181 -0.4112  0.3696
11869TIP3   OH257021   3.207   1.925   3.497 -0.2114  0.2786  0.2618
11869TIP3    H157022   3.295   1.890   3.514  0.3966  2.2740  1.4697
11869TIP3    H257023   3.224   2.011   3.458 -1.6427  0.5236  0.1740
11870TIP3   OH257024   5.970   1.900   3.758  0.2501  0.3401  0.4398
11870TIP3    H157025   5.881   1.935   3.764  0.2640  0.3622  0.5236
11870TIP3    H257026   5.993   1.907   3.665  0.1900  0.3976  0.4294
11871TIP3   OH257027   3.396   6.039  15.947 -0.0059  0.7905 -0.5137
11871TIP3    H157028   3.433   5.986  16.018 -0.8164  1.1429  0.1861
11871TIP3    H257029   3.405   5.985  15.869 -0.5075 -0.2308  0.1290
11872TIP3   OH257030   0.181   2.586  12.044 -0.5703  0.1486 -0.2218
11872TIP3    H157031   0.236   2.508  12.053  1.2777  1.5130  0.7205
11872TIP3    H257032   0.184   2.607  11.951  1.1821  0.6531 -0.0775
11873TIP3   OH257033   4.919   1.769   0.407 -0.0105 -0.1740 -0.2012
11873TIP3    H157034   4.932   1.675   0.393 -1.1429 -0.3521 -0.0972
11873TIP3    H257035   4.892   1.802   0.321 -0.6298 -0.1341  0.0047
11874TIP3   OH257036   4.468   3.752   4.500 -0.3489  0.4407 -1.0526
11874TIP3    H157037   4.480   3.734   4.407  2.0917  0.0165 -0.6696
11874TIP3    H257038   4.538   3.813   4.522 -0.7126  0.2850  0.5974
11875TIP3   OH257039   5.135   1.362  14.368 -0.1274 -0.0550 -0.5128
11875TIP3    H157040   5.183   1.281  14.351 -0.2533 -0.8004  2.4314
11875TIP3    H257041   5.043   1.336  14.366 -0.1918  0.1408 -0.1668
11876TIP3   OH257042   5.000   5.217  13.788 -0.1729  0.8362  0.1408
11876TIP3    H157043   5.095   5.210  13.780 -0.1357 -1.3755  2.0576
11876TIP3    H257044   4.974   5.274  13.715  2.5668  1.2288 -0.5833
11877TIP3   OH257045   6.165   0.113   1.471  0.0930  0.0924 -0.5769
11877TIP3    H157046   6.186   0.131   1.563  1.1474 -0.4511 -0.7123
11877TIP3    H257047   6.121   0.193   1.441 -1.0545 -0.0590  0.6447
11878TIP3   OH257048   0.791   3.456   3.227 -0.0430 -0.1714  0.3294
11878TIP3    H157049   0.752   3.543   3.225  1.5304  0.5847  1.3080
11878TIP3    H257050   0.717   3.396   3.225 -1.1727  1.2000  0.5564
11879TIP3   OH257051   2.839   2.453  12.415 -0.1125  0.2580 -0.1419
11879TIP3    H157052   2.781   2.455  12.340 -1.0285 -0.3811  0.5371
11879TIP3    H257053   2.882   2.367  12.411 -0.2377  0.1820  0.1164
11880TIP3   OH257054   1.652   6.176   4.882 -0.4239  0.5691 -0.5293
11880TIP3    H157055   1.716   6.247   4.871  0.1319  0.0185 -0.8776
11880TIP3    H257056   1.656   6.155   4.975 -0.8431  1.2258 -0.3583
11881TIP3   OH257057   0.377   4.547   2.239  0.3172  0.0652 -0.3059
11881TIP3    H157058   0.336   4.461   2.233 -0.4838  0.4994 -1.1890
11881TIP3    H257059   0.304   4.606   2.259  0.9186  0.4890  0.6435
11882TIP3   OH257060   4.706   6.561  14.941 -0.2472  0.1698 -0.5187
11882TIP3    H157061   4.657   6.547  14.859 -1.0121  1.9934 -0.3952
11882TIP3    H257062   4.795   6.581  14.912  0.3234 -2.4799 -0.7664
11883TIP3   OH257063   4.646   2.336   5.357 -0.4016  0.2786  0.1211
11883TIP3    H157064   4.658   2.242   5.371 -2.6188  0.2375  1.9358
11883TIP3    H257065   4.564   2.343   5.308 -0.0808  1.2592 -0.2986
11884TIP3   OH257066   4.713   2.530  12.132  0.2517  0.2622  0.8081
11884TIP3    H157067   4.750   2.444  12.111 -0.9876 -0.2956  0.8579
11884TIP3    H257068   4.635   2.510  12.184 -2.4880  1.1946 -2.7598
11885TIP3   OH257069   0.551   1.411  16.852 -0.3295  1.1111  0.2119
11885TIP3    H157070   0.617   1.429  16.786 -0.5771 -0.9320 -0.6187
11885TIP3    H257071   0.475   1.461  16.825 -0.7529 -0.4817 -1.6129
11886TIP3   OH257072   1.548   4.314  12.488 -0.0093 -0.2030  0.1996
11886TIP3    H157073   1.520   4.339  12.400  0.3308  0.0005  0.1501
11886TIP3    H257074   1.470   4.275  12.527  0.6784 -3.2525 -1.3083
11887TIP3   OH257075   4.120   0.177  11.624  0.3614  0.4431 -0.2861
11887TIP3    H157076   4.064   0.221  11.687 -0.1673 -1.5378  0.6761
11887TIP3    H257077   4.071   0.179  11.542 -0.5315 -0.0864  0.2319
11888TIP3   OH257078   5.827   6.674  10.383  0.0400 -0.9160  0.4039
11888TIP3    H157079   5.883   6.603  10.415 -0.2416 -0.5582  1.7267
11888TIP3    H257080   5.864   6.753  10.422 -1.9024 -0.7805  2.0411
11889TIP3   OH257081   4.385   2.037  16.711 -0.2662  0.6053 -0.2979
11889TIP3    H157082   4.300   2.039  16.668 -1.2413  1.0811  1.6092
11889TIP3    H257083   4.427   2.119  16.685 -0.5000  0.5062 -0.9955
11890TIP3   OH257084   6.225   5.487  12.697 -0.4541  0.0082 -0.5741
11890TIP3    H157085   6.165   5.429  12.743 -1.2808  1.6124  0.4339
11890TIP3    H257086   6.244   5.557  12.760  1.8341 -0.0300 -1.1646
11891TIP3   OH257087   5.280   0.777  15.248  0.2550  0.5379  0.4931
11891TIP3    H157088   5.211   0.712  15.262  0.4822  0.3988  0.9727
11891TIP3    H257089   5.244   0.859  15.281 -0.3994  0.8632 -0.9940
11892TIP3   OH257090   6.203   4.371   4.448  0.9355  0.0064  0.3074
11892TIP3    H157091   6.140   4.363   4.520 -1.2183 -1.8609 -1.6683
11892TIP3    H257092   6.272   4.309   4.470 -0.3927 -1.5831  0.1883
11893TIP3   OH257093   3.430   2.576   2.486  0.0893 -0.4152  0.1592
11893TIP3    H157094   3.379   2.634   2.429 -1.8227 -1.1498  1.0819
11893TIP3    H257095   3.455   2.631   2.560 -1.4890 -0.6605  0.8986
11894TIP3   OH257096   5.671   5.965   1.577 -0.2717 -0.3890  0.0279
11894TIP3    H157097   5.673   5.892   1.638 -1.0775  0.1096  0.6733
11894TIP3    H257098   5.621   5.932   1.502  0.9440 -1.0871 -0.4849
11895TIP3   OH257099   0.465   1.936  13.307  0.1217  0.0554  0.4633
11895TIP3    H157100   0.536   1.988  13.346 -1.0660  2.4277 -0.4663
11895TIP3    H257101   0.416   1.903  13.383  1.2182 -0.2112  1.0773
11896TIP3   OH257102   6.520   2.962  13.776 -0.6123 -0.0932  0.1245
11896TIP3    H157103   6.547   2.908  13.702 -1.8693  0.2511 -0.5974
11896TIP3    H257104   6.513   2.900  13.849  0.4487 -0.4645 -0.0805
11897TIP3   OH257105   1.682   5.476  16.574 -0.3026 -0.3467  0.0912
11897TIP3    H157106   1.639   5.552  16.535 -0.2549  0.6412  1.8833
11897TIP3    H257107   1.775   5.487  16.553 -0.1214  0.7896  1.4193
11898TIP3   OH257108   0.198   2.638   4.688 -0.5050 -0.0890 -0.0774
11898TIP3    H157109   0.244   2.562   4.653  1.4483  0.9374  0.2039
11898TIP3    H257110   0.137   2.602   4.752 -0.1122 -1.4685 -0.4727
11899TIP3   OH257111   4.754   4.120   1.106  0.7450  0.1122 -0.2303
11899TIP3    H157112   4.702   4.146   1.182  1.1220 -3.0904  1.1902
11899TIP3    H257113   4.710   4.162   1.032 -1.8576  0.2588  1.3192
11900TIP3   OH257114   0.518   5.113   3.986 -0.2504  0.2869 -0.7454
11900TIP3    H157115   0.573   5.043   4.018 -1.7303 -1.4761 -1.9450
11900TIP3    H257116   0.466   5.140   4.062  0.7128  0.4825 -0.1506
11901TIP3   OH257117   3.077   0.719  16.568  0.2351  0.0929 -0.4154
11901TIP3    H157118   3.039   0.773  16.638  0.0050  0.1543 -0.5851
11901TIP3    H257119   3.054   0.629  16.592  1.4534 -0.0182  0.3807
11902TIP3   OH257120   5.018   1.773  10.969  0.6528  0.2586  0.2682
11902TIP3    H157121   5.015   1.678  10.970  0.5756  0.1881 -2.3950
11902TIP3    H257122   4.932   1.800  10.937  1.5283  1.0872 -1.5038
11903TIP3   OH257123   1.845   5.161   2.345  0.0168  0.3453 -0.3934
11903TIP3    H157124   1.838   5.078   2.392 -2.5916  0.0613 -1.2407
11903TIP3    H257125   1.922   5.150   2.289  0.6637 -0.8595  0.6859
11904TIP3   OH257126   5.516   6.386  16.901  0.0232  0.6500 -0.1476
11904TIP3    H157127   5.543   6.316  16.960 -1.5068  0.4143  0.2978
11904TIP3    H257128   5.486   6.456  16.959  2.3802  2.0751 -0.5613
11905TIP3   OH257129   5.989   2.936   2.086 -0.3305  0.7455 -0.2434
11905TIP3    H157130   6.041   3.010   2.056  0.4819  0.0827 -0.4800
11905TIP3    H257131   5.906   2.975   2.114  0.1118  1.7446 -0.3089
11906TIP3   OH257132   6.005   4.158   0.858  0.3954 -0.1459 -0.6803
11906TIP3    H157133   6.036   4.245   0.832 -0.2828  1.0153  2.2145
11906TIP3    H257134   5.909   4.164   0.853  0.4024 -1.4334 -2.6000
11907TIP3   OH257135   3.937   2.169   2.747  0.1918 -0.2069 -0.2129
11907TIP3    H157136   3.985   2.097   2.707 -0.6597 -0.5161 -0.6964
11907TIP3    H257137   3.869   2.191   2.683 -0.4481  0.0711  0.5547
11908TIP3   OH257138   5.060   3.061   2.053 -0.2606  0.1097  0.6747
11908TIP3    H157139   5.132   3.091   1.998 -1.6027  0.8368 -0.7463
11908TIP3    H257140   4.992   3.037   1.990 -0.8426 -1.6246  1.9564
11909TIP3   OH257141   0.170   0.926   2.013  0.0713  0.2123 -0.1045
11909TIP3    H157142   0.089   0.887   2.047  0.0468 -0.5567 -1.0199
11909TIP3    H257143   0.240   0.878   2.056  0.0675  1.4914  1.3896
11910TIP3   OH257144   4.674   2.007   2.474 -0.0789  0.6825  0.1658
11910TIP3    H157145   4.715   1.959   2.545 -0.6097  0.7125  0.4951
11910TIP3    H257146   4.585   1.971   2.469  0.2626  0.0026 -1.1093
11911TIP3   OH257147   5.655   6.269  15.084  0.2194  0.3557  0.9118
11911TIP3    H157148   5.677   6.242  15.173  0.9664  2.3073  1.3452
11911TIP3    H257149   5.733   6.316  15.054  1.3045 -3.0463 -1.9801
11912TIP3   OH257150   4.663   6.241  11.675  0.0402  0.3416  0.4760
11912TIP3    H157151   4.631   6.271  11.590  1.2616 -0.3809 -0.2472
11912TIP3    H257152   4.708   6.317  11.712 -1.0591  0.8528  0.7645
11913TIP3   OH257153   4.386   5.985  17.004  0.6213  0.0392 -0.4541
11913TIP3    H157154   4.429   5.921  16.948  0.1257 -1.3950  0.7414
11913TIP3    H257155   4.456   6.022  17.057  0.7886 -0.2254 -0.4896
11914TIP3   OH257156   5.394   3.725  14.270  0.3804  0.2681 -0.5492
11914TIP3    H157157   5.382   3.816  14.297 -1.3698  0.5321 -2.1896
11914TIP3    H257158   5.307   3.696  14.244  1.1833 -1.4554 -1.3637
11915TIP3   OH257159   2.072   3.811   1.854 -0.1106  0.1618  0.1979
11915TIP3    H157160   2.088   3.745   1.922 -1.9902  1.3879  1.8977
11915TIP3    H257161   2.131   3.788   1.783 -0.6571 -3.3066  0.7958
11916TIP3   OH257162   1.979   2.490   2.274  0.2860  0.1463 -0.3139
11916TIP3    H157163   1.911   2.444   2.225 -0.4346  2.1467 -1.2597
11916TIP3    H257164   1.942   2.503   2.361  0.0296 -0.0218 -0.3968
11917TIP3   OH257165   1.001   5.078  11.824  0.3654  0.1310 -0.5161
11917TIP3    H157166   1.049   5.099  11.903 -0.1324  1.9429 -0.6793
11917TIP3    H257167   1.057   5.015  11.777  1.7362  0.8715  0.1283
11918TIP3   OH257168   1.727   2.663  11.686  0.1016  0.1336  0.0696
11918TIP3    H157169   1.795   2.597  11.672  0.6556  1.1196 -2.2752
11918TIP3    H257170   1.758   2.715  11.759  0.0387 -1.7004  1.4340
11919TIP3   OH257171   3.071   3.262   4.587  0.5568 -0.6572  0.2527
11919TIP3    H157172   2.996   3.204   4.603  0.8833 -0.9716  0.6341
11919TIP3    H257173   3.098   3.241   4.497 -2.2814  2.2391 -1.3788
11920TIP3   OH257174   1.711   4.982  13.904 -0.3093 -0.6031  0.1693
11920TIP3    H157175   1.773   4.915  13.931 -0.7385 -0.3694  1.8386
11920TIP3    H257176   1.713   4.981  13.808  2.3520 -0.5087  0.1912
11921TIP3   OH257177   3.521   2.296  12.728  0.6095 -0.2484  0.2459
11921TIP3    H157178   3.450   2.284  12.791 -0.8871 -1.0015 -1.5518
11921TIP3    H257179   3.569   2.372  12.760 -2.6183  1.9467  0.0299
11922TIP3   OH257180   5.383   5.538  14.626 -0.3784 -0.1121 -0.7985
11922TIP3    H157181   5.413   5.454  14.590  0.7090 -0.3667  0.6649
11922TIP3    H257182   5.294   5.520  14.656  0.2955 -1.1082  0.6656
11923TIP3   OH257183   1.623   1.336  11.379 -0.3555  0.3609 -0.3918
11923TIP3    H157184   1.600   1.429  11.378 -0.7611  0.2571 -1.0913
11923TIP3    H257185   1.636   1.313  11.287  2.3327  0.3545 -0.0366
11924TIP3   OH257186   4.651   2.115   3.700 -0.0070 -0.1456  0.2981
11924TIP3    H157187   4.626   2.205   3.720 -2.8003 -0.6051 -0.8161
11924TIP3    H257188   4.574   2.078   3.656  2.3613 -2.0385 -2.4447
11925TIP3   OH257189   0.404   5.370  16.314 -0.1046 -0.0659 -0.3006
11925TIP3    H157190   0.408   5.282  16.278 -1.9222 -0.6241  0.7591
11925TIP3    H257191   0.404   5.427  16.237  3.3814 -0.8314 -0.9425
11926TIP3   OH257192   0.829   2.439  16.199 -0.1415 -0.3248  0.4911
11926TIP3    H157193   0.795   2.435  16.110 -1.2012 -1.4772  0.9225
11926TIP3    H257194   0.855   2.530  16.212  0.3422 -0.2358 -1.1083
11927TIP3   OH257195   4.413   5.038  11.600  0.8380 -0.0380  0.5169
11927TIP3    H157196   4.487   5.099  11.594 -0.9345  2.1412  0.2182
11927TIP3    H257197   4.365   5.067  11.678 -1.3598  0.5350 -0.9926
11928TIP3   OH257198   1.495   4.920   6.140  0.1492  0.1781  0.1083
11928TIP3    H157199   1.574   4.889   6.185  0.7117 -1.5284 -2.0274
11928TIP3    H257200   1.423   4.883   6.191  0.7652 -1.1615  0.0204
11929TIP3   OH257201   0.444   6.148  15.417  0.1805  0.0362 -0.0028
11929TIP3    H157202   0.441   6.240  15.392 -2.4575  0.3385  1.2825
11929TIP3    H257203   0.419   6.101  15.337  1.5803  0.4087 -0.6762
11930TIP3   OH257204   2.494   5.844   2.436 -0.7486  0.2912  0.0518
11930TIP3    H157205   2.506   5.800   2.520 -0.4007 -0.5519 -0.4253
11930TIP3    H257206   2.408   5.814   2.405 -0.4513 -0.1673 -0.3382
11931TIP3   OH257207   4.110   3.171  15.838 -0.3274 -0.1605  0.0684
11931TIP3    H157208   4.080   3.232  15.906  0.0127 -0.6379  0.6527
11931TIP3    H257209   4.057   3.093  15.851 -0.3436 -0.2068 -0.2922
11932TIP3   OH257210   5.335   5.880   2.902  0.1657 -1.0005  1.1777
11932TIP3    H157211   5.424   5.880   2.938  0.7875  0.3139 -0.2925
11932TIP3    H257212   5.278   5.891   2.978  1.3605  0.0235  1.9331
11933TIP3   OH257213   3.231   6.729   5.818 -0.0284 -0.3844  0.2591
11933TIP3    H157214   3.310   6.679   5.800  1.2277  1.3235  0.8527
11933TIP3    H257215   3.221   6.728   5.913 -1.2447 -1.3548  0.1330
11934TIP3   OH257216   4.827   3.891   1.832 -0.0198  0.1102 -0.3850
11934TIP3    H157217   4.784   3.877   1.748  0.0997  0.7126 -0.5487
11934TIP3    H257218   4.758   3.878   1.897  0.0315 -0.9874 -0.5395
11935TIP3   OH257219   0.522   0.594  11.690 -0.4714  0.0103  0.7991
11935TIP3    H157220   0.462   0.523  11.714 -0.8922 -0.0028 -0.2424
11935TIP3    H257221   0.602   0.549  11.664 -0.1540  0.0048  1.7968
11936TIP3   OH257222   5.977   6.555  14.298  0.1276 -0.0810 -0.1835
11936TIP3    H157223   6.067   6.582  14.282  0.4763 -1.2779 -0.2522
11936TIP3    H257224   5.940   6.626  14.351  1.6129 -0.4105  1.3487
11937TIP3   OH257225   5.701   1.797   6.465  0.2204 -0.0930 -0.1024
11937TIP3    H157226   5.687   1.702   6.461  0.7044 -0.0941 -2.4314
11937TIP3    H257227   5.796   1.807   6.463  0.1435  0.4700 -1.3068
11938TIP3   OH257228   6.011   3.633   0.281  0.2390 -0.2656 -0.1433
11938TIP3    H157229   6.070   3.571   0.238 -0.4348  0.0249 -1.5152
11938TIP3    H257230   6.045   3.719   0.257 -0.1806 -0.0999 -0.1526
11939TIP3   OH257231   1.719   0.983  13.005  0.3056  0.0944 -0.1203
11939TIP3    H157232   1.637   0.947  13.040  0.1581 -0.9979 -1.5722
11939TIP3    H257233   1.737   0.932  12.927  2.3993  0.3167  0.1783
11940TIP3   OH257234   3.767   5.854   6.311  0.1702  0.4480  0.3351
11940TIP3    H157235   3.843   5.911   6.320 -0.7644  1.6420  0.7886
11940TIP3    H257236   3.738   5.838   6.401 -0.2453  0.1813  0.1538
11941TIP3   OH257237   3.793   1.172   3.602  0.1622 -0.5125 -0.3562
11941TIP3    H157238   3.729   1.179   3.531  1.6712  0.2629 -1.6737
11941TIP3    H257239   3.873   1.142   3.559  1.0668 -0.1183  1.0320
11942TIP3   OH257240   0.120   1.878  12.821 -0.5567 -0.2707  0.3450
11942TIP3    H157241   0.180   1.936  12.868 -1.4700  0.0585  1.1029
11942TIP3    H257242   0.177   1.830  12.760  0.5356 -0.2177  1.3084
11943TIP3   OH257243   5.093   3.046   3.405 -0.2755  0.5711 -0.3658
11943TIP3    H157244   5.158   2.995   3.454 -1.4747  1.3013  2.0471
11943TIP3    H257245   5.117   3.032   3.313  3.2958  0.8553  0.4488
11944TIP3   OH257246   6.486   6.550   1.666 -0.0882 -0.3571 -0.0840
11944TIP3    H157247   6.519   6.541   1.755  0.7122 -1.4767 -0.4900
11944TIP3    H257248   6.496   6.644   1.647  0.5744 -0.2648  0.6799
11945TIP3   OH257249   2.021   6.083  11.465  0.8435  0.6259  0.2600
11945TIP3    H157250   2.071   6.141  11.407  1.1724  1.1928  1.1138
11945TIP3    H257251   1.983   6.018  11.405  2.6135  0.1701 -0.4120
11946TIP3   OH257252   4.496   6.675   6.498  0.2509 -0.2582  0.2413
11946TIP3    H157253   4.422   6.678   6.559 -0.5685 -1.6363 -0.6669
11946TIP3    H257254   4.462   6.629   6.422  1.8471 -0.2665 -0.4692
11947TIP3   OH257255   2.871   1.897   3.661 -0.1623  0.4001 -0.0599
11947TIP3    H157256   2.959   1.903   3.698 -1.1462  2.1828  2.1761
11947TIP3    H257257   2.824   1.838   3.720 -0.6362 -0.0908 -0.9148
11948TIP3   OH257258   5.442   3.668  11.369 -0.2866 -0.9121 -0.1164
11948TIP3    H157259   5.509   3.709  11.314 -0.0497 -2.8808 -1.3615
11948TIP3    H257260   5.492   3.621  11.435 -0.5176 -0.4622  0.3820
11949TIP3   OH257261   4.737   4.575  14.431 -0.9805  0.9231 -0.3831
11949TIP3    H157262   4.782   4.631  14.495  1.5823  0.4071 -1.6552
11949TIP3    H257263   4.745   4.624  14.348  1.1418 -1.1673 -1.4767
11950TIP3   OH257264   3.001   5.589   1.885  0.2280 -0.2046 -0.0685
11950TIP3    H157265   3.008   5.512   1.830  0.7948  0.3512 -0.7968
11950TIP3    H257266   3.085   5.635   1.872  0.0661  0.3127  0.6729
11951TIP3   OH257267   4.314   5.614   2.224  0.1566 -0.4846 -0.1149
11951TIP3    H157268   4.298   5.603   2.318 -1.4949 -0.5782 -0.4000
11951TIP3    H257269   4.281   5.702   2.204  0.7700 -0.3499 -0.5642
11952TIP3   OH257270   2.095   3.984   3.710  0.1286 -0.1093  0.4500
11952TIP3    H157271   2.106   3.968   3.616 -1.0538 -1.9945  0.5987
11952TIP3    H257272   2.013   3.940   3.732  1.6366 -1.8931  2.8484
11953TIP3   OH257273   3.948   4.666  10.421 -0.4449 -0.1836  0.3401
11953TIP3    H157274   3.909   4.579  10.417 -0.6349 -0.1164  0.7398
11953TIP3    H257275   3.974   4.685  10.331  1.7436 -1.6380  0.6434
11954TIP3   OH257276   5.568   1.730   3.207  0.3361 -0.1842  0.1426
11954TIP3    H157277   5.650   1.699   3.167 -0.1709  0.8992 -1.7938
11954TIP3    H257278   5.593   1.812   3.250  0.1327  0.5411 -1.0958
11955TIP3   OH257279   6.292   6.709   0.711  0.4300 -0.7392 -0.1947
11955TIP3    H157280   6.315   6.687   0.801  3.1583 -2.7251 -1.3156
11955TIP3    H257281   6.344   6.786   0.691 -2.1775  1.3620  0.7031
11956TIP3   OH257282   6.476   5.902   1.600  0.4188 -0.2605  0.1332
11956TIP3    H157283   6.554   5.864   1.560 -0.0358  1.2407 -2.2717
11956TIP3    H257284   6.508   5.980   1.645  0.3667  0.1816 -0.5888
11957TIP3   OH257285   1.314   6.609   5.173 -0.2042  0.3288 -0.0074
11957TIP3    H157286   1.256   6.677   5.140  0.1329  0.5843 -0.0803
11957TIP3    H257287   1.362   6.651   5.245  0.5596  0.4093 -0.5559
11958TIP3   OH257288   6.230   1.196  12.817 -0.0414 -0.2323 -0.0303
11958TIP3    H157289   6.245   1.186  12.723  1.2647 -1.1743  0.2641
11958TIP3    H257290   6.176   1.120  12.841 -1.8140  0.9077 -0.3098
11959TIP3   OH257291   0.918   1.273   2.545 -0.8289 -0.2376  0.0105
11959TIP3    H157292   0.979   1.306   2.610  1.4462 -1.8445 -1.2476
11959TIP3    H257293   0.866   1.349   2.519 -1.8530  0.4075  3.7170
11960TIP3   OH257294   4.665   4.351   0.517 -0.2048  0.2089  0.0587
11960TIP3    H157295   4.724   4.283   0.484 -0.6623 -0.6434  0.9890
11960TIP3    H257296   4.703   4.377   0.601  0.0744  1.2485 -0.3781
11961TIP3   OH257297   3.148   4.144  16.507  0.0849 -0.1618 -0.3588
11961TIP3    H157298   3.207   4.103  16.444 -0.5373  0.2648 -1.2349
11961TIP3    H257299   3.113   4.220  16.461 -0.1964  0.2915  0.5898
11962TIP3   OH257300   4.824   4.292   6.250 -0.3135  0.1273 -0.4133
11962TIP3    H157301   4.881   4.344   6.194  0.9600 -2.1448 -1.2863
11962TIP3    H257302   4.881   4.263   6.322 -0.7595 -0.8342 -0.4371
11963TIP3   OH257303   4.984   0.980   0.858 -0.1615 -0.0601 -0.4162
11963TIP3    H157304   5.024   0.894   0.842  2.3701  0.6528  1.6659
11963TIP3    H257305   4.893   0.961   0.877  0.3858 -2.3223  0.1078
11964TIP3   OH257306   4.697   3.225  14.284 -0.0412  0.2594 -0.3571
11964TIP3    H157307   4.709   3.132  14.271 -0.1002  0.4341 -1.6530
11964TIP3    H257308   4.652   3.256  14.205 -1.9830  1.0025  0.9855
11965TIP3   OH257309   6.557   3.298   5.741  0.2342  0.2053  0.0427
11965TIP3    H157310   6.462   3.309   5.746  0.2301  0.3876 -0.4007
11965TIP3    H257311   6.588   3.377   5.696  0.3392 -0.9833 -2.0280
11966TIP3   OH257312   5.824   6.543  13.975 -0.1770 -0.4873  0.7034
11966TIP3    H157313   5.874   6.613  14.017  0.6471 -0.2975 -0.5668
11966TIP3    H257314   5.817   6.570  13.884  2.2378 -3.1524 -0.3624
11967TIP3   OH257315   0.554   0.183  15.409 -0.5160 -0.6186  0.1872
11967TIP3    H157316   0.490   0.254  15.418  0.4953  0.3874 -0.3945
11967TIP3    H257317   0.540   0.150  15.321  1.0668  0.9384 -0.6978
11968TIP3   OH257318   3.633   1.482  16.395  0.1660  0.3388 -0.5019
11968TIP3    H157319   3.726   1.475  16.373  0.0930  0.7806 -0.9651
11968TIP3    H257320   3.624   1.433  16.476  0.2780 -2.0473 -1.8990
11969TIP3   OH257321   4.339   4.521  16.504  0.0069  0.7540 -0.0054
11969TIP3    H157322   4.315   4.564  16.422  0.7381  0.2015 -0.5197
11969TIP3    H257323   4.385   4.441  16.476 -0.7415 -0.0140  0.9285
11970TIP3   OH257324   1.755   4.115  12.525 -0.1879  0.1174  0.0123
11970TIP3    H157325   1.723   4.204  12.516  0.8210  0.5592  0.6472
11970TIP3    H257326   1.849   4.125  12.543 -0.6078 -0.9399  3.1325
11971TIP3   OH257327   4.691   1.944  10.221  0.7553 -0.3844  0.3013
11971TIP3    H157328   4.664   1.923  10.311  4.1923  1.5919  1.8743
11971TIP3    H257329   4.666   2.035  10.210 -0.9897 -1.0250 -1.3518
11972TIP3   OH257330   1.490   5.883   2.542  0.9063 -0.3218  0.2281
11972TIP3    H157331   1.401   5.855   2.563  1.5201 -1.5419  1.2659
11972TIP3    H257332   1.496   5.877   2.447 -0.9934  2.4746 -0.1398
11973TIP3   OH257333   2.501   5.788  16.128 -0.1587  0.5559 -0.4116
11973TIP3    H157334   2.521   5.777  16.221  1.4851 -1.5790 -0.9905
11973TIP3    H257335   2.583   5.817  16.089 -0.2744 -0.5881 -1.5380
11974TIP3   OH257336   6.323   3.597   0.799  0.2853  0.3656  0.3200
11974TIP3    H157337   6.347   3.662   0.866  3.6209  2.2545 -2.5600
11974TIP3    H257338   6.229   3.609   0.788 -0.0706  1.0679  3.5668
11975TIP3   OH257339   2.412   2.791   5.391  0.1513 -0.1620  0.1727
11975TIP3    H157340   2.382   2.881   5.382 -1.6757 -0.8175 -0.5483
11975TIP3    H257341   2.506   2.798   5.407  0.0935  1.8403 -0.3123
11976TIP3   OH257342   5.540   1.337   2.777 -0.4316  0.7414  0.1437
11976TIP3    H157343   5.603   1.278   2.736  0.6399  1.3674  0.8595
11976TIP3    H257344   5.475   1.280   2.816 -0.8252  0.1030 -1.4048
11977TIP3   OH257345   1.632   6.504   0.462 -0.2126 -0.0237  0.1149
11977TIP3    H157346   1.727   6.516   0.471 -0.2207  0.7833 -0.7792
11977TIP3    H257347   1.623   6.422   0.414  0.0341 -0.2425  0.4452
11978TIP3   OH257348   2.108   5.104   3.783 -0.1807 -0.2744 -0.5052
11978TIP3    H157349   2.085   5.140   3.698 -0.7601  0.1050 -0.1848
11978TIP3    H257350   2.053   5.026   3.792  1.4679 -1.5944 -1.4428
11979TIP3   OH257351   6.152   5.163   6.243 -0.1399 -0.1698 -0.0392
11979TIP3    H157352   6.241   5.174   6.277 -0.1381  0.5628 -0.2738
11979TIP3    H257353   6.156   5.083   6.191  0.3751 -0.1508 -0.0271
11980TIP3   OH257354   4.713   6.280  13.203  0.5132  0.4800  0.1207
11980TIP3    H157355   4.799   6.254  13.171  1.8338  1.5056  2.6966
11980TIP3    H257356   4.663   6.300  13.123  1.9923 -2.0336 -1.4880
11981TIP3   OH257357   3.639   6.113   1.415  0.5472  0.0230  0.2466
11981TIP3    H157358   3.650   6.023   1.445 -0.2088 -0.6485 -1.4368
11981TIP3    H257359   3.551   6.138   1.446  0.5640  0.0164  0.2999
11982TIP3   OH257360   5.544   3.890   1.837 -0.8656 -0.1746 -0.2920
11982TIP3    H157361   5.531   3.981   1.863  0.4912  0.0999 -0.4990
11982TIP3    H257362   5.552   3.893   1.742  0.2822 -0.3489 -0.2109
11983TIP3   OH257363   3.288   4.886  12.413  0.1958  0.3133  0.2173
11983TIP3    H157364   3.326   4.827  12.348  0.4145 -0.2902  0.8851
11983TIP3    H257365   3.363   4.910  12.469  0.1642  1.4242 -0.1945
11984TIP3   OH257366   1.356   3.947   3.876  0.3099 -0.1920 -0.3660
11984TIP3    H157367   1.445   3.914   3.878  0.7796  0.8027 -2.7861
11984TIP3    H257368   1.365   4.042   3.868 -0.9584 -0.0243  0.0291
11985TIP3   OH257369   1.455   4.235   3.210  0.2460  0.2108  0.3020
11985TIP3    H157370   1.501   4.313   3.178  1.2965  0.1854  1.7273
11985TIP3    H257371   1.431   4.256   3.300 -0.0211 -0.8924  0.4958
11986TIP3   OH257372   5.918   3.370  10.917 -0.7073  0.4725 -0.1754
11986TIP3    H157373   5.843   3.326  10.957  0.2153 -2.3280 -1.3946
11986TIP3    H257374   5.897   3.376  10.824 -0.5559  2.1447 -0.1291
11987TIP3   OH257375   5.150   3.613   5.557 -0.3187  0.8087  0.1315
11987TIP3    H157376   5.182   3.523   5.566  0.7691  0.6884 -3.9332
11987TIP3    H257377   5.188   3.659   5.632 -1.0354 -2.0946  2.3941
11988TIP3   OH257378   3.605   0.634  12.959  0.0544 -0.0755  0.4022
11988TIP3    H157379   3.663   0.699  12.917 -0.4291 -1.4808 -2.5968
11988TIP3    H257380   3.662   0.561  12.980 -0.5434 -1.4156 -2.4532
11989TIP3   OH257381   1.433   6.468  11.517 -0.1697 -0.2564 -0.3043
11989TIP3    H157382   1.389   6.519  11.586 -1.5554 -0.4780 -1.0050
11989TIP3    H257383   1.379   6.390  11.507 -0.3085  0.0390 -2.0300
11990TIP3   OH257384   0.480   0.199  15.145 -0.6322 -0.3218 -0.2558
11990TIP3    H157385   0.395   0.208  15.101 -0.2715 -0.1576 -0.9343
11990TIP3    H257386   0.514   0.288  15.149  0.0844 -0.5423 -1.1746
11991TIP3   OH257387   4.416   0.980  11.203  0.2238 -0.6435  0.6826
11991TIP3    H157388   4.341   0.999  11.259 -0.4703 -1.4234  0.0277
11991TIP3    H257389   4.490   0.973  11.263 -0.5703 -1.8057  1.5438
11992TIP3   OH257390   4.588   3.901   0.591 -0.4202  0.3663  0.2300
11992TIP3    H157391   4.616   3.896   0.499 -0.1168 -0.5342  0.3609
11992TIP3    H257392   4.571   3.994   0.606 -1.3777  0.4014 -1.0052
11993TIP3   OH257393   6.314   3.164   0.881  0.1939  0.6308  0.3431
11993TIP3    H157394   6.286   3.106   0.952 -0.6076  1.1705  0.4764
11993TIP3    H257395   6.379   3.114   0.833 -1.9834 -1.2126 -0.7883
11994TIP3   OH257396   2.632   4.078  12.663  0.3978  0.2228  0.4120
11994TIP3    H157397   2.677   4.157  12.634 -0.0026  0.4000  0.2684
11994TIP3    H257398   2.688   4.006  12.634  0.4320  0.4307 -0.0312
11995TIP3   OH257399   5.785   2.606   3.443 -0.5388  0.3901 -0.1899
11995TIP3    H157400   5.848   2.589   3.513 -0.2365 -2.7151 -1.1521
11995TIP3    H257401   5.700   2.610   3.488 -0.2364 -0.5179  0.4806
11996TIP3   OH257402   3.006   4.158  15.608 -0.1248 -0.0215 -0.0395
11996TIP3    H157403   3.076   4.132  15.667 -0.8158 -2.6942 -0.3619
11996TIP3    H257404   2.927   4.117  15.644 -1.3918  2.1612 -0.2139
11997TIP3   OH257405   1.627   0.938   5.503  0.2589  0.4322  0.9146
11997TIP3    H157406   1.700   0.928   5.442 -1.9144  2.6369 -2.1768
11997TIP3    H257407   1.612   0.850   5.536  2.2735 -0.6055 -0.7987
11998TIP3   OH257408   3.921   1.111   5.418 -0.1082  0.0673  0.0830
11998TIP3    H157409   3.916   1.200   5.382 -0.5305  0.6705  1.6204
11998TIP3    H257410   4.015   1.092   5.420  0.0132  0.6487  0.1643
11999TIP3   OH257411   0.012   5.567   2.746 -0.0350  0.5533  0.4065
11999TIP3    H157412   0.092   5.618   2.748  0.2472  0.1635 -0.8929
11999TIP3    H257413   0.000   5.543   2.654 -1.3245  0.1191  0.6709
12000TIP3   OH257414   3.837   5.259   1.396 -0.2617  0.0571 -0.5998
12000TIP3    H157415   3.918   5.284   1.442  0.1954 -3.7449  0.7729
12000TIP3    H257416   3.866   5.235   1.308  0.4287 -3.2263  0.4916
12001TIP3   OH257417   2.032   6.103   2.633 -0.0661  0.1990 -0.1580
12001TIP3    H157418   1.954   6.056   2.602 -0.9412  1.6718 -0.2097
12001TIP3    H257419   2.103   6.069   2.578 -0.7796 -0.6965 -0.5416
12002TIP3   OH257420   5.271   1.146  14.303  0.0189 -0.6834  0.4372
12002TIP3    H157421   5.270   1.056  14.270 -0.5061 -0.6901  0.4731
12002TIP3    H257422   5.347   1.150  14.361  1.3647 -0.4930 -1.2781
12003TIP3   OH257423   3.492   4.803  15.044 -0.1697 -0.1334 -0.5295
12003TIP3    H157424   3.485   4.807  14.949  0.7092  2.0862 -0.5354
12003TIP3    H257425   3.587   4.803  15.061 -0.3211 -0.9777  0.3255
12004TIP3   OH257426   5.344   5.962   1.686 -0.0123 -0.6863 -0.3213
12004TIP3    H157427   5.325   5.902   1.613  0.5573 -1.0099 -0.2002
12004TIP3    H257428   5.257   5.988   1.718 -0.2511 -2.0072  0.0970
12005TIP3   OH257429   3.161   2.877   0.914 -0.1370 -0.4591  0.0723
12005TIP3    H157430   3.239   2.868   0.860 -0.2549  0.4394 -0.2582
12005TIP3    H257431   3.175   2.818   0.988  0.3452 -1.1585 -0.5654
12006TIP3   OH257432   4.692   5.027   5.398 -0.1074 -0.1385 -0.3526
12006TIP3    H157433   4.717   4.938   5.423  0.7119 -0.5462 -2.5399
12006TIP3    H257434   4.622   5.016   5.334  0.0187  0.7753 -0.6661
12007TIP3   OH257435   2.471   1.646   3.194 -0.1247 -0.6630 -0.2973
12007TIP3    H157436   2.432   1.620   3.277  0.2105  1.1455  0.4475
12007TIP3    H257437   2.542   1.705   3.219 -0.6426  0.6678 -1.9140
12008TIP3   OH257438   2.433   3.730   2.617 -1.0745  0.2798 -0.2574
12008TIP3    H157439   2.417   3.757   2.527 -0.7712  0.4794 -0.2543
12008TIP3    H257440   2.421   3.635   2.617  0.2834  0.0935 -0.8159
12009TIP3   OH257441   2.225   4.255   2.217  0.0316 -0.1367 -0.1139
12009TIP3    H157442   2.246   4.343   2.248  0.4330 -0.1538 -0.3340
12009TIP3    H257443   2.161   4.270   2.147 -0.3327 -0.0579  0.2320
12010TIP3   OH257444   6.192   3.605   3.115  0.4967  0.7741  0.4149
12010TIP3    H157445   6.166   3.524   3.159 -0.1665  0.2415 -0.9072
12010TIP3    H257446   6.281   3.587   3.083 -0.3183 -0.1238 -1.4388
12011TIP3   OH257447   1.800   0.987   5.108  0.4235  0.4727  0.1754
12011TIP3    H157448   1.755   0.903   5.104  0.6743  0.3982 -2.0788
12011TIP3    H257449   1.873   0.978   5.046  1.8404  1.5695  1.6285
12012TIP3   OH257450   2.174   5.631  16.406 -0.1258  0.0736  0.0946
12012TIP3    H157451   2.154   5.588  16.490  0.3563 -1.1585 -0.4127
12012TIP3    H257452   2.213   5.714  16.431 -0.6587  0.0317  1.1074
12013TIP3   OH257453   5.938   1.718  11.607  0.5575 -0.4926  0.0962
12013TIP3    H157454   5.867   1.685  11.662  1.3540 -1.6038  0.4850
12013TIP3    H257455   5.981   1.785  11.660 -0.1233  0.0885 -0.0896
12014TIP3   OH257456   1.198   2.487  16.070  0.0542 -0.1278  0.2950
12014TIP3    H157457   1.252   2.411  16.050  0.5809  0.5167 -0.7407
12014TIP3    H257458   1.115   2.449  16.101  0.4492 -1.1131  0.1717
12015TIP3   OH257459   0.910   6.366  14.093 -0.0396  0.6866 -0.3402
12015TIP3    H157460   0.977   6.298  14.095  0.7497  1.4892  0.6383
12015TIP3    H257461   0.954   6.443  14.058 -0.4204  1.2444  0.3982
12016TIP3   OH257462   2.523   2.292   2.747  0.1273  0.7684 -0.0631
12016TIP3    H157463   2.607   2.336   2.750  1.4118 -1.5417 -0.8825
12016TIP3    H257464   2.508   2.275   2.654 -0.6927  0.1677  0.1732
12017TIP3   OH257465   2.138   5.576  13.312  0.3099  0.3094 -0.4045
12017TIP3    H157466   2.164   5.497  13.359  3.3412  0.8109 -1.1591
12017TIP3    H257467   2.059   5.550  13.264 -0.3082 -1.4389  1.5131
12018TIP3   OH257468   6.309   6.132   5.847 -0.0743 -0.0362 -0.0581
12018TIP3    H157469   6.224   6.129   5.893  0.0021 -0.7081  0.0355
12018TIP3    H257470   6.286   6.132   5.754 -0.0917 -4.3520 -0.1437
12019TIP3   OH257471   4.572   0.036   1.198  0.2155 -0.1486 -0.0498
12019TIP3    H157472   4.660   0.030   1.236  1.4635  0.1892 -2.7571
12019TIP3    H257473   4.540  -0.054   1.195  0.7769 -0.3598  0.2772
12020TIP3   OH257474   5.950   0.987  17.134 -0.3961 -0.3065  0.1077
12020TIP3    H157475   5.869   1.027  17.165 -1.0605  0.3245 -2.3850
12020TIP3    H257476   5.924   0.936  17.057  1.1477 -2.1767  0.7706
12021TIP3   OH257477   6.344   0.851  11.421  0.4569 -0.4785  0.0081
12021TIP3    H157478   6.369   0.928  11.370  2.9136  0.7156  2.8812
12021TIP3    H257479   6.426   0.818  11.457 -0.9528 -2.5594  1.4137
12022TIP3   OH257480   1.906   2.765  13.049 -0.6994  0.2303 -0.5767
12022TIP3    H157481   1.929   2.803  12.964  1.0462  0.0670 -0.1963
12022TIP3    H257482   1.832   2.817  13.079 -0.5301  1.1072 -1.6323
12023TIP3   OH257483   2.783   1.605   3.342  0.0972 -0.2384  0.4888
12023TIP3    H157484   2.701   1.642   3.377 -1.4477 -2.3802 -0.7244
12023TIP3    H257485   2.788   1.640   3.253 -0.4309 -1.4696 -0.0371
12024TIP3   OH257486   4.763   5.850   4.471  0.4372 -0.0499 -0.1196
12024TIP3    H157487   4.743   5.889   4.386 -0.0254 -0.4715 -0.2067
12024TIP3    H257488   4.732   5.760   4.464  0.6958 -0.1796  0.3833
12025TIP3   OH257489   1.436   3.745  17.207 -0.0016 -0.3888  0.3123
12025TIP3    H157490   1.374   3.704  17.267 -1.7409 -1.8696 -2.3941
12025TIP3    H257491   1.404   3.835  17.197  1.9700  0.7943  3.7513
12026TIP3   OH257492   0.132   6.571  12.811  0.5653 -0.8052 -0.1478
12026TIP3    H157493   0.092   6.484  12.818  0.2814 -0.7897 -1.4137
12026TIP3    H257494   0.115   6.598  12.721  1.0692  0.3669  0.0952
12027TIP3   OH257495   2.893   1.576  11.660  0.1362 -0.1524 -0.5439
12027TIP3    H157496   2.810   1.610  11.695  0.2098 -0.6943  0.1562
12027TIP3    H257497   2.867   1.503  11.604  0.0629  0.3417 -1.1569
12028TIP3   OH257498   4.920   5.483   3.031  0.0528 -0.4615 -0.1677
12028TIP3    H157499   4.891   5.559   2.981  0.0791 -0.3114  0.0461
12028TIP3    H257500   4.988   5.444   2.977 -0.1237 -0.4686 -0.3880
12029TIP3   OH257501   4.123   4.103  13.726 -0.0393 -0.1401 -0.5222
12029TIP3    H157502   4.073   4.125  13.647 -0.5164 -0.5416 -0.3320
12029TIP3    H257503   4.058   4.102  13.796  0.2434 -0.5941 -0.2642
12030TIP3   OH257504   2.493   3.102  15.487  0.2504  0.2446 -0.0402
12030TIP3    H157505   2.435   3.099  15.563  0.8767 -1.7218  0.3909
12030TIP3    H257506   2.556   3.171  15.507 -1.2235  1.5877  0.0110
12031TIP3   OH257507   3.952   1.960  15.678  0.1944 -0.0964 -0.0202
12031TIP3    H157508   4.003   1.939  15.756  0.1331 -1.7662 -0.4090
12031TIP3    H257509   3.972   1.890  15.616 -1.2613  0.1361 -0.7968
12032TIP3   OH257510   4.155   0.026   0.501  0.2594 -0.3041 -0.0767
12032TIP3    H157511   4.108   0.080   0.564  1.4614 -0.6531  1.1417
12032TIP3    H257512   4.092  -0.042   0.475 -0.7520  0.7763 -0.4666
12033TIP3   OH257513   4.381   3.326  12.313 -0.3695 -0.5014  0.2122
12033TIP3    H157514   4.294   3.344  12.350  0.1359 -0.9613  1.6710
12033TIP3    H257515   4.383   3.231  12.302 -1.0821 -0.2367 -2.4992
12034TIP3   OH257516   4.038   3.838  11.723  0.0081 -0.3500 -0.2640
12034TIP3    H157517   4.092   3.831  11.801  0.6238  0.2026 -0.6357
12034TIP3    H257518   3.948   3.831  11.755  0.2752 -0.6277  0.4327
12035TIP3   OH257519   0.676   0.600   2.170 -0.3887  0.0702 -0.3120
12035TIP3    H157520   0.754   0.549   2.149  0.3712  0.6288  1.1486
12035TIP3    H257521   0.610   0.568   2.107  0.5817 -1.4236 -0.6121
12036TIP3   OH257522   0.605   0.170   0.417  0.8872 -0.6903  0.2367
12036TIP3    H157523   0.636   0.133   0.499  0.2561  1.0345  1.2742
12036TIP3    H257524   0.684   0.187   0.366  1.4030 -0.0966  1.2238
12037TIP3   OH257525   0.657   2.903  13.270 -0.0590  0.0422  0.6342
12037TIP3    H157526   0.611   2.979  13.306  0.2142  0.9654 -0.8970
12037TIP3    H257527   0.737   2.939  13.232  0.8078 -1.2278  1.2244
12038TIP3   OH257528   2.457   2.003   0.790  0.0650  0.2877 -0.1432
12038TIP3    H157529   2.377   2.026   0.837 -0.4107 -1.7221  0.0790
12038TIP3    H257530   2.524   1.997   0.858 -0.0089  0.0939 -0.0889
12039TIP3   OH257531   2.468   2.177   2.216  0.3051 -0.2290  0.0596
12039TIP3    H157532   2.542   2.129   2.180 -0.2671 -0.8969 -0.2232
12039TIP3    H257533   2.410   2.193   2.141  0.7372  1.3717  0.0347
12040TIP3   OH257534   1.870   3.761   5.156  0.1121 -0.5840  0.1496
12040TIP3    H157535   1.960   3.777   5.181  0.1594 -0.2851 -0.2092
12040TIP3    H257536   1.818   3.800   5.226  0.2473  0.0625 -0.1051
12041TIP3   OH257537   6.299   3.477  14.785 -0.0560 -0.2417 -0.1211
12041TIP3    H157538   6.235   3.405  14.778 -0.5848  0.0121  1.9334
12041TIP3    H257539   6.384   3.434  14.788 -0.3836 -0.7905  1.2987
12042TIP3   OH257540   6.337   6.372   5.251 -0.4770 -0.3207  0.1551
12042TIP3    H157541   6.282   6.438   5.294  0.7876  1.4814 -0.8990
12042TIP3    H257542   6.402   6.348   5.317  0.1535  0.8575 -0.0114
12043TIP3   OH257543   3.571   0.113  12.025 -0.2738 -0.1844  0.1745
12043TIP3    H157544   3.595   0.123  12.117 -0.5981 -0.7189  0.3171
12043TIP3    H257545   3.620   0.035  11.996 -0.5402 -0.2947  0.0208
12044TIP3   OH257546   2.307   6.394  12.229  0.3386 -0.4497 -0.0106
12044TIP3    H157547   2.347   6.307  12.234  1.6955  0.1572 -0.3935
12044TIP3    H257548   2.380   6.455  12.229 -0.5387  0.6333 -1.8098
12045TIP3   OH257549   1.148   4.929   1.358 -0.0105 -0.5432 -0.2389
12045TIP3    H157550   1.187   4.852   1.401  1.9483  1.0534  0.9680
12045TIP3    H257551   1.080   4.958   1.419  0.0969 -0.5867 -0.0967
12046TIP3   OH257552   3.238   4.851  16.208  0.2127  0.0182  0.5137
12046TIP3    H157553   3.283   4.934  16.226 -0.8044  0.9560 -1.1807
12046TIP3    H257554   3.157   4.877  16.164 -2.0501 -1.6446  3.5003
12047TIP3   OH257555   0.374   3.398   0.869 -0.3134 -0.4817  0.3000
12047TIP3    H157556   0.453   3.453   0.866  0.3551 -1.4108  0.7185
12047TIP3    H257557   0.366   3.373   0.961 -1.3061 -0.1027  0.3204
12048TIP3   OH257558   2.997   5.436  14.372  0.0135  0.8017 -0.1369
12048TIP3    H157559   3.071   5.377  14.388  0.0520  0.8330 -0.2002
12048TIP3    H257560   2.961   5.406  14.289  0.6766  1.5332 -0.6929
12049TIP3   OH257561   3.058   4.108  14.479  0.2436  0.3484 -0.5097
12049TIP3    H157562   3.105   4.126  14.397 -0.2571  3.0049 -0.2640
12049TIP3    H257563   3.045   4.195  14.518  0.5718 -0.8859  2.4431
12050TIP3   OH257564   2.091   3.589   0.103  0.7733 -0.3792  0.0010
12050TIP3    H157565   2.039   3.537   0.042 -0.2564 -1.3104  1.6086
12050TIP3    H257566   2.182   3.573   0.078  0.3420  0.2333 -2.0319
12051TIP3   OH257567   2.282   0.239   0.918  0.0643  0.2539 -0.5131
12051TIP3    H157568   2.248   0.285   0.841 -2.8184  0.9339  1.1223
12051TIP3    H257569   2.308   0.308   0.978  0.4209 -0.2786 -0.0513
12052TIP3   OH257570   4.416   0.257  13.833 -0.2881  1.1885  0.5044
12052TIP3    H157571   4.492   0.297  13.791 -0.9288  0.7733 -1.1069
12052TIP3    H257572   4.436   0.258  13.926  2.3395 -0.2494  0.0026
12053TIP3   OH257573   2.571   5.076   3.207  0.5132  0.1092 -0.0373
12053TIP3    H157574   2.642   5.134   3.178  1.2056 -0.3850  0.6314
12053TIP3    H257575   2.552   5.021   3.131  0.4367  0.6339 -0.4049
12054TIP3   OH257576   1.911   0.529  16.264 -0.6160 -0.4268 -0.3542
12054TIP3    H157577   1.819   0.503  16.253 -1.1827  0.6280  1.6004
12054TIP3    H257578   1.928   0.591  16.193 -1.9611  0.7078  0.2882
12055TIP3   OH257579   5.449   5.188  17.096 -0.3786  0.1898  0.0551
12055TIP3    H157580   5.380   5.139  17.141 -0.6499  0.4240 -0.1109
12055TIP3    H257581   5.403   5.248  17.038 -0.0281 -1.2265 -1.7344
12056TIP3   OH257582   1.705   3.501   4.674  0.0838  0.7123  0.1265
12056TIP3    H157583   1.663   3.428   4.628  0.5921  1.3322 -1.3176
12056TIP3    H257584   1.714   3.470   4.764 -1.3269 -0.3310 -0.0747
12057TIP3   OH257585   1.843   0.304   2.955  0.1264 -0.3266  0.0449
12057TIP3    H157586   1.767   0.263   2.915  0.3988 -2.0043  1.1986
12057TIP3    H257587   1.878   0.362   2.887 -1.4327 -0.4987 -0.9152
12058TIP3   OH257588   1.915   1.050  16.907 -0.4610 -0.1886 -0.0401
12058TIP3    H157589   1.903   1.145  16.902  0.4279 -0.0538  0.3580
12058TIP3    H257590   1.826   1.015  16.905 -0.7609  0.6115 -1.0450
12059TIP3   OH257591   1.539   5.457   1.923  0.0555  0.7518  0.0453
12059TIP3    H157592   1.506   5.478   2.011 -1.6896  0.4254 -0.5065
12059TIP3    H257593   1.618   5.511   1.913 -0.4048  1.6921  1.3514
12060TIP3   OH257594   5.089   5.686   6.142  0.2863  0.3722 -1.1098
12060TIP3    H157595   5.162   5.626   6.126  1.1632  0.3315  2.5187
12060TIP3    H257596   5.015   5.629   6.164 -0.1458  0.4866 -2.2700
12061TIP3   OH257597   4.916   0.845   3.296  0.3280 -0.2665  0.2159
12061TIP3    H157598   4.962   0.880   3.372  0.8730 -3.1712  1.2952
12061TIP3    H257599   4.828   0.882   3.302  0.0507 -1.2599  2.9030
12062TIP3   OH257600   4.927   4.776   6.834 -0.1484 -0.5248 -0.5499
12062TIP3    H157601   4.842   4.808   6.806 -0.4249 -1.5729 -0.9299
12062TIP3    H257602   4.988   4.805   6.766 -0.4409 -1.0239 -1.0324
12063TIP3   OH257603   0.934   4.445   1.024  0.8152  0.7745  0.3066
12063TIP3    H157604   1.023   4.477   1.012  0.5553  1.3727 -0.1033
12063TIP3    H257605   0.905   4.484   1.107  0.4800  1.6606 -0.2198
12064TIP3   OH257606   5.738   0.493  10.789  0.5794 -0.1523  0.1010
12064TIP3    H157607   5.759   0.578  10.828  0.3259 -1.2499  2.6812
12064TIP3    H257608   5.824   0.454  10.770  0.7274 -0.1908  0.8390
12065TIP3   OH257609   5.408   4.941   6.054 -0.6117 -0.9227  0.9355
12065TIP3    H157610   5.383   4.968   5.965 -0.7109  1.8229  1.7364
12065TIP3    H257611   5.500   4.966   6.061 -1.6571  2.8365  2.9295
12066TIP3   OH257612   1.330   0.916   2.446 -0.2636 -0.4794  0.4077
12066TIP3    H157613   1.409   0.956   2.482  0.8953 -1.8443 -0.5869
12066TIP3    H257614   1.261   0.980   2.464  1.3890  1.5633 -0.3278
12067TIP3   OH257615   3.406   4.521  13.774  0.3153  0.2510 -0.4173
12067TIP3    H157616   3.486   4.497  13.727  0.9134 -0.4741  0.9551
12067TIP3    H257617   3.336   4.506  13.710  1.2350  0.6081 -1.5380
12068TIP3   OH257618   4.220   0.382  15.667 -0.2106 -0.0118  0.2924
12068TIP3    H157619   4.240   0.346  15.753  0.9729 -1.6395 -0.6381
12068TIP3    H257620   4.186   0.307  15.617 -1.2770  1.0080 -0.5379
12069TIP3   OH257621   6.377   0.400  13.856  0.8824 -0.5703  0.0983
12069TIP3    H157622   6.390   0.389  13.761  1.2665  0.9486 -0.0325
12069TIP3    H257623   6.457   0.365  13.895  0.8841 -0.8567 -0.1597
12070TIP3   OH257624   4.102   3.521  11.142  0.5245  0.2619  0.0647
12070TIP3    H157625   4.058   3.461  11.082 -0.3208 -0.9130  1.8142
12070TIP3    H257626   4.186   3.539  11.101  0.0837 -0.7556 -1.3177
12071TIP3   OH257627   1.427   6.620   2.856 -0.0936 -0.1748  0.1895
12071TIP3    H157628   1.356   6.667   2.811 -0.1467  0.5485  1.0183
12071TIP3    H257629   1.478   6.689   2.899  2.0427 -0.5163 -1.6536
12072TIP3   OH257630   3.778   2.878   2.497  0.7420 -0.2150 -0.1752
12072TIP3    H157631   3.704   2.881   2.436 -0.1838 -0.4536  0.9056
12072TIP3    H257632   3.804   2.969   2.508  0.7120 -0.1434 -0.6781
12073TIP3   OH257633   6.240   5.238  12.285  0.0309  0.0651 -0.0612
12073TIP3    H157634   6.228   5.325  12.323  1.7552 -0.1187  0.9478
12073TIP3    H257635   6.322   5.244  12.236 -0.9471 -0.4007 -1.8133
12074TIP3   OH257636   0.302   3.892  14.515 -0.5474  0.0988 -0.6540
12074TIP3    H157637   0.299   3.965  14.577  0.2166  0.8755 -1.5280
12074TIP3    H257638   0.267   3.929  14.433 -2.5664 -1.2016 -0.4247
12075TIP3   OH257639   1.214   3.615   5.078 -0.1644  0.8180 -0.4405
12075TIP3    H157640   1.121   3.593   5.089  0.4019 -1.3430  0.2159
12075TIP3    H257641   1.232   3.676   5.149 -0.9257  0.7414 -0.1716
12076TIP3   OH257642   4.814   3.745  13.567  0.0908  0.2945  0.1743
12076TIP3    H157643   4.908   3.738  13.548 -0.3837  0.5283 -2.4923
12076TIP3    H257644   4.781   3.807  13.501 -1.9791  0.0162  0.9135
12077TIP3   OH257645   5.039   6.782  13.733  0.6388 -0.2638  0.8966
12077TIP3    H157646   5.096   6.793  13.657  0.4101  0.3710  0.8136
12077TIP3    H257647   5.025   6.688  13.739  2.3095 -0.5001  1.3640
12078TIP3   OH257648   3.654   0.932   4.844 -0.5612  0.1839  0.6413
12078TIP3    H157649   3.613   0.968   4.765 -0.2474 -0.2171  0.2976
12078TIP3    H257650   3.698   1.007   4.885  0.5995  0.0784 -0.3921
12079TIP3   OH257651   2.090   5.236  12.532  0.3919 -0.0952 -0.0202
12079TIP3    H157652   1.999   5.258  12.510  1.2358  1.2415 -2.2841
12079TIP3    H257653   2.115   5.301  12.597 -0.3561 -0.6569  0.8476
12080TIP3   OH257654   5.518   6.431  13.965  0.2445 -0.8441 -0.4445
12080TIP3    H157655   5.605   6.424  13.926  0.8676  0.1578  0.7146
12080TIP3    H257656   5.535   6.437  14.059 -1.0737 -0.5365 -0.2174
12081TIP3   OH257657   5.579   1.685   0.701  0.4218 -0.8467  0.4771
12081TIP3    H157658   5.490   1.720   0.709  0.7179  0.4401 -1.2608
12081TIP3    H257659   5.620   1.701   0.786  0.3162  2.5684 -0.0112
12082TIP3   OH257660   0.086   6.541  14.650  0.6376  0.7129  0.3403
12082TIP3    H157661   0.103   6.447  14.644  2.6032  1.1554 -1.3977
12082TIP3    H257662   0.004   6.547  14.701 -0.2136 -1.9698 -0.6199
12083TIP3   OH257663   0.791   2.567  10.922  0.3762  1.0303  0.5338
12083TIP3    H157664   0.709   2.597  10.962  0.5704  1.9016  0.2867
12083TIP3    H257665   0.801   2.621  10.844  0.1923 -0.4183 -0.5026
12084TIP3   OH257666   3.840   1.350  12.383 -0.1752  0.1815  0.3533
12084TIP3    H157667   3.928   1.322  12.358 -0.2281  1.7021 -1.6648
12084TIP3    H257668   3.852   1.403  12.462  0.7358  0.4977  0.0005
12085TIP3   OH257669   6.348   3.067   5.110 -0.5341 -0.0514  0.9921
12085TIP3    H157670   6.301   3.114   5.179 -1.5369 -1.8780  1.6059
12085TIP3    H257671   6.282   3.008   5.073  0.3468 -0.0448 -0.6323
12086TIP3   OH257672   5.717   0.666  11.471 -0.1972 -0.4406  0.4654
12086TIP3    H157673   5.745   0.579  11.442 -3.6713 -1.6112  0.3647
12086TIP3    H257674   5.760   0.727  11.411 -0.1402 -2.2889 -1.4192
12087TIP3   OH257675   6.451   5.259  12.046  0.4844  0.2644 -0.2120
12087TIP3    H157676   6.517   5.318  12.009  1.9856 -1.7191 -0.7753
12087TIP3    H257677   6.500   5.181  12.070 -1.2618 -0.2529  1.7543
12088TIP3   OH257678   5.583   1.015   4.918  0.2787 -0.1705  0.1802
12088TIP3    H157679   5.587   1.100   4.960 -1.7733  0.7235 -1.3051
12088TIP3    H257680   5.671   0.979   4.927  0.7656  1.4369  2.1632
12089TIP3   OH257681   2.380   4.178  13.270 -0.9628  0.2104 -0.1875
12089TIP3    H157682   2.381   4.116  13.343 -0.7103  1.6880  1.0860
12089TIP3    H257683   2.472   4.184  13.243 -0.8968  0.5062  0.1007
12090TIP3   OH257684   6.461   0.455  15.370 -0.1394 -0.0844 -0.3127
12090TIP3    H157685   6.408   0.517  15.320 -1.8373 -0.1371  1.3753
12090TIP3    H257686   6.530   0.508  15.410 -2.3789  1.0069  2.2313
12091TIP3   OH257687   6.161   2.604   0.369 -0.4703 -0.0019  0.3287
12091TIP3    H157688   6.157   2.665   0.296 -1.0010  0.6470  0.8864
12091TIP3    H257689   6.073   2.568   0.376 -0.3504 -0.2743  0.4670
12092TIP3   OH257690   5.738   3.496   5.469  0.1574  0.1849  0.0918
12092TIP3    H157691   5.814   3.485   5.526  1.1350  1.5624 -0.9176
12092TIP3    H257692   5.663   3.490   5.528  1.1416  1.3804  1.5021
12093TIP3   OH257693   6.359   5.983  12.167  0.7148 -0.4882 -0.1579
12093TIP3    H157694   6.373   6.073  12.140 -2.3849 -0.2814 -1.2479
12093TIP3    H257695   6.288   5.951  12.110  1.7323 -3.6014  0.1976
12094TIP3   OH257696   5.165   3.902   4.333  0.0378 -0.1801  0.2932
12094TIP3    H157697   5.074   3.908   4.302  0.5413  0.6443 -1.0703
12094TIP3    H257698   5.218   3.923   4.256  1.4271 -1.6340  0.8262
12095TIP3   OH257699   2.899   4.729  12.775 -0.0792 -0.4568  0.0002
12095TIP3    H157700   2.900   4.772  12.860  2.2628 -0.8806  0.2226
12095TIP3    H257701   2.807   4.732  12.747 -0.4365  2.0258  1.3344
12096TIP3   OH257702   0.140   6.326  17.060  0.0633 -0.0012  0.1607
12096TIP3    H157703   0.195   6.337  16.983  0.4073 -1.3575  0.2035
12096TIP3    H257704   0.052   6.311  17.024 -0.2413  1.8189  0.0878
12097TIP3   OH257705   4.658   6.008  11.448 -0.3954  0.0770 -0.1997
12097TIP3    H157706   4.642   5.971  11.534  0.0433  1.1438  0.3558
12097TIP3    H257707   4.719   5.947  11.406 -1.5549 -1.0792 -0.2239
12098TIP3   OH257708   3.217   4.527  13.569  0.3983  0.5488 -0.1862
12098TIP3    H157709   3.145   4.589  13.583  0.9060  0.8344  1.3336
12098TIP3    H257710   3.175   4.449  13.534 -0.5309  1.0442 -0.2041
12099TIP3   OH257711   0.236   5.607   3.476 -0.3580  0.8322 -0.6664
12099TIP3    H157712   0.318   5.613   3.525  0.4350  1.3021 -2.0172
12099TIP3    H257713   0.253   5.540   3.410 -1.7754 -0.5679  0.3476
12100TIP3   OH257714   5.931   0.804   3.132  0.0850 -0.1918  0.3140
12100TIP3    H157715   5.898   0.877   3.186 -0.6370 -0.9463  0.9064
12100TIP3    H257716   6.016   0.782   3.170  1.3464  1.7752 -1.2270
12101TIP3   OH257717   6.414   5.305   3.721 -0.1032 -0.3783 -0.0968
12101TIP3    H157718   6.424   5.389   3.765  1.6410  0.8372 -2.6596
12101TIP3    H257719   6.455   5.242   3.780  2.7572  1.2934 -0.1988
12102TIP3   OH257720   1.653   5.739  13.297  0.1820  0.3397  0.2904
12102TIP3    H157721   1.734   5.770  13.257  0.0619 -0.4157 -0.5496
12102TIP3    H257722   1.584   5.773  13.240 -0.0614  0.4837  0.6709
12103TIP3   OH257723   1.155   2.533   7.012 -0.0329 -0.2605  0.1408
12103TIP3    H157724   1.109   2.606   6.970 -2.6827 -2.3700 -0.7573
12103TIP3    H257725   1.106   2.515   7.091  1.1561 -0.4948  0.8413
12104TIP3   OH257726   4.314   0.460  11.633  0.4651  0.5972  0.0776
12104TIP3    H157727   4.290   0.459  11.541  1.0209 -1.2215 -0.0753
12104TIP3    H257728   4.231   0.464  11.680  0.1298  0.4083 -0.4963
12105TIP3   OH257729   4.888   3.330   1.820 -0.0438  0.7045 -0.3795
12105TIP3    H157730   4.862   3.421   1.835 -0.8183  0.6214 -1.1361
12105TIP3    H257731   4.808   3.287   1.789  0.5164 -0.0317 -0.8323
12106TIP3   OH257732   6.584   3.584   3.872  0.4359 -0.7094  0.7905
12106TIP3    H157733   6.602   3.667   3.916 -0.4088  0.0207 -0.1971
12106TIP3    H257734   6.490   3.572   3.881  0.0128  0.1439 -1.9100
12107TIP3   OH257735   4.624   1.364  15.237  0.3077 -0.8812 -0.2181
12107TIP3    H157736   4.590   1.320  15.159  1.1474 -0.1208 -1.0155
12107TIP3    H257737   4.547   1.377  15.292 -0.3394 -1.1575 -1.0488
12108TIP3   OH257738   3.984   4.513  15.662  0.2976 -0.3653  0.7787
12108TIP3    H157739   4.039   4.556  15.596 -1.7144  0.7436 -0.2361
12108TIP3    H257740   3.970   4.581  15.729 -0.7207 -0.2549  0.4729
12109TIP3   OH257741   5.508   4.865   5.251 -0.0012 -0.7214  0.0639
12109TIP3    H157742   5.464   4.791   5.210 -1.2826 -0.3929  0.8146
12109TIP3    H257743   5.521   4.927   5.179  0.4902 -1.3926 -0.4351
12110TIP3   OH257744   5.376   4.083  12.237 -0.1125 -1.1194  0.4106
12110TIP3    H157745   5.446   4.035  12.194  1.0463  1.4858 -0.6515
12110TIP3    H257746   5.420   4.138  12.302 -1.0812  0.9027 -0.6004
12111TIP3   OH257747   3.939   1.871   5.441 -0.5280  0.2961  0.4648
12111TIP3    H157748   3.998   1.847   5.513  0.0576 -0.8191 -0.3612
12111TIP3    H257749   3.865   1.913   5.484  0.0534  0.1262  1.6811
12112TIP3   OH257750   4.669   0.519  13.298 -0.1953 -0.0429 -0.0273
12112TIP3    H157751   4.639   0.573  13.225  0.3818  0.9025  0.4377
12112TIP3    H257752   4.663   0.429  13.265  0.1609  0.3808 -1.2703
12113TIP3   OH257753   6.320   4.079  16.887 -0.1494  0.4706 -0.3695
12113TIP3    H157754   6.346   4.151  16.946 -1.1305  0.2081  0.4032
12113TIP3    H257755   6.313   4.120  16.801 -1.7200  1.5460  0.2438
12114TIP3   OH257756   4.760   1.967   0.892 -0.8535 -0.0912  0.5171
12114TIP3    H157757   4.808   1.958   0.975 -0.4309  1.8885  0.5086
12114TIP3    H257758   4.820   1.933   0.826  0.3651  1.8604  0.5780
12115TIP3   OH257759   0.002   1.553  11.755  0.7613 -0.7859 -0.4404
12115TIP3    H157760   0.060   1.609  11.806 -0.5919  1.4803 -1.3150
12115TIP3    H257761   0.062   1.496  11.705  2.1181 -1.2310  1.6496
12116TIP3   OH257762   3.490   4.488  13.344  0.0743 -0.1221  0.5906
12116TIP3    H157763   3.549   4.471  13.417  4.0207  0.7437 -2.2205
12116TIP3    H257764   3.528   4.564  13.300 -3.6167  0.9255 -0.9208
12117TIP3   OH257765   6.518   0.823   3.017 -0.6308  0.2411 -0.1954
12117TIP3    H157766   6.499   0.764   2.944  2.6149 -0.0021 -0.9388
12117TIP3    H257767   6.535   0.908   2.975 -0.5899  0.5437  0.4376
12118TIP3   OH257768   4.772   6.015   6.331 -0.3637 -0.0326  0.2784
12118TIP3    H157769   4.852   5.995   6.281  2.1333  0.7742  3.7928
12118TIP3    H257770   4.773   6.110   6.341 -0.1192 -0.2787  2.9024
12119TIP3   OH257771   3.904   1.762   5.834  0.0514 -0.0427  0.4253
12119TIP3    H157772   3.864   1.675   5.831 -2.1333  0.8254  2.4716
12119TIP3    H257773   3.864   1.804   5.910  1.4867  2.5688 -0.1965
12120TIP3   OH257774   1.909   6.534   3.077  0.0793 -0.0458  0.6158
12120TIP3    H157775   1.839   6.595   3.096 -0.8498 -0.4600 -1.3678
12120TIP3    H257776   1.931   6.550   2.985  1.1080 -1.3789  0.6123
12121TIP3   OH257777   3.269   0.676  11.551 -0.4176 -0.5643  0.1162
12121TIP3    H157778   3.216   0.607  11.509 -1.2425  0.3766 -0.4149
12121TIP3    H257779   3.261   0.658  11.645 -2.7052  0.2695  0.1122
12122TIP3   OH257780   2.288   5.858  16.533 -0.1944  0.0710 -0.5817
12122TIP3    H157781   2.253   5.925  16.475 -1.2995 -0.5448 -0.6207
12122TIP3    H257782   2.309   5.905  16.614 -0.7668  0.5063 -0.6853
12123TIP3   OH257783   0.033   6.071   5.682  0.2555 -0.2720 -0.0700
12123TIP3    H157784   0.026   6.126   5.604 -1.2498  0.6983  0.7158
12123TIP3    H257785  -0.038   6.008   5.674  0.4661 -0.5469  0.2200
12124TIP3   OH257786   4.081   3.050  13.941  0.4138  0.0876  0.1318
12124TIP3    H157787   4.143   3.028  14.010 -1.5199 -0.6051  1.6974
12124TIP3    H257788   4.023   3.116  13.981  0.0172  0.5925 -1.2394
12125TIP3   OH257789   2.838   5.429  16.508  0.1422  0.2419  0.2344
12125TIP3    H157790   2.842   5.516  16.547 -1.7180  0.4213  0.0759
12125TIP3    H257791   2.758   5.430  16.455 -0.4843 -1.8957  1.0798
12126TIP3   OH257792   0.134   1.020  16.029  0.5244  0.2937  0.6703
12126TIP3    H157793   0.121   0.926  16.038 -1.5770  0.3656 -1.1095
12126TIP3    H257794   0.081   1.058  16.100  0.4082  0.1777  0.6458
12127TIP3   OH257795   6.721   5.556  12.501  0.3823 -0.5446  0.6023
12127TIP3    H157796   6.810   5.577  12.474  0.5468 -0.6522  1.0631
12127TIP3    H257797   6.709   5.464  12.478  0.3356 -0.4847  0.3894
12128TIP3   OH257798   1.450   1.344   2.502 -0.7096 -0.0247  0.4180
12128TIP3    H157799   1.483   1.422   2.545 -1.6106  2.0205 -2.4392
12128TIP3    H257800   1.355   1.355   2.501 -1.0425 -2.3304  2.0882
12129TIP3   OH257801   6.146   0.592  14.442 -0.4420 -0.3297 -0.3180
12129TIP3    H157802   6.135   0.581  14.536 -0.4524  1.4699 -0.0825
12129TIP3    H257803   6.058   0.610  14.409 -0.3434 -0.2819 -0.5574
12130TIP3   OH257804   0.600   3.023  13.654 -0.2294 -0.0454 -0.4338
12130TIP3    H157805   0.677   3.080  13.647  0.3741 -0.6396  1.0487
12130TIP3    H257806   0.585   2.992  13.565  0.6219  0.8964 -0.9169
12131TIP3   OH257807   5.916   5.947   1.979 -0.8256 -0.2897  0.1842
12131TIP3    H157808   5.821   5.936   1.974 -1.0129  1.1028  0.5706
12131TIP3    H257809   5.930   6.004   2.055  0.0695  2.3987 -1.8929
12132TIP3   OH257810   0.763   1.116  12.457  0.3963  0.5730 -0.0408
12132TIP3    H157811   0.816   1.140  12.533 -0.7656 -1.2918  1.3973
12132TIP3    H257812   0.684   1.078  12.494  1.2342 -3.4862 -2.1497
12133TIP3   OH257813   6.382   2.861  16.619  0.2498  0.3061  0.2677
12133TIP3    H157814   6.319   2.929  16.593  0.5766  1.5486  2.6325
12133TIP3    H257815   6.331   2.781  16.623 -0.3462  0.5534 -1.6240
12134TIP3   OH257816   2.714   2.567   4.906 -0.5774  0.1080 -0.0483
12134TIP3    H157817   2.723   2.662   4.918  0.4068  0.1236 -0.9299
12134TIP3    H257818   2.802   2.532   4.918 -0.7689 -0.5988 -0.6312
12135TIP3   OH257819   5.400   3.584   1.620  0.0872  0.8891  1.0780
12135TIP3    H157820   5.389   3.489   1.624 -0.2073  0.7664 -1.6891
12135TIP3    H257821   5.468   3.603   1.685 -2.3117 -0.7419  4.1647
12136TIP3   OH257822   0.903   4.200  13.353 -0.1000 -0.0794  0.5307
12136TIP3    H157823   0.854   4.255  13.292  0.4039  1.0585  1.1412
12136TIP3    H257824   0.895   4.112  13.318 -1.6486  0.2638  0.0172
12137TIP3   OH257825   6.315   5.479   5.582  0.3459  0.0762  0.4616
12137TIP3    H157826   6.350   5.410   5.526  0.1954  0.3299  0.0468
12137TIP3    H257827   6.221   5.477   5.567  0.4475  1.1403 -0.4639
12138TIP3   OH257828   5.480   3.929   0.692  0.1725  0.0378 -0.9876
12138TIP3    H157829   5.478   3.927   0.597  0.8400 -2.6182 -0.9830
12138TIP3    H257830   5.421   3.858   0.719  2.7790 -1.6591  0.4904
12139TIP3   OH257831   0.187   0.469   0.737  0.1290 -0.1135  0.3674
12139TIP3    H157832   0.144   0.553   0.723  0.5836  0.3812  1.8496
12139TIP3    H257833   0.280   0.487   0.722  0.1567 -0.5021  0.0671
12140TIP3   OH257834   0.037   4.289  14.463 -0.1041  0.0219 -0.3908
12140TIP3    H157835  -0.050   4.325  14.476 -0.8184 -0.7551 -2.6813
12140TIP3    H257836   0.095   4.364  14.467 -0.6346  0.3197  2.9479
12141TIP3   OH257837   1.002   4.494   4.528 -0.0840  0.1488  0.2779
12141TIP3    H157838   0.949   4.506   4.450 -1.1833  0.2537  1.0333
12141TIP3    H257839   1.049   4.578   4.538 -0.3661  0.3338  0.0485
12142TIP3   OH257840   4.232   1.963  14.252 -0.1997 -0.3119  0.0303
12142TIP3    H157841   4.205   1.982  14.162  2.2661  1.3318 -0.4083
12142TIP3    H257842   4.254   2.048  14.289  2.2039 -1.3084  1.0229
12143TIP3   OH257843   1.688   5.184  14.643 -0.0243 -0.0734  0.3087
12143TIP3    H157844   1.692   5.143  14.729  0.1492 -0.1964  0.2406
12143TIP3    H257845   1.666   5.112  14.583 -0.8446  0.1373  0.3416
12144TIP3   OH257846   0.776   3.813   4.175 -0.1337  0.4285  0.4930
12144TIP3    H157847   0.728   3.844   4.098 -1.0022 -0.5263  0.6454
12144TIP3    H257848   0.729   3.849   4.249  0.0731  0.4616  0.6078
12145TIP3   OH257849   3.810   2.281  16.363  0.5278 -0.8085  0.3102
12145TIP3    H157850   3.787   2.333  16.440  0.4817  1.6034 -1.2956
12145TIP3    H257851   3.781   2.192  16.385 -1.2720  0.2251  2.2951
12146TIP3   OH257852   3.606   0.747  15.025 -0.1486 -0.7297  0.3221
12146TIP3    H157853   3.540   0.699  15.075 -0.2942 -1.3072 -0.4188
12146TIP3    H257854   3.566   0.759  14.938  0.5644 -0.7556 -0.0129
12147TIP3   OH257855   5.796   0.049   5.928 -0.2436 -0.3102  0.8382
12147TIP3    H157856   5.780   0.013   5.841 -1.5973 -1.6740  1.6211
12147TIP3    H257857   5.710   0.049   5.970 -0.2940  3.8403  0.9030
12148TIP3   OH257858   2.896   3.326  17.220  0.4585 -0.0867  0.1099
12148TIP3    H157859   2.971   3.381  17.241  0.1861  0.3190  0.0191
12148TIP3    H257860   2.823   3.387  17.208 -0.6151 -0.6614  3.2824
12149TIP3   OH257861   1.407   4.170  11.817  0.3950  0.3770 -0.5163
12149TIP3    H157862   1.426   4.080  11.791  0.7252  1.3781 -4.0228
12149TIP3    H257863   1.420   4.221  11.737  1.2704  3.7108  1.6612
12150TIP3   OH257864   4.369   1.581   4.083 -0.0548 -0.2064  0.0068
12150TIP3    H157865   4.378   1.510   4.019 -1.8523  0.3774 -0.9145
12150TIP3    H257866   4.352   1.659   4.031 -2.0739  0.1895  1.2121
12151TIP3   OH257867   5.016   1.554  10.359  0.4474  0.2669 -0.0296
12151TIP3    H157868   5.002   1.617  10.288 -1.9694 -0.4688 -0.2722
12151TIP3    H257869   4.931   1.549  10.403  0.5904 -2.7698  0.0018
12152TIP3   OH257870   6.544   3.946  14.370 -0.4293  0.2548 -0.1587
12152TIP3    H157871   6.469   3.887  14.383  1.2510 -2.1810 -1.0761
12152TIP3    H257872   6.558   3.986  14.455 -3.0671  1.1183 -0.0860
12153TIP3   OH257873   2.256   4.412   5.108  0.3087  0.2198 -0.2794
12153TIP3    H157874   2.334   4.383   5.062  0.1565  0.7317 -0.8629
12153TIP3    H257875   2.187   4.410   5.042 -0.4344 -1.3556  0.5149
12154TIP3   OH257876   6.456   0.981   1.827 -0.0944  0.2795 -0.2045
12154TIP3    H157877   6.457   1.067   1.870  0.0866  0.5996 -0.8477
12154TIP3    H257878   6.533   0.981   1.771 -0.3175 -0.1509 -0.5134
12155TIP3   OH257879   3.247   2.027   5.643  0.8209  0.1627  0.4926
12155TIP3    H157880   3.217   2.071   5.723  1.1700  0.0335  0.6968
12155TIP3    H257881   3.248   1.934   5.665  1.6062  0.1815  0.5759
12156TIP3   OH257882   3.839   0.708  13.167  0.8017 -0.0660 -0.2464
12156TIP3    H157883   3.803   0.691  13.254 -2.7515  0.1170 -1.6113
12156TIP3    H257884   3.814   0.799  13.148  1.7338 -0.0356 -1.3855
12157TIP3   OH257885   0.695   6.562  13.359  0.7241 -0.3471 -0.2216
12157TIP3    H157886   0.646   6.606  13.428  0.7250  1.4225 -1.3264
12157TIP3    H257887   0.760   6.509  13.406  1.5230  1.7841  1.1066
12158TIP3   OH257888   1.990   0.207   0.368 -0.0934  0.1054 -0.3922
12158TIP3    H157889   2.049   0.256   0.425 -2.9191  2.4788  0.6543
12158TIP3    H257890   1.936   0.155   0.427 -1.2278  0.4977 -1.0461
12159TIP3   OH257891   0.434   6.037   1.246 -0.9172  0.4995  0.4545
12159TIP3    H157892   0.510   6.055   1.191 -2.2136 -0.7775 -1.8798
12159TIP3    H257893   0.401   6.123   1.271  0.4568  1.0766  0.2852
12160TIP3   OH257894   6.358   5.779  14.642  0.5520 -0.0266  0.0270
12160TIP3    H157895   6.329   5.861  14.683  0.8744 -0.2686  0.7502
12160TIP3    H257896   6.366   5.801  14.549 -0.2982  0.4983  0.0722
12161TIP3   OH257897   3.420   4.758   0.464  0.0885  0.2126  0.1333
12161TIP3    H157898   3.485   4.826   0.483 -0.4312  0.6504  0.3510
12161TIP3    H257899   3.369   4.750   0.545 -0.5450  0.3317 -0.2516
12162TIP3   OH257900   2.256   3.679  12.212 -0.0046 -0.1302  0.0073
12162TIP3    H157901   2.334   3.732  12.223 -0.6780  1.3338 -1.8846
12162TIP3    H257902   2.201   3.700  12.287 -0.0927  1.5909 -0.5207
12163TIP3   OH257903   4.006   1.797   0.754 -1.0213 -0.5734  0.1058
12163TIP3    H157904   4.099   1.783   0.771 -0.6771  2.1611  0.6228
12163TIP3    H257905   3.995   1.772   0.662  0.4232 -0.0972 -0.2145
12164TIP3   OH257906   1.917   2.345   3.203  0.1815 -0.3452 -0.7381
12164TIP3    H157907   1.970   2.280   3.250  1.5869 -0.0584 -1.9088
12164TIP3    H257908   1.903   2.414   3.267  0.9104 -0.5911 -0.3040
12165TIP3   OH257909   1.310   3.201  13.414  0.1713  0.3542 -0.0706
12165TIP3    H157910   1.344   3.112  13.421 -0.8613 -0.1557 -1.2782
12165TIP3    H257911   1.357   3.240  13.341  0.1794  0.5869  0.0566
12166TIP3   OH257912   6.206   5.735  14.212  0.1009  0.0175  0.2617
12166TIP3    H157913   6.119   5.766  14.237 -0.1120  0.3850 -0.9030
12166TIP3    H257914   6.190   5.646  14.180  0.3351 -0.3567  1.1651
12167TIP3   OH257915   2.866   6.228   1.377 -0.3453  0.1935 -0.5827
12167TIP3    H157916   2.822   6.306   1.343 -0.0675  0.6289  0.0362
12167TIP3    H257917   2.878   6.246   1.470  1.2586  0.1457 -0.7543
12168TIP3   OH257918   2.411   0.200   0.497 -0.6685 -0.3420 -0.5572
12168TIP3    H157919   2.489   0.199   0.442 -1.4448 -0.6187 -1.6490
12168TIP3    H257920   2.348   0.253   0.449 -1.0277  0.2077  0.5083
12169TIP3   OH257921   3.185   3.446  13.135  0.1239 -0.3126 -1.0477
12169TIP3    H157922   3.243   3.468  13.062  0.3697 -0.7555 -0.9899
12169TIP3    H257923   3.112   3.507  13.127  0.3496 -0.0904 -1.4246
12170TIP3   OH257924   2.815   2.007   1.061 -0.2111  0.0292  0.0124
12170TIP3    H157925   2.839   2.093   1.027  0.4038  0.6524  1.9774
12170TIP3    H257926   2.896   1.956   1.059 -0.3994 -0.2534 -0.4179
12171TIP3   OH257927   4.116   0.928   0.195 -0.0200  0.0701  0.2108
12171TIP3    H157928   4.169   0.893   0.123 -0.4901 -1.0256  0.3944
12171TIP3    H257929   4.165   0.905   0.274 -0.4463 -0.3747  0.3451
12172TIP3   OH257930   5.349   0.522  14.160 -0.5259 -0.6468 -0.5625
12172TIP3    H157931   5.279   0.546  14.099 -0.0586 -0.4072 -1.0116
12172TIP3    H257932   5.305   0.516  14.245 -1.1761 -0.9485 -0.9131
12173TIP3   OH257933   3.050   4.907   0.418  0.0316  0.7996  0.5043
12173TIP3    H157934   3.084   4.952   0.340  2.2547  0.7892  1.4281
12173TIP3    H257935   3.013   4.978   0.471  0.2945  1.0691  0.3326
12174TIP3   OH257936   4.467   1.654   1.933 -0.0515 -0.5470 -0.1609
12174TIP3    H157937   4.423   1.704   2.002 -0.3193 -0.4995 -0.3616
12174TIP3    H257938   4.406   1.583   1.912  0.1149 -0.6753 -0.2092
12175TIP3   OH257939   2.738   2.637   0.838  0.1351  0.0656  0.7155
12175TIP3    H157940   2.790   2.557   0.835  0.6018  0.3880 -0.2333
12175TIP3    H257941   2.800   2.704   0.870  0.7943  0.7766 -1.8727
12176TIP3   OH257942   0.174   3.204  12.272 -0.1245  0.1698 -0.5416
12176TIP3    H157943   0.106   3.256  12.229  0.1994 -0.0256 -1.2869
12176TIP3    H257944   0.225   3.167  12.201  0.4855 -0.0630  0.0127
12177TIP3   OH257945   4.066   6.429   4.325 -0.0406  0.1750  0.2121
12177TIP3    H157946   4.007   6.452   4.254  3.0744  2.7170 -1.7163
12177TIP3    H257947   4.096   6.513   4.359  1.4456 -1.0354  2.0116
12178TIP3   OH257948   5.662   6.186  13.145  0.2993  0.2871 -0.1465
12178TIP3    H157949   5.709   6.138  13.213 -1.1118  0.7927  1.2187
12178TIP3    H257950   5.649   6.122  13.075 -1.6272 -1.4067  1.6918
12179TIP3   OH257951   6.267   3.403  13.040  0.3579  0.3134 -0.7995
12179TIP3    H157952   6.330   3.331  13.047  0.8507  0.7872 -0.3555
12179TIP3    H257953   6.182   3.359  13.038  0.5747 -0.2168  0.9751
12180TIP3   OH257954   5.317   6.360  13.481  0.0578  0.1518  0.4190
12180TIP3    H157955   5.398   6.325  13.446 -0.6541  0.9434 -2.1570
12180TIP3    H257956   5.272   6.397  13.404 -1.3390  2.4222  2.2716
12181TIP3   OH257957   0.949   5.621   4.965  0.1907 -0.0507 -0.0680
12181TIP3    H157958   0.996   5.627   5.048 -0.8917 -1.7982  0.6985
12181TIP3    H257959   0.999   5.676   4.905  1.3108  0.7757  1.5927
12182TIP3   OH257960   1.314   4.731  15.149 -0.6020 -0.0197  0.2007
12182TIP3    H157961   1.311   4.635  15.146  0.0847 -0.0408  0.1180
12182TIP3    H257962   1.245   4.759  15.089 -0.6888 -0.4636  0.0890
12183TIP3   OH257963   3.716   5.587  11.041 -0.2751  0.4142 -0.4286
12183TIP3    H157964   3.804   5.619  11.058 -0.0876  0.6673 -1.8290
12183TIP3    H257965   3.663   5.624  11.112  0.6854  0.4815  0.2607
12184TIP3   OH257966   3.022   3.918   3.120  0.4107 -0.0811  0.4324
12184TIP3    H157967   2.971   3.979   3.174 -0.1112 -0.6387  0.5793
12184TIP3    H257968   3.006   3.832   3.160  0.7950 -0.3700 -0.0289
12185TIP3   OH257969   6.663   0.181   0.140 -0.1438  0.0905 -0.0119
12185TIP3    H157970   6.574   0.191   0.104  0.2041  0.8461 -0.6603
12185TIP3    H257971   6.711   0.256   0.106  0.1114  1.0323  2.3118
12186TIP3   OH257972   5.540   6.350   0.471 -0.3661 -0.0704  0.4989
12186TIP3    H157973   5.526   6.440   0.439  0.8549 -0.6194 -1.6821
12186TIP3    H257974   5.454   6.310   0.467 -0.6427  0.5554  0.0175
12187TIP3   OH257975   1.908   4.667  11.234 -0.3043  0.3811  0.2908
12187TIP3    H157976   1.822   4.644  11.198 -0.1042 -0.1642  0.1495
12187TIP3    H257977   1.957   4.702  11.160 -0.4151  0.7185  0.3766
12188TIP3   OH257978   0.156   5.089   1.895  0.1605  0.0834 -0.7442
12188TIP3    H157979   0.101   5.135   1.831 -0.3094  3.0667  1.6669
12188TIP3    H257980   0.094   5.050   1.956  0.6540 -0.4396 -0.5774
12189TIP3   OH257981   3.148   5.494   5.151 -0.1419  0.3554  0.1866
12189TIP3    H157982   3.225   5.520   5.202  0.4771  3.3943 -2.1854
12189TIP3    H257983   3.080   5.557   5.175 -0.4201  0.6404 -1.3155
12190TIP3   OH257984   1.568   1.040   0.572  0.2349 -0.1615 -0.1082
12190TIP3    H157985   1.515   1.093   0.512  0.4659 -0.7440 -0.8348
12190TIP3    H257986   1.658   1.064   0.552  0.3799 -1.3957 -0.9963
12191TIP3   OH257987   1.687   2.589  16.578  0.4049 -0.0696 -0.3617
12191TIP3    H157988   1.615   2.612  16.520 -0.5988  0.3791  1.0347
12191TIP3    H257989   1.727   2.512  16.538  0.2081  0.6698 -2.0318
12192TIP3   OH257990   5.338   1.379   6.012  0.0701  0.0080  0.0694
12192TIP3    H157991   5.412   1.352   6.065 -0.3383 -2.8600 -0.7692
12192TIP3    H257992   5.376   1.409   5.929  0.3686 -0.6100 -0.0185
12193TIP3   OH257993   5.798   6.675   2.606  0.2419 -0.2356 -0.4708
12193TIP3    H157994   5.778   6.750   2.550  1.5424  0.1972 -0.3597
12193TIP3    H257995   5.893   6.668   2.605  0.2207 -0.9516  0.7479
12194TIP3   OH257996   2.094   6.082   2.901  0.7133 -0.8886  0.1771
12194TIP3    H157997   2.066   6.033   2.823 -0.1625  1.2153 -0.8639
12194TIP3    H257998   2.132   6.162   2.867 -1.2496  0.8499  1.9449
12195TIP3   OH257999   3.467   1.514   0.600  0.5160 -0.2382  0.3303
12195TIP3    H158000   3.542   1.528   0.657 -0.7787  0.6953  1.8417
12195TIP3    H258001   3.445   1.422   0.612  1.1502 -0.4093  0.2062
12196TIP3   OH258002   2.329   3.720   1.359  0.4550 -0.7776  0.3137
12196TIP3    H158003   2.349   3.804   1.318 -1.9109  0.0230  0.6972
12196TIP3    H258004   2.302   3.663   1.287 -0.9297 -0.2426  0.3901
12197TIP3   OH258005   2.347   4.338  10.584 -0.5851 -0.3167  0.3118
12197TIP3    H158006   2.426   4.379  10.618 -0.3338 -0.4960 -0.0619
12197TIP3    H258007   2.378   4.259  10.538 -0.8145  0.5334 -1.3345
12198TIP3   OH258008   3.396   2.094  14.031  0.0829  0.2999  0.3240
12198TIP3    H158009   3.317   2.146  14.017 -0.3602 -0.3516  0.3533
12198TIP3    H258010   3.412   2.098  14.125  0.6033  1.1645  0.2068
12199TIP3   OH258011   0.421   3.726   6.028 -0.5117 -0.0157  0.5178
12199TIP3    H158012   0.459   3.656   6.081 -0.9083 -0.1285  0.6546
12199TIP3    H258013   0.483   3.799   6.036  0.5518 -0.7724 -0.6556
12200TIP3   OH258014   2.230   5.759  16.996  0.0782 -0.3253  0.2389
12200TIP3    H158015   2.242   5.815  17.073  0.3244 -0.9351  0.6459
12200TIP3    H258016   2.266   5.810  16.923 -1.7528  0.9949  0.2305
12201TIP3   OH258017   0.560   1.072   4.219 -0.2057 -0.8241 -0.3411
12201TIP3    H158018   0.541   1.070   4.125 -0.5938  0.8862 -0.3076
12201TIP3    H258019   0.492   1.017   4.258 -0.1462 -1.4018 -1.0388
12202TIP3   OH258020   5.979   5.444  14.537 -0.5635 -0.0004  0.0873
12202TIP3    H158021   5.925   5.411  14.609 -1.5889 -0.0482 -0.6886
12202TIP3    H258022   5.948   5.396  14.460  1.0631 -0.5086 -0.2499
12203TIP3   OH258023   6.638   3.927   6.064  0.2169  0.0116 -0.5090
12203TIP3    H158024   6.642   3.998   6.000 -0.5926  0.5122 -0.0265
12203TIP3    H258025   6.635   3.847   6.012  1.6998  0.3040 -1.0481
12204TIP3   OH258026   4.686   3.140  12.399  0.0255  0.2160 -0.2272
12204TIP3    H158027   4.733   3.068  12.440 -2.3646 -1.1275  0.2373
12204TIP3    H258028   4.677   3.206  12.468 -1.7464 -0.9641  0.6912
12205TIP3   OH258029   4.063   4.946   0.282  0.2176  0.0801 -0.0286
12205TIP3    H158030   4.043   4.857   0.311 -0.3195  0.5912  1.1857
12205TIP3    H258031   4.145   4.937   0.233  0.3573 -1.0290  0.3912
12206TIP3   OH258032   1.916   6.434   1.550 -0.5914  0.1273 -0.3404
12206TIP3    H158033   1.907   6.452   1.644 -0.9676  1.5424 -0.6331
12206TIP3    H258034   1.953   6.515   1.514  0.4122 -0.7380 -1.2781
12207TIP3   OH258035   1.565   3.225  16.440  0.0605 -0.1369 -0.4511
12207TIP3    H158036   1.613   3.185  16.367  0.0567  0.3372 -0.7155
12207TIP3    H258037   1.563   3.157  16.508 -0.6276 -0.8683 -1.1825
12208TIP3   OH258038   1.585   2.098   1.123 -0.1684  0.1362  0.3083
12208TIP3    H158039   1.610   2.108   1.215  0.6360  0.7656  0.0279
12208TIP3    H258040   1.516   2.163   1.110  0.6292  0.9596  0.1358
12209TIP3   OH258041   3.230   5.501  14.813 -0.1239 -0.0804  0.2732
12209TIP3    H158042   3.156   5.443  14.796  0.6680 -1.8638  2.7411
12209TIP3    H258043   3.213   5.536  14.901  1.8849 -0.4177  0.8098
12210TIP3   OH258044   0.743   3.901   0.080 -0.2071 -0.0625 -0.4536
12210TIP3    H158045   0.786   3.970   0.130  0.3256  0.3431 -1.4660
12210TIP3    H258046   0.737   3.827   0.142  0.4205  0.4328  0.2096
12211TIP3   OH258047   3.838   4.168   5.778  0.4534  1.1786 -0.1832
12211TIP3    H158048   3.757   4.191   5.732  1.6259  2.3714 -1.7137
12211TIP3    H258049   3.870   4.090   5.733  0.6463  1.2636 -0.1932
12212TIP3   OH258050   0.882   4.865  13.971 -0.0443 -0.4297  0.1508
12212TIP3    H158051   0.844   4.803  14.034 -0.3969 -0.5023 -0.1344
12212TIP3    H258052   0.976   4.866  13.993 -0.0010 -1.2058  0.0358
12213TIP3   OH258053   0.015   1.617  15.816 -0.5693 -0.1937 -0.1716
12213TIP3    H158054  -0.069   1.632  15.860 -0.8725 -0.1313 -0.7547
12213TIP3    H258055   0.002   1.653  15.728 -0.1222 -0.7067 -0.4528
12214TIP3   OH258056   1.525   3.925   5.854  0.0629  0.4395  0.3840
12214TIP3    H158057   1.556   3.835   5.859 -0.5597  0.1834 -0.3053
12214TIP3    H258058   1.596   3.977   5.892  1.2522 -0.1651 -0.9735
12215TIP3   OH258059   1.442   5.445   4.666  0.0300 -0.6461 -0.4021
12215TIP3    H158060   1.351   5.430   4.641  0.0274  1.0260 -1.4587
12215TIP3    H258061   1.438   5.519   4.727  0.6858 -0.6154 -0.3940
12216TIP3   OH258062   3.041   0.300  12.295  0.2476  0.3225  0.3436
12216TIP3    H158063   3.034   0.251  12.377  0.5297 -1.9933 -0.9690
12216TIP3    H258064   2.968   0.269  12.242  0.9152  0.7291 -0.8372
12217TIP3   OH258065   3.334   6.407  13.064 -0.3992  0.4023 -0.0953
12217TIP3    H158066   3.249   6.416  13.106 -0.8050 -0.6159 -0.6770
12217TIP3    H258067   3.336   6.316  13.033  0.8103  0.4804 -0.2689
12218TIP3   OH258068   1.897   4.796   3.097  0.8457 -0.5826  0.9022
12218TIP3    H158069   1.897   4.731   3.168  0.6991 -0.8559  0.6504
12218TIP3    H258070   1.823   4.771   3.042 -0.4166  0.9358  1.8471
12219TIP3   OH258071   2.856   1.043   4.995 -0.5894 -0.1568  0.9309
12219TIP3    H158072   2.775   1.020   4.950 -0.2895  0.9027 -0.1756
12219TIP3    H258073   2.890   0.959   5.028  0.4439 -1.3558 -2.9377
12220TIP3   OH258074   2.927   2.238   0.511 -0.0947 -0.1840 -0.3746
12220TIP3    H158075   2.881   2.157   0.533  0.0402 -0.2273 -0.2491
12220TIP3    H258076   3.014   2.210   0.483 -0.2785 -0.1289 -0.9937
12221TIP3   OH258077   0.372   2.826  13.692 -0.2635 -0.1088 -0.1952
12221TIP3    H158078   0.371   2.887  13.618  1.6367  0.0369 -0.1169
12221TIP3    H258079   0.445   2.766  13.673 -0.7077 -0.9952  0.8220
12222TIP3   OH258080   6.250   5.160  11.211 -0.2453  0.3555  0.0813
12222TIP3    H158081   6.232   5.170  11.305  1.1278 -0.5522  0.4643
12222TIP3    H258082   6.330   5.211  11.197  0.7684 -1.2679 -0.1334
12223TIP3   OH258083   4.984   1.805   3.439  0.3847  0.0226  0.3222
12223TIP3    H158084   4.941   1.851   3.511 -0.2780 -1.1671  0.7081
12223TIP3    H258085   5.027   1.730   3.481  0.6750 -0.2254 -0.4047
12224TIP3   OH258086   0.055   3.036  16.752 -0.5535  0.2722 -0.0391
12224TIP3    H158087  -0.014   3.017  16.816 -0.7076 -0.3867 -0.3976
12224TIP3    H258088   0.028   2.990  16.673  0.5286 -0.3740 -0.0450
12225TIP3   OH258089   5.515   5.558  12.132 -0.4963 -0.0748 -0.3399
12225TIP3    H158090   5.460   5.634  12.112 -0.1734  0.4217  0.5798
12225TIP3    H258091   5.597   5.575  12.086 -0.1688  0.4980  0.4338
12226TIP3   OH258092   3.819   1.030  17.073 -0.3035  0.2094 -0.2662
12226TIP3    H158093   3.774   1.077  17.144  1.7332  2.1780 -0.1963
12226TIP3    H258094   3.776   1.059  16.993 -0.3614  0.6544 -0.0767
12227TIP3   OH258095   0.973   6.609   1.922 -0.0471  0.4090  0.0257
12227TIP3    H158096   1.029   6.663   1.977  2.1994 -0.5774 -1.2426
12227TIP3    H258097   0.991   6.639   1.832 -1.6048  0.1193 -0.4030
12228TIP3   OH258098   1.701   2.333   4.424  0.1045  0.5216  0.4595
12228TIP3    H158099   1.690   2.238   4.414  0.0581  0.5220  0.5067
12228TIP3    H258100   1.699   2.347   4.518  1.4368  0.4134  0.5089
12229TIP3   OH258101   0.307   6.603  12.224  0.2699  0.2712  0.0746
12229TIP3    H158102   0.394   6.626  12.188  0.0635  0.3474 -0.3861
12229TIP3    H258103   0.246   6.636  12.158 -0.0512 -1.3356 -0.4571
12230TIP3   OH258104   3.249   6.417   5.162  0.6909  0.0854  0.0455
12230TIP3    H158105   3.169   6.377   5.196  0.1876 -1.2873 -2.5464
12230TIP3    H258106   3.320   6.372   5.208  0.0271 -1.1281 -0.0808
12231TIP3   OH258107   3.702   5.936   5.055 -0.2297  0.1441  0.4707
12231TIP3    H158108   3.726   5.927   5.147 -0.1902  0.7534  0.5203
12231TIP3    H258109   3.763   5.879   5.008  0.5983  0.8413  0.6940
12232TIP3   OH258110   5.120   3.264  12.432  0.0309 -0.0398  0.0537
12232TIP3    H158111   5.150   3.354  12.423  0.2010 -0.1421 -0.4300
12232TIP3    H258112   5.066   3.249  12.354 -0.3657 -0.2106  0.3609
12233TIP3   OH258113   2.374   2.139  15.450 -0.0291 -0.1350  0.1121
12233TIP3    H158114   2.455   2.090  15.441  0.1163 -0.3940  2.4282
12233TIP3    H258115   2.305   2.072  15.452 -0.0226 -0.1337  0.9942
12234TIP3   OH258116   1.261   5.566  11.315 -0.2493 -0.4078 -0.0431
12234TIP3    H158117   1.232   5.593  11.228 -0.0557 -0.9466 -0.2734
12234TIP3    H258118   1.186   5.520  11.352 -1.2637  2.0549  1.0821
12235TIP3   OH258119   4.033   6.003  14.713  0.2516  0.0328 -0.6474
12235TIP3    H158120   4.063   5.985  14.802 -1.5277  0.2942  0.0386
12235TIP3    H258121   3.972   5.932  14.693 -0.2845  0.6246 -1.1795
12236TIP3   OH258122   4.728   1.699  12.471  0.0733  0.6021  0.7274
12236TIP3    H158123   4.676   1.625  12.504  2.1784 -0.2601  2.2069
12236TIP3    H258124   4.667   1.747  12.415 -1.5282 -1.9102  0.2106
12237TIP3   OH258125   1.379   4.018  14.492  0.0889 -0.3417 -0.1724
12237TIP3    H158126   1.415   3.942  14.445 -1.1535  0.8226 -3.1199
12237TIP3    H258127   1.436   4.091  14.467 -1.2583  0.5142 -0.7898
12238TIP3   OH258128   1.387   2.851  16.920  0.3076 -0.1418 -0.3523
12238TIP3    H158129   1.446   2.793  16.872 -1.2838 -1.1326 -1.1591
12238TIP3    H258130   1.309   2.856  16.865 -0.7272  0.3901  1.1523
12239TIP3   OH258131   5.773   5.720  12.194  0.3873 -0.2624 -0.2831
12239TIP3    H158132   5.722   5.800  12.182 -2.1600 -1.7944 -0.0724
12239TIP3    H258133   5.787   5.687  12.106  2.1683  0.8098 -0.4306
12240TIP3   OH258134   2.882   4.678  15.127  0.3460  0.6694 -0.4655
12240TIP3    H158135   2.909   4.746  15.066  0.4233  1.4408  0.4148
12240TIP3    H258136   2.883   4.721  15.213 -0.6451 -0.1364 -0.0339
12241TIP3   OH258137   0.504   2.759  15.125 -0.2089  0.0290 -0.5961
12241TIP3    H158138   0.423   2.719  15.156  0.0119  1.5738  2.1570
12241TIP3    H258139   0.474   2.836  15.076 -0.5065 -1.4167 -2.7140
12242TIP3   OH258140   5.896   3.138  11.202  0.4892  0.1688  0.1210
12242TIP3    H158141   5.980   3.100  11.176  1.2094  1.0656  1.0899
12242TIP3    H258142   5.884   3.109  11.292 -1.9599 -2.8632 -1.0640
12243TIP3   OH258143   4.494   0.341   6.134  0.2132  0.5559  0.1574
12243TIP3    H158144   4.407   0.373   6.160  0.0275  1.2946 -1.2780
12243TIP3    H258145   4.535   0.313   6.215 -0.3894  2.6584  1.2198
12244TIP3   OH258146   1.054   2.801  15.464  0.2342 -0.5451  0.0061
12244TIP3    H158147   1.126   2.851  15.425  0.5480 -0.4291  0.7151
12244TIP3    H258148   0.975   2.845  15.434  0.4586 -0.7192 -0.8445
12245TIP3   OH258149   6.434   4.316  12.663  0.1173 -1.0248 -0.2145
12245TIP3    H158150   6.473   4.323  12.576  0.2344  0.4189 -0.0472
12245TIP3    H258151   6.355   4.262  12.649 -0.7185  0.4726 -1.4980
12246TIP3   OH258152   6.663   2.418   3.840 -0.0591  0.2257 -0.7341
12246TIP3    H158153   6.594   2.433   3.776 -0.6667  0.4905 -0.0107
12246TIP3    H258154   6.736   2.383   3.788 -0.3609  0.9446 -1.6537
12247TIP3   OH258155   2.720   5.757  12.259  0.1459 -0.2222  0.0742
12247TIP3    H158156   2.683   5.681  12.216  0.0060 -0.1741  0.1091
12247TIP3    H258157   2.755   5.724  12.341  0.9867 -0.4287 -0.3621
12248TIP3   OH258158   0.646   3.965  11.363  0.3404 -0.1554  0.4579
12248TIP3    H158159   0.588   3.890  11.377 -0.0982  0.4574  2.1186
12248TIP3    H258160   0.588   4.040  11.358  0.6648 -0.0766 -2.8205
12249TIP3   OH258161   3.061   4.687  16.746 -0.1397  0.8166  0.0979
12249TIP3    H158162   3.069   4.626  16.819 -0.5159 -0.7746 -1.1502
12249TIP3    H258163   2.992   4.649  16.691  0.5021  1.7053 -1.3426
12250TIP3   OH258164   0.449   0.535   5.554 -0.3824 -0.5290  0.2719
12250TIP3    H158165   0.374   0.493   5.594 -0.1982  0.8541  2.1319
12250TIP3    H258166   0.489   0.467   5.501 -1.5794 -1.9439  1.1485
12251TIP3   OH258167   3.051   2.788  16.926  0.0980 -0.0023 -0.0184
12251TIP3    H158168   3.133   2.831  16.905  0.8783 -0.4838  1.9278
12251TIP3    H258169   3.041   2.720  16.860 -0.4216  2.1723 -2.2489
12252TIP3   OH258170   3.026   4.530   0.069  0.1373  0.7215 -0.1144
12252TIP3    H158171   3.079   4.609   0.077  2.0267 -0.5975  0.7462
12252TIP3    H258172   3.002   4.526  -0.024 -2.9774  4.1397  0.4313
12253TIP3   OH258173   3.146   5.914  13.222  0.4607  0.1399 -0.1258
12253TIP3    H158174   3.213   5.857  13.185 -0.0790 -0.2616 -0.4678
12253TIP3    H258175   3.088   5.935  13.149 -1.2702 -1.5889  0.7122
12254TIP3   OH258176   2.806   0.809   1.150 -0.1493 -0.5670  0.0338
12254TIP3    H158177   2.896   0.777   1.160  0.2741  0.8800  1.0486
12254TIP3    H258178   2.775   0.767   1.070  1.8113 -0.2205 -0.9578
12255TIP3   OH258179   1.969   0.968   2.130  0.0267  0.1074 -0.0820
12255TIP3    H158180   1.994   1.021   2.207 -1.0273  0.4093  0.0597
12255TIP3    H258181   2.039   0.904   2.122  0.6986  0.7541  0.4931
12256TIP3   OH258182   4.674   0.465   1.264 -0.0401 -0.3323 -0.1664
12256TIP3    H158183   4.597   0.410   1.251 -1.0760  0.8350  0.8568
12256TIP3    H258184   4.680   0.475   1.359  0.2462  1.1598 -0.3310
12257TIP3   OH258185   5.895   2.014   1.326  0.5689 -0.5123 -0.0917
12257TIP3    H158186   5.855   2.096   1.296  2.0713 -0.1103 -1.0205
12257TIP3    H258187   5.929   2.035   1.413 -1.7949 -1.0445  0.9952
12258TIP3   OH258188   2.640   1.103   5.259 -0.2068  0.2964 -0.5525
12258TIP3    H158189   2.593   1.138   5.334 -2.2931 -1.1765 -1.1291
12258TIP3    H258190   2.711   1.166   5.244 -1.1666  1.8497  1.1754
12259TIP3   OH258191   6.405   0.094  12.136 -0.2243  0.3090  0.0520
12259TIP3    H158192   6.407   0.178  12.089 -2.4271 -0.3406 -1.2867
12259TIP3    H258193   6.313   0.084  12.161 -0.2346 -2.3222 -0.9243
12260TIP3   OH258194   2.980   3.657   3.751 -0.5757 -0.6354 -0.2759
12260TIP3    H158195   2.974   3.696   3.664 -0.7745  0.3814  0.1893
12260TIP3    H258196   2.890   3.659   3.784  0.0830  2.5893  1.5042
12261TIP3   OH258197   5.346   1.148  13.290  0.3024 -0.9729 -0.0976
12261TIP3    H158198   5.406   1.215  13.258  0.3116 -1.2832 -0.7516
12261TIP3    H258199   5.401   1.091  13.344  0.3145 -0.5115  0.3800
12262TIP3   OH258200   1.125   0.289   5.235 -0.2260  0.0664 -0.1855
12262TIP3    H158201   1.204   0.326   5.275  1.5344 -2.5227 -1.1225
12262TIP3    H258202   1.090   0.359   5.181  2.2055  0.8411 -0.8068
12263TIP3   OH258203   3.059   4.498   1.399  0.4435  0.5482 -0.2521
12263TIP3    H158204   3.032   4.412   1.369 -0.1643  0.7542 -0.2985
12263TIP3    H258205   3.141   4.515   1.353  0.5311  0.0246 -0.2903
12264TIP3   OH258206   3.646   1.620  12.254  0.2416 -0.3727 -0.0116
12264TIP3    H158207   3.642   1.702  12.205  0.7916 -0.5900 -0.4154
12264TIP3    H258208   3.567   1.572  12.228  2.0557 -1.8269 -3.0474
12265TIP3   OH258209   6.225   0.572  12.158 -0.0975  0.1707 -0.3833
12265TIP3    H158210   6.218   0.521  12.078 -0.9456  0.9452 -0.8146
12265TIP3    H258211   6.170   0.649  12.142  1.3692  1.3493  0.1520
12266TIP3   OH258212   4.103   3.463  14.046  0.2477  0.0797  0.0635
12266TIP3    H158213   4.080   3.512  13.968 -1.1533  0.1544  0.5215
12266TIP3    H258214   4.148   3.526  14.102  1.9542 -0.1625 -0.9731
12267TIP3   OH258215   2.305   4.519   2.326 -0.2990 -0.1985 -0.0023
12267TIP3    H158216   2.365   4.490   2.395  0.0171  2.9143  1.1386
12267TIP3    H258217   2.362   4.554   2.258 -0.7206  1.7906  0.6231
12268TIP3   OH258218   4.376   2.941   3.644  0.3202  0.1069  0.1288
12268TIP3    H158219   4.340   3.022   3.680 -0.6464 -0.0106 -0.5656
12268TIP3    H258220   4.411   2.967   3.559 -0.7478 -0.3694 -0.4627
12269TIP3   OH258221   0.582   1.656  11.227  0.4599 -0.2186  0.2484
12269TIP3    H158222   0.548   1.677  11.314 -2.2976 -1.0304 -0.5576
12269TIP3    H258223   0.646   1.724  11.209  0.7572  0.2052  2.7326
12270TIP3   OH258224   4.022   4.120  13.157  0.1092  0.9009 -0.3310
12270TIP3    H158225   4.069   4.071  13.225 -1.4373 -0.7829 -0.4293
12270TIP3    H258226   3.985   4.196  13.203  0.2170  0.4993  0.4184
12271TIP3   OH258227   1.317   0.926  15.728  0.0330 -0.5790 -0.2799
12271TIP3    H158228   1.348   0.859  15.667 -0.2709 -1.0043  0.0311
12271TIP3    H258229   1.343   0.894  15.814  1.6935  0.6852 -0.2803
12272TIP3   OH258230   1.938   3.989   0.086  0.2091 -0.4085  0.0751
12272TIP3    H158231   2.031   4.009   0.089 -0.4704  2.8368  2.3855
12272TIP3    H258232   1.922   3.934   0.163  0.1361 -0.6118 -0.0838
12273TIP3   OH258233   5.895   5.386  15.987 -0.3473  0.3682  0.3879
12273TIP3    H158234   5.927   5.469  15.952 -1.3264  0.5113 -0.1722
12273TIP3    H258235   5.931   5.320  15.928 -0.4629  0.4721  0.2021
12274TIP3   OH258236   3.292   5.983  11.540  0.3938  0.2477  0.0898
12274TIP3    H158237   3.263   6.057  11.487 -1.4835  1.3646  2.5778
12274TIP3    H258238   3.352   5.934  11.483  0.1445  2.5931 -2.2541
12275TIP3   OH258239   1.127   1.372  15.017  0.1103  0.1175 -0.6680
12275TIP3    H158240   1.172   1.310  14.961  1.0816  2.0085 -2.0413
12275TIP3    H258241   1.196   1.407  15.075  0.0552  1.5342 -1.4230
12276TIP3   OH258242   6.505   2.615  15.537  0.4646 -0.4085  0.4666
12276TIP3    H158243   6.522   2.521  15.532 -0.8160 -0.6900  1.1638
12276TIP3    H258244   6.506   2.644  15.446 -2.6937 -1.7723 -0.0598
12277TIP3   OH258245   4.709   6.625  10.739 -0.2769  0.2440  0.1620
12277TIP3    H158246   4.696   6.539  10.698  1.4798 -0.9953  2.0588
12277TIP3    H258247   4.727   6.684  10.666 -0.5969 -1.1979 -1.1110
12278TIP3   OH258248   3.769   2.374   5.442 -0.4854  0.2006 -0.1120
12278TIP3    H158249   3.767   2.357   5.536  0.7090  0.9890  0.0755
12278TIP3    H258250   3.853   2.418   5.428  0.1889 -1.5316 -1.8141
12279TIP3   OH258251   6.586   3.619  14.638 -0.0097  0.3959 -0.2361
12279TIP3    H158252   6.499   3.614  14.678 -0.5144 -0.6569 -1.4209
12279TIP3    H258253   6.576   3.682  14.567 -0.1423 -0.6949 -1.1891
12280TIP3   OH258254   5.091   4.620   1.350 -0.1108 -0.4237  0.2910
12280TIP3    H158255   5.168   4.632   1.294 -0.7314 -1.0234 -0.7065
12280TIP3    H258256   5.124   4.576   1.428  1.0871  2.0431  1.2229
12281TIP3   OH258257   6.086   2.065   5.295 -0.3967 -0.0007  0.1555
12281TIP3    H158258   6.118   2.065   5.385  2.1838 -1.5128 -0.7155
12281TIP3    H258259   6.095   2.155   5.265  1.4052 -0.0511  0.5126
12282TIP3   OH258260   0.250   4.620  14.728 -0.0116 -0.0927 -0.2171
12282TIP3    H158261   0.278   4.528  14.729 -0.7729 -0.3136  1.2275
12282TIP3    H258262   0.268   4.649  14.638 -0.4792 -1.8653 -0.8974
12283TIP3   OH258263   0.413   5.035  10.499  0.0088  0.5832 -0.1914
12283TIP3    H158264   0.474   5.083  10.555 -1.5907  0.4312  1.7243
12283TIP3    H258265   0.371   5.102  10.445 -0.5519  1.0612  0.8436
12284TIP3   OH258266   3.000   6.216   5.726  0.0446  0.7715  0.2606
12284TIP3    H158267   3.073   6.177   5.775 -1.8222 -1.2070  1.6042
12284TIP3    H258268   3.013   6.186   5.636 -0.0253 -1.0174  0.8207
12285TIP3   OH258269   1.246   3.419  16.165  0.2331 -0.0751 -0.2976
12285TIP3    H158270   1.327   3.459  16.134 -0.3680  0.1149 -1.7218
12285TIP3    H258271   1.239   3.337  16.116 -1.2075  0.6727 -1.4087
12286TIP3   OH258272   2.248   1.882  13.102  0.3092  0.2106  0.1575
12286TIP3    H158273   2.234   1.826  13.025 -1.0101  0.4885  0.1714
12286TIP3    H258274   2.214   1.830  13.175  1.6344 -0.0825  0.5633
12287TIP3   OH258275   0.724   4.168   1.209 -0.1832 -0.4996  0.9758
12287TIP3    H158276   0.737   4.200   1.120 -1.5085 -0.6194  0.7357
12287TIP3    H258277   0.811   4.141   1.238  0.8071  2.3400  0.7928
12288TIP3   OH258278   6.125   6.444   1.450 -0.3526  0.4424 -0.0252
12288TIP3    H158279   6.172   6.367   1.480 -0.7960 -0.3049 -1.2194
12288TIP3    H258280   6.097   6.489   1.530  0.1844 -0.4591  0.6656
12289TIP3   OH258281   5.478   2.986   5.882 -0.3770 -0.3508  0.3931
12289TIP3    H158282   5.456   2.948   5.967  0.2442 -1.2058  0.1835
12289TIP3    H258283   5.546   2.928   5.847 -1.2367 -0.5175 -1.0648
12290TIP3   OH258284   3.479   3.871   4.254  0.3289  0.4043 -0.4862
12290TIP3    H158285   3.472   3.958   4.293 -0.2180 -0.2932  1.0206
12290TIP3    H258286   3.442   3.881   4.166  1.0695  1.8754 -0.6470
12291TIP3   OH258287   3.256   5.044   4.690 -0.5114 -0.6720  0.5694
12291TIP3    H158288   3.343   5.014   4.720 -0.2127 -0.1912  0.1871
12291TIP3    H258289   3.201   5.037   4.768  0.3350  0.8914  1.3453
12292TIP3   OH258290   4.927   4.898  16.474 -0.5674  0.0511 -0.2258
12292TIP3    H158291   4.847   4.874  16.520  0.1319 -1.4093  0.2777
12292TIP3    H258292   4.945   4.823  16.417  0.7167  0.1213  0.0695
12293TIP3   OH258293   5.413   3.456  14.718  0.1432  0.3586 -0.0149
12293TIP3    H158294   5.420   3.441  14.812  2.6647  0.0285 -0.2172
12293TIP3    H258295   5.334   3.509  14.708 -0.2807  0.2104  2.2567
12294TIP3   OH258296   0.528   1.870  14.296 -0.0572  0.4532  0.0267
12294TIP3    H158297   0.615   1.911  14.301  0.2013 -0.0696 -0.1182
12294TIP3    H258298   0.502   1.881  14.204  0.5889 -0.8550 -0.3333
12295TIP3   OH258299   6.247   3.047   3.809  0.6765  0.7894 -0.4144
12295TIP3    H158300   6.274   3.138   3.815  2.4270  0.2349  0.4061
12295TIP3    H258301   6.329   2.997   3.812 -0.3033 -0.8393  0.0194
12296TIP3   OH258302   1.211   3.461   1.636  0.1332 -0.0321 -0.3104
12296TIP3    H158303   1.195   3.551   1.607 -1.0838 -0.4809 -1.0943
12296TIP3    H258304   1.288   3.433   1.586 -0.1611  0.2081 -0.9099
12297TIP3   OH258305   4.926   0.463  11.603 -0.0555 -0.6036 -0.4167
12297TIP3    H158306   5.016   0.430  11.597  0.1706 -0.0761  0.0372
12297TIP3    H258307   4.898   0.471  11.512  1.0516  1.0870 -0.6543
12298TIP3   OH258308   0.346   5.995   2.691  0.0755 -0.0079  0.6952
12298TIP3    H158309   0.368   5.919   2.638 -1.5044 -0.5221  0.7619
12298TIP3    H258310   0.398   6.066   2.654  1.4515 -1.0730  0.5403
12299TIP3   OH258311   2.600   5.375  16.008  0.5261 -0.2873  0.7816
12299TIP3    H158312   2.667   5.335  16.063 -0.0038  1.8430  3.0518
12299TIP3    H258313   2.620   5.468  16.010 -0.1947 -0.0540 -1.7381
12300TIP3   OH258314   5.266   4.612  14.009 -0.3328 -0.4510 -0.1746
12300TIP3    H158315   5.236   4.613  13.917  2.3705 -0.4812 -1.0989
12300TIP3    H258316   5.217   4.683  14.051 -0.8356  0.2596 -1.9042
12301TIP3   OH258317   5.800   5.136   4.987 -0.5737  0.1597  0.3969
12301TIP3    H158318   5.832   5.214   4.941  1.1795 -0.3727  0.7172
12301TIP3    H258319   5.871   5.073   4.981 -1.8758 -1.3402  0.3900
12302TIP3   OH258320   5.533   6.062   0.152  0.3144  0.3986 -0.1606
12302TIP3    H158321   5.442   6.032   0.161  0.1606  0.9723  0.2487
12302TIP3    H258322   5.551   6.058   0.058 -0.1814  0.4038 -0.2559
12303TIP3   OH258323   3.771   5.892  12.214 -0.5123 -0.1185 -0.1244
12303TIP3    H158324   3.707   5.951  12.174 -0.9630 -0.1379  0.5670
12303TIP3    H258325   3.727   5.807  12.216 -0.0324 -0.3816 -0.7046
12304TIP3   OH258326   4.508   0.880   1.261 -0.5941  0.3181  0.1222
12304TIP3    H158327   4.442   0.813   1.283 -0.4198  0.1098  0.0172
12304TIP3    H258328   4.464   0.937   1.199 -0.1018 -0.8526 -1.3367
12305TIP3   OH258329   3.549   6.624   1.081 -0.4392  0.1432 -0.3334
12305TIP3    H158330   3.476   6.615   1.019  0.5770 -0.2616 -1.5099
12305TIP3    H258331   3.557   6.718   1.095 -0.8037  0.2313 -0.6946
12306TIP3   OH258332   4.337   6.406   1.310  0.2432  0.1323  0.0285
12306TIP3    H158333   4.303   6.320   1.286 -2.5373  1.2285 -0.0489
12306TIP3    H258334   4.427   6.406   1.276  0.3160 -2.7522  0.1116
12307TIP3   OH258335   5.567   1.155   6.320 -0.2592 -0.2984  0.2958
12307TIP3    H158336   5.501   1.221   6.342  0.4484  0.3211  0.5920
12307TIP3    H258337   5.639   1.205   6.282 -1.2211 -1.2976 -3.0035
12308TIP3   OH258338   5.634   5.152   3.787  0.0019  0.5452  0.3455
12308TIP3    H158339   5.659   5.079   3.731  1.9312  1.0707  0.4684
12308TIP3    H258340   5.623   5.112   3.874  3.6303  0.7531  0.9740
12309TIP3   OH258341   6.149   2.868  15.519 -0.1447  0.1329 -0.8116
12309TIP3    H158342   6.173   2.846  15.429 -1.5775  0.2538 -1.2409
12309TIP3    H258343   6.185   2.797  15.571 -0.5461 -0.7109 -1.6540
12310TIP3   OH258344   2.779   1.170   0.827  0.2567  0.0684 -0.3095
12310TIP3    H158345   2.744   1.173   0.916 -0.6477 -1.1795 -0.6114
12310TIP3    H258346   2.863   1.123   0.837  0.6881  0.8980  0.0382
12311TIP3   OH258347   6.085   1.261  14.684  0.6020  0.0160 -0.0100
12311TIP3    H158348   6.022   1.263  14.612 -1.0124 -2.2296  1.2904
12311TIP3    H258349   6.151   1.198  14.656  0.4390 -0.2156  0.1373
12312TIP3   OH258350   1.869   3.198  12.837 -0.2872  0.3657 -0.0831
12312TIP3    H158351   1.824   3.255  12.899  0.3288  0.6129  0.1417
12312TIP3    H258352   1.959   3.231  12.835 -0.1382 -0.0621 -0.6008
12313TIP3   OH258353   0.142   4.589   5.778 -0.2037  0.2074  0.2126
12313TIP3    H158354   0.233   4.610   5.756 -0.4390  1.6423  0.5772
12313TIP3    H258355   0.142   4.494   5.788  0.6421 -0.1297 -2.6107
12314TIP3   OH258356   4.777   5.082  15.752 -0.3071 -0.0857 -0.4097
12314TIP3    H158357   4.849   5.112  15.697  0.9968 -1.2080  0.6383
12314TIP3    H258358   4.764   5.151  15.817  1.6269 -1.0123  1.0226
12315TIP3   OH258359   3.720   2.872  10.938  0.0935  0.3577  0.6030
12315TIP3    H158360   3.686   2.961  10.949  0.5656  0.8584 -1.7032
12315TIP3    H258361   3.811   2.885  10.911 -0.7241 -0.6815 -2.9895
12316TIP3   OH258362   6.169   4.740  16.161  0.1700 -0.1517  0.0095
12316TIP3    H158363   6.229   4.748  16.086  2.6044 -2.1238  1.6999
12316TIP3    H258364   6.085   4.770  16.126  1.5478  0.3369 -3.1251
12317TIP3   OH258365   1.327   0.803  15.971 -0.2569  0.2299  0.3527
12317TIP3    H158366   1.234   0.792  15.994 -0.4321  0.4635 -0.2361
12317TIP3    H258367   1.367   0.840  16.050 -0.6675  0.1487  0.6014
12318TIP3   OH258368   1.089   5.949   1.958 -0.3289 -0.0995  0.9769
12318TIP3    H158369   1.011   5.926   1.907  0.3895 -0.9623  0.2537
12318TIP3    H258370   1.079   6.042   1.978 -1.7088 -0.2817  1.1763
12319TIP3   OH258371   5.102   1.565  14.537  0.1631 -0.3813 -0.1698
12319TIP3    H158372   5.125   1.498  14.472 -0.3419 -1.7202  1.0184
12319TIP3    H258373   5.039   1.621  14.492  1.3986 -0.0493 -1.5347
12320TIP3   OH258374   2.623   1.376   5.340  0.3737  0.0449 -1.0620
12320TIP3    H158375   2.554   1.392   5.405  1.7022 -1.0033  0.6402
12320TIP3    H258376   2.683   1.451   5.350  0.7802 -0.3142 -0.8227
12321TIP3   OH258377   1.611   0.651   5.606  0.7624  0.3047  0.5791
12321TIP3    H158378   1.658   0.625   5.685 -2.1339 -0.3053  2.1585
12321TIP3    H258379   1.585   0.569   5.565  1.5318  0.6315 -0.5755
12322TIP3   OH258380   5.980   2.081   1.609 -0.2154 -0.0160 -0.5371
12322TIP3    H158381   5.950   2.141   1.677 -1.2757 -0.5103 -0.5607
12322TIP3    H258382   5.949   1.995   1.637 -1.1090 -0.1572 -1.8829
12323TIP3   OH258383   4.064   0.604  11.786 -0.3078 -0.4776  0.4661
12323TIP3    H158384   3.996   0.543  11.756  0.7562 -2.7003  2.3748
12323TIP3    H258385   4.018   0.663  11.846 -1.3257  0.5900 -1.3062
12324TIP3   OH258386   6.051   5.658  13.051 -0.4964 -0.2317  0.5230
12324TIP3    H158387   6.144   5.640  13.044 -0.0899  2.3716 -1.7939
12324TIP3    H258388   6.012   5.577  13.083  2.2809 -2.0292 -0.5222
12325TIP3   OH258389   4.096   0.767  14.615  1.0562 -1.1153  0.0607
12325TIP3    H158390   4.048   0.723  14.545  0.2134  0.1086 -0.1433
12325TIP3    H258391   4.177   0.716  14.624 -0.1180 -3.0100  0.1951
12326TIP3   OH258392   3.198   5.571  12.621 -0.0370  0.0191  0.5798
12326TIP3    H158393   3.265   5.546  12.556  0.5603  1.9961  0.4112
12326TIP3    H258394   3.118   5.580  12.570 -0.3102 -1.6837  0.6722
12327TIP3   OH258395   6.129   5.328  10.504 -0.5882  0.5169  0.2873
12327TIP3    H158396   6.066   5.310  10.573 -1.1558  0.2901 -0.2847
12327TIP3    H258397   6.082   5.384  10.442  0.5394  2.3354  1.0557
12328TIP3   OH258398   5.235   0.983   4.638 -0.0884  0.0902  0.4830
12328TIP3    H158399   5.277   0.989   4.724  1.2406 -2.6092  0.1005
12328TIP3    H258400   5.209   0.891   4.631 -0.7581  0.4175 -1.7550
12329TIP3   OH258401   1.807   2.098  15.539 -0.0689 -0.1465  0.7382
12329TIP3    H158402   1.730   2.051  15.570 -1.4622 -0.1148 -2.4493
12329TIP3    H258403   1.773   2.181  15.505  1.8935  1.6054  2.8669
12330TIP3   OH258404   0.098   5.627  15.588 -0.2074  0.2609  0.0616
12330TIP3    H158405   0.076   5.553  15.646  0.9183 -0.1952 -0.0731
12330TIP3    H258406   0.123   5.697  15.649  1.6457 -0.4328  0.1571
12331TIP3   OH258407   0.246   5.236   0.836 -0.1564  0.4210  0.1129
12331TIP3    H158408   0.271   5.270   0.750 -0.1369  1.6497  0.5937
12331TIP3    H258409   0.303   5.282   0.897  0.0570 -0.6918  0.7634
12332TIP3   OH258410   6.497   5.387   4.486  0.3248  0.1782 -0.5157
12332TIP3    H158411   6.526   5.416   4.573 -0.4637  3.5386 -1.3513
12332TIP3    H258412   6.567   5.415   4.427 -0.2934  0.0379 -1.3193
12333TIP3   OH258413   0.733   1.887  15.251 -0.3718 -0.4839  0.0296
12333TIP3    H158414   0.768   1.835  15.179  2.5090  0.2111  0.8545
12333TIP3    H258415   0.698   1.966  15.208 -0.6023 -1.0183 -0.7841
12334TIP3   OH258416   4.779   1.942   5.831 -0.2206 -0.5492 -0.2173
12334TIP3    H158417   4.803   2.031   5.859 -0.8936 -0.7520  1.0684
12334TIP3    H258418   4.698   1.924   5.879 -0.4066 -1.6288 -0.9438
12335TIP3   OH258419   2.994   5.830   3.161 -1.0009  0.1729 -0.5695
12335TIP3    H158420   2.997   5.766   3.089 -0.0826  0.3960 -0.7335
12335TIP3    H258421   3.083   5.863   3.167 -0.5326 -1.4392  2.1103
12336TIP3   OH258422   0.072   4.060  13.200 -0.9776  0.3260 -0.2055
12336TIP3    H158423   0.137   4.114  13.156 -2.4253  1.5005 -0.9469
12336TIP3    H258424   0.066   3.981  13.147 -0.4574  0.3906 -0.3593
12337TIP3   OH258425   3.087   5.564  16.243  0.2201  0.2575  0.3204
12337TIP3    H158426   3.078   5.477  16.282  3.1466 -0.7579 -1.1012
12337TIP3    H258427   3.112   5.621  16.316  1.5702 -0.7875  0.7005
12338TIP3   OH258428   0.566   1.400   3.437 -0.0822  1.0238 -0.0444
12338TIP3    H158429   0.619   1.463   3.485  1.1954  0.1970 -0.3562
12338TIP3    H258430   0.581   1.316   3.481  1.0598  0.2633 -1.8091
12339TIP3   OH258431   2.523   2.731  13.999 -0.4791  0.1320  0.2959
12339TIP3    H158432   2.528   2.719  13.904  0.3104  0.8394  0.2433
12339TIP3    H258433   2.544   2.823  14.013  3.5235 -0.8766  1.4755
12340TIP3   OH258434   3.105   4.335   3.864  0.2174 -0.0516 -0.0028
12340TIP3    H158435   3.024   4.387   3.858  0.3594  0.1651 -0.0692
12340TIP3    H258436   3.150   4.371   3.941 -0.5911 -1.3734  1.0956
12341TIP3   OH258437   2.910   5.447   2.248 -0.2337 -0.3282  0.1096
12341TIP3    H158438   2.864   5.528   2.271  1.8325  0.9350 -0.0854
12341TIP3    H258439   2.883   5.429   2.158 -1.4653 -0.3971  0.4908
12342TIP3   OH258440   0.505   6.285  15.757 -0.4033  0.2244  0.1522
12342TIP3    H158441   0.412   6.271  15.773 -0.1929 -0.7508  0.6176
12342TIP3    H258442   0.542   6.300  15.844 -0.0367 -0.0324  0.0461
12343TIP3   OH258443   3.294   0.671  15.110  0.1428 -0.2544 -0.3681
12343TIP3    H158444   3.284   0.688  15.204  1.3364 -0.3541 -0.2117
12343TIP3    H258445   3.247   0.588  15.096  1.3119 -1.0804  0.4603
12344TIP3   OH258446   1.749   0.746  15.522  0.4875  0.5323 -0.4974
12344TIP3    H158447   1.783   0.666  15.483  0.7547  1.3157 -1.9012
12344TIP3    H258448   1.826   0.801  15.537  0.3141  0.5195  0.5104
12345TIP3   OH258449   4.708   5.538  12.727 -0.1271 -0.8464  0.2520
12345TIP3    H158450   4.628   5.565  12.772  1.0574  1.0335  1.3340
12345TIP3    H258451   4.699   5.575  12.639 -0.3073 -0.3238  0.4844
12346TIP3   OH258452   0.560   0.562  14.272 -0.2765  0.1316 -0.1683
12346TIP3    H158453   0.592   0.510  14.346 -0.3506  0.9796  0.4735
12346TIP3    H258454   0.621   0.542  14.201  0.1295 -0.2691  0.2836
12347TIP3   OH258455   0.506   5.731  12.881  0.6599 -0.4579 -0.1834
12347TIP3    H158456   0.527   5.652  12.831 -0.3278 -0.4307 -0.6433
12347TIP3    H258457   0.537   5.803  12.825 -1.4413 -0.3773 -1.2747
12348TIP3   OH258458   3.451   6.485   3.255 -0.0568 -0.7701  0.2460
12348TIP3    H158459   3.499   6.403   3.260  0.5427 -0.4592 -0.2415
12348TIP3    H258460   3.459   6.512   3.163  1.7865  1.0093  0.8774
12349TIP3   OH258461   3.266   4.594   3.965  0.1531  0.1276  0.2072
12349TIP3    H158462   3.216   4.596   4.046  0.5673 -0.3325  0.4805
12349TIP3    H258463   3.201   4.605   3.895 -0.5577 -2.2756  0.4604
12350TIP3   OH258464   6.145   4.088  11.482 -0.3537  0.3323 -0.1061
12350TIP3    H158465   6.050   4.097  11.473 -0.1053  2.0289 -1.1733
12350TIP3    H258466   6.172   4.045  11.401 -0.4891 -2.4166  1.2656
12351TIP3   OH258467   5.495   0.344  13.055 -0.0652  0.3241  0.7147
12351TIP3    H158468   5.573   0.396  13.075  0.6771  0.0761 -1.4618
12351TIP3    H258469   5.425   0.387  13.105  1.1184  1.5372  1.3964
12352TIP3   OH258470   1.911   0.259   1.137  0.6138 -0.1291 -0.0327
12352TIP3    H158471   1.917   0.226   1.048  1.0106 -2.7740  0.9162
12352TIP3    H258472   1.825   0.230   1.168  0.0127  1.7405  0.0905
12353TIP3   OH258473   4.735   4.087   5.830 -0.1796 -0.1556 -0.1762
12353TIP3    H158474   4.717   4.023   5.761 -0.3760 -0.6236  0.2955
12353TIP3    H258475   4.823   4.119   5.811 -0.9522  1.0914 -1.6909
12354TIP3   OH258476   1.249   5.687   4.108  0.5505  0.6066 -0.0158
12354TIP3    H158477   1.304   5.754   4.068  0.8776  0.8186  0.7776
12354TIP3    H258478   1.277   5.684   4.200 -0.4246  0.3728  0.2824
12355TIP3   OH258479   1.163   3.813   2.176  0.3801 -0.5797  0.0424
12355TIP3    H158480   1.104   3.814   2.251  1.6007 -0.1805  1.0278
12355TIP3    H258481   1.123   3.873   2.113  0.3207  0.5933  1.1684
12356TIP3   OH258482   5.700   3.081   0.917  0.1881 -0.2652 -0.1721
12356TIP3    H158483   5.609   3.067   0.942 -0.6033  1.5992 -1.7898
12356TIP3    H258484   5.728   3.156   0.970  0.3809 -0.0935 -0.5094
12357TIP3   OH258485   2.263   6.397   2.412 -0.2599 -0.0674 -0.5395
12357TIP3    H158486   2.192   6.351   2.368  1.1821  0.3232 -3.3836
12357TIP3    H258487   2.306   6.448   2.343  1.2139  1.6960  1.5914
12358TIP3   OH258488   6.069   0.638   1.322  0.6592 -0.0437  0.2453
12358TIP3    H158489   6.151   0.675   1.290  0.3800  0.7966  0.4799
12358TIP3    H258490   6.017   0.624   1.243  0.3919  0.9918  0.2277
12359TIP3   OH258491   0.287   3.313   0.106 -0.7317 -0.2196 -0.3569
12359TIP3    H158492   0.194   3.290   0.116 -1.2427  1.3426 -1.2129
12359TIP3    H258493   0.323   3.246   0.049 -1.1911 -1.1635  0.4478
12360TIP3   OH258494   4.187   4.116   0.181 -0.1310  0.0672 -0.3816
12360TIP3    H158495   4.108   4.161   0.150 -0.3051  0.3329  0.4253
12360TIP3    H258496   4.222   4.174   0.249  0.7283 -0.0766 -0.6915
12361TIP3   OH258497   3.742   4.174  13.663  0.0627 -0.3622 -0.7160
12361TIP3    H158498   3.710   4.087  13.687  0.2503 -0.6364 -1.4349
12361TIP3    H258499   3.806   4.157  13.594  0.5817  0.3001 -0.4003
12362TIP3   OH258500   5.669   1.403  12.714 -0.4030  0.2753 -0.1460
12362TIP3    H158501   5.715   1.473  12.669  2.3048 -0.3189  1.5473
12362TIP3    H258502   5.716   1.323  12.689 -1.8003 -0.6243  0.0269
12363TIP3   OH258503   0.371   6.595  15.453  0.3527 -0.0408 -0.3718
12363TIP3    H158504   0.377   6.678  15.500  1.1896 -0.7421  0.7604
12363TIP3    H258505   0.389   6.618  15.362 -1.6195  1.3842 -0.4382
12364TIP3   OH258506   3.889   6.106   4.909  0.0211  0.0091 -0.3340
12364TIP3    H158507   3.926   6.074   4.827 -0.9269 -0.3506 -0.6222
12364TIP3    H258508   3.851   6.029   4.950  1.3901 -0.0089  0.9380
12365TIP3   OH258509   6.632   6.282   3.597 -0.7837 -0.4948 -0.1619
12365TIP3    H158510   6.682   6.346   3.648 -0.1052 -0.6872 -0.5751
12365TIP3    H258511   6.579   6.336   3.538  0.5330 -0.3224 -1.2037
12366TIP3   OH258512   1.425   2.471   5.424  0.2174  0.4652 -0.5463
12366TIP3    H158513   1.491   2.539   5.440 -0.2616  0.9205 -0.4965
12366TIP3    H258514   1.351   2.496   5.480  0.3937 -0.6110  0.1863
12367TIP3   OH258515   4.644   3.727  16.531  0.1488  0.5537 -0.1700
12367TIP3    H158516   4.705   3.722  16.605 -0.3334  1.7732  0.3235
12367TIP3    H258517   4.623   3.635  16.511  0.5541  0.2006  0.9775
12368TIP3   OH258518   1.086   1.240   2.826  0.0707 -0.1673 -0.3173
12368TIP3    H158519   1.176   1.249   2.795  0.6543 -0.5760  1.1892
12368TIP3    H258520   1.066   1.325   2.864  0.3606 -0.5281  0.6711
12369TIP3   OH258521   5.735   4.626   5.092  0.3908  0.5236  0.0432
12369TIP3    H158522   5.669   4.605   5.159  0.2446 -0.2545 -0.3364
12369TIP3    H258523   5.694   4.695   5.040  0.2236  0.6513  0.3398
12370TIP3   OH258524   0.216   2.508  14.123  1.0687 -0.1527 -0.1475
12370TIP3    H158525   0.296   2.559  14.111  0.4651  0.3099 -2.6477
12370TIP3    H258526   0.181   2.536  14.207  2.6449  0.8708  0.1864
12371TIP3   OH258527   0.814   5.904  13.217 -0.4486  0.6702 -0.1948
12371TIP3    H158528   0.859   5.830  13.258 -2.2169 -1.0132 -1.2624
12371TIP3    H258529   0.778   5.953  13.291 -0.6016 -0.3901  0.4423
12372TIP3   OH258530   0.503   4.887  13.342  0.0108 -0.3236  0.1014
12372TIP3    H158531   0.528   4.839  13.263 -0.8308  0.0698 -0.4125
12372TIP3    H258532   0.537   4.834  13.414  0.5998 -0.7951 -0.5181
12373TIP3   OH258533   5.703   6.006  16.853  0.1675  0.1771  0.2346
12373TIP3    H158534   5.639   6.036  16.918  0.6969  1.3197  0.2378
12373TIP3    H258535   5.787   6.006  16.900  0.3028 -0.4982 -0.0044
12374TIP3   OH258536   6.675   1.233   3.726 -0.0026 -0.7020  0.1463
12374TIP3    H158537   6.759   1.250   3.769 -0.2404  1.0656 -0.0291
12374TIP3    H258538   6.641   1.154   3.768  1.8334 -1.5483  0.0832
12375TIP3   OH258539   1.044   4.282  17.211  0.1766  0.3640  0.3605
12375TIP3    H158540   0.978   4.230  17.164  0.8553  0.8677 -1.1715
12375TIP3    H258541   1.006   4.296  17.298 -0.7243 -1.3190  0.2633
12376TIP3   OH258542   5.568   0.658   0.840 -0.1690  0.2753  0.3986
12376TIP3    H158543   5.648   0.613   0.817 -1.2454 -1.7562  0.5318
12376TIP3    H258544   5.559   0.646   0.935  0.3600  2.1666  0.7098
12377TIP3   OH258545   2.115   1.930   0.796  0.0784 -0.1506  0.4516
12377TIP3    H158546   2.103   2.010   0.746 -0.1013  0.1871  1.0311
12377TIP3    H258547   2.033   1.919   0.845 -0.0521 -0.9007  0.0748
12378TIP3   OH258548   3.586   2.053  15.486  0.1355  0.7911  0.8174
12378TIP3    H158549   3.661   2.110  15.505  1.8521 -0.7652 -1.0726
12378TIP3    H258550   3.624   1.966  15.477 -1.9355 -0.0499  0.0043
12379TIP3   OH258551   1.405   3.293   5.956  0.4539  0.4565 -0.0358
12379TIP3    H158552   1.322   3.246   5.970 -0.5839  2.1539 -0.2724
12379TIP3    H258553   1.458   3.272   6.032 -1.0512  1.0908  1.2154
12380TIP3   OH258554   2.286   0.880  14.956  1.0159 -0.0748 -1.0923
12380TIP3    H158555   2.248   0.815  15.015 -0.6726 -1.7480 -3.9500
12380TIP3    H258556   2.295   0.958  15.011 -1.1991 -1.3486  1.2183
12381TIP3   OH258557   3.220   6.659  15.107  0.1588  0.2611  0.0059
12381TIP3    H158558   3.294   6.718  15.092  0.7198 -0.6062 -0.7424
12381TIP3    H258559   3.201   6.624  15.020 -0.9615  0.2784  0.2490
12382TIP3   OH258560   1.554   4.503   6.649 -0.2664  0.0083  0.8276
12382TIP3    H158561   1.472   4.540   6.682 -0.6450  0.7826 -0.9042
12382TIP3    H258562   1.623   4.553   6.692 -0.7515  1.0688  0.3899
12383TIP3   OH258563   6.004   1.956  14.538 -0.3984 -0.0330  0.1890
12383TIP3    H158564   6.045   1.915  14.615 -0.2781 -0.2757 -0.0026
12383TIP3    H258565   6.065   2.026  14.514  0.1864 -0.7395 -0.4240
12384TIP3   OH258566   3.948   2.721   0.730 -0.0705  0.2601 -0.0440
12384TIP3    H158567   3.999   2.802   0.725  0.5269 -0.1338 -0.3654
12384TIP3    H258568   3.950   2.686   0.641 -0.7090  0.1174 -0.0101
12385TIP3   OH258569   2.753   2.154   0.166  0.5728  0.3929 -0.7638
12385TIP3    H158570   2.761   2.173   0.073  0.2640  1.6617 -0.5402
12385TIP3    H258571   2.827   2.200   0.206  1.9823 -1.9334 -0.6140
12386TIP3   OH258572   5.770   4.840   2.298 -0.0049  0.3929  0.9068
12386TIP3    H158573   5.817   4.864   2.377 -0.6392  0.1035  1.3730
12386TIP3    H258574   5.692   4.896   2.299  1.9103  3.3153 -1.5648
12387TIP3   OH258575   4.073   5.068   5.440 -0.0507  0.8326 -0.3888
12387TIP3    H158576   4.124   4.996   5.476  0.3592  1.8627  1.1508
12387TIP3    H258577   4.128   5.104   5.370 -0.5798 -0.7825 -1.6863
12388TIP3   OH258578   2.716   3.513  17.136 -0.0667  0.4136  0.3927
12388TIP3    H158579   2.634   3.464  17.140 -0.7658  1.4781 -0.5576
12388TIP3    H258580   2.692   3.602  17.161  0.6883  0.8507 -0.4168
12389TIP3   OH258581   0.530   0.818  16.828 -1.2098  0.0275  0.1046
12389TIP3    H158582   0.524   0.911  16.805  2.1702  0.0893 -0.7919
12389TIP3    H258583   0.481   0.774  16.759 -1.0227  1.0236 -0.6817
12390TIP3   OH258584   4.997   0.889  12.406 -0.1072  0.1288  0.2381
12390TIP3    H158585   5.065   0.885  12.473  0.3223  0.6262 -0.1716
12390TIP3    H258586   5.044   0.880  12.324 -0.7586 -1.8037  0.0520
12391TIP3   OH258587   6.132   3.067  15.177 -0.2945  0.2032  0.1175
12391TIP3    H158588   6.213   3.041  15.222 -0.6933  0.1441  0.8124
12391TIP3    H258589   6.128   3.162  15.189  0.2658  0.3638 -0.9212
12392TIP3   OH258590   1.102   5.950  12.436  0.1534  0.2444 -0.3066
12392TIP3    H158591   1.063   5.890  12.499 -2.1014  0.6393 -1.2695
12392TIP3    H258592   1.185   5.909  12.411  0.3723 -0.6355  1.7657
12393TIP3   OH258593   4.572   5.051  13.782 -0.3344  0.4720 -0.4575
12393TIP3    H158594   4.548   4.959  13.771  0.6931  0.0542  0.6694
12393TIP3    H258595   4.651   5.048  13.836 -0.6616  2.0454  0.1162
12394TIP3   OH258596   1.520   0.595  12.635  0.0493 -0.3319 -0.9590
12394TIP3    H158597   1.438   0.641  12.619  0.7147  2.0397  1.9127
12394TIP3    H258598   1.508   0.554  12.721  1.1243 -1.7066 -1.4520
12395TIP3   OH258599   1.267   0.127  17.001 -0.0981 -0.2097 -0.0004
12395TIP3    H158600   1.176   0.100  16.983  0.1589  0.0457 -1.7276
12395TIP3    H258601   1.278   0.207  16.951  0.4659  0.8680  1.8302
12396TIP3   OH258602   4.718   0.398  13.994  0.0867 -0.7680 -0.7492
12396TIP3    H158603   4.723   0.391  13.899  0.5422 -1.1382 -0.7050
12396TIP3    H258604   4.715   0.307  14.024 -2.4244 -0.6310 -0.5242
12397TIP3   OH258605   5.885   5.116  14.072 -0.1403  0.2587 -0.2739
12397TIP3    H158606   5.897   5.163  14.154 -0.6192  1.2836 -0.7887
12397TIP3    H258607   5.921   5.029  14.089  0.5690  0.7422  0.7394
12398TIP3   OH258608   4.389   5.237  14.382 -0.1245 -0.2960  0.2739
12398TIP3    H158609   4.463   5.195  14.426  2.0475  0.5761 -2.3735
12398TIP3    H258610   4.356   5.171  14.321 -0.7700 -0.2822  0.6042
12399TIP3   OH258611   4.538   0.321  12.103 -0.2044 -0.7768 -0.8024
12399TIP3    H158612   4.506   0.334  12.014 -0.9677 -1.7644 -0.6802
12399TIP3    H258613   4.616   0.266  12.093  0.5815  0.3694 -0.9784
12400TIP3   OH258614   0.547   2.113   5.506 -0.0273 -0.1891 -0.1132
12400TIP3    H158615   0.553   2.206   5.526  0.8626  0.3367 -2.6043
12400TIP3    H258616   0.611   2.072   5.564  0.1963  0.8498  0.3938
12401TIP3   OH258617   1.546   6.182   2.991 -0.1833  0.0552  0.0411
12401TIP3    H158618   1.543   6.131   2.910  3.1399  0.9982 -0.7841
12401TIP3    H258619   1.595   6.127   3.052  0.5097  0.8283  0.1994
12402TIP3   OH258620   3.635   4.994  16.821 -0.1985  0.0773  0.0228
12402TIP3    H158621   3.662   5.058  16.755 -0.3297  1.4090  1.2405
12402TIP3    H258622   3.714   4.945  16.841  1.2595  3.3215  2.8599
12403TIP3   OH258623   6.022   4.736   4.403  0.1018  0.3285 -0.9181
12403TIP3    H158624   6.087   4.806   4.405  0.4299  0.0240 -0.4896
12403TIP3    H258625   6.051   4.676   4.473 -0.6989  0.2426 -0.6629
12404TIP3   OH258626   3.249   4.216   3.339  0.0433  0.2865 -0.3543
12404TIP3    H158627   3.268   4.232   3.432  1.6011 -1.2386 -0.3811
12404TIP3    H258628   3.212   4.128   3.338 -2.5562  1.3171 -0.9106
12405TIP3   OH258629   2.800   1.817  14.174  0.3828 -0.7759 -0.2046
12405TIP3    H158630   2.719   1.768  14.190 -0.3318  0.2375 -0.6949
12405TIP3    H258631   2.807   1.822  14.079 -0.1896  1.1406 -0.1475
12406TIP3   OH258632   0.671   3.930   2.702 -0.5652  0.1531 -0.6303
12406TIP3    H158633   0.732   3.864   2.669  1.2856  1.1212  0.7297
12406TIP3    H258634   0.628   3.966   2.624 -1.0318 -2.1002 -1.4346
12407TIP3   OH258635   6.152   0.789   0.589 -0.0925  0.4507 -0.6593
12407TIP3    H158636   6.105   0.864   0.627 -2.2499 -0.7054 -0.9630
12407TIP3    H258637   6.124   0.787   0.497 -1.5379 -1.7782 -0.2318
12408TIP3   OH258638   2.790   4.429   5.848 -0.1461 -0.3902 -0.0537
12408TIP3    H158639   2.809   4.519   5.818  0.6113 -0.1074  1.2591
12408TIP3    H258640   2.715   4.439   5.906 -0.3943 -0.6808 -0.3260
12409TIP3   OH258641   6.598   1.572   5.544 -0.0639  0.5597  0.5068
12409TIP3    H158642   6.518   1.610   5.581 -0.0300  0.9535  0.1804
12409TIP3    H258643   6.667   1.631   5.574  0.1618 -0.0531  1.1916
12410TIP3   OH258644   1.888   2.579   4.672 -0.4852  0.0117 -0.3562
12410TIP3    H158645   1.829   2.508   4.697 -0.0639 -0.0904  0.3667
12410TIP3    H258646   1.944   2.542   4.604  1.0674 -0.9964  1.4043
12411TIP3   OH258647   5.945   2.622  16.474  0.1681 -0.4509  0.5562
12411TIP3    H158648   5.850   2.637  16.475  0.2616  0.3788 -0.7664
12411TIP3    H258649   5.960   2.574  16.392  1.0120  0.4137  0.1867
12412TIP3   OH258650   5.241   1.751  17.206  0.0688  0.5680  0.2192
12412TIP3    H158651   5.275   1.763  17.295 -1.2279 -0.7730  0.9207
12412TIP3    H258652   5.183   1.675  17.213 -0.4426  0.7674 -1.6716
12413TIP3   OH258653   5.025   5.290   5.968  0.0813 -0.2006  0.3247
12413TIP3    H158654   5.058   5.245   6.045 -0.8513 -0.2301  0.7118
12413TIP3    H258655   4.954   5.345   6.000 -0.7299 -0.6829 -0.6005
12414TIP3   OH258656   4.790   1.967   2.933 -0.4106  0.6510  0.0433
12414TIP3    H158657   4.696   1.975   2.920 -0.2969  0.8572 -0.7042
12414TIP3    H258658   4.800   1.886   2.984 -0.8786 -0.4696 -1.5921
12415TIP3   OH258659   2.999   3.254  13.456 -0.0445  0.2267 -0.2547
12415TIP3    H158660   3.012   3.340  13.496 -0.4447  0.6866 -1.1032
12415TIP3    H258661   3.087   3.218  13.445  0.1430  0.6908 -0.2524
12416TIP3   OH258662   5.794   3.678   0.099 -0.3395 -0.6309 -0.3610
12416TIP3    H158663   5.835   3.667   0.185 -0.3629  0.1259 -0.2487
12416TIP3    H258664   5.777   3.589   0.069  1.4052 -0.9771 -0.4038
12417TIP3   OH258665   6.118   3.090  15.695  0.8708  0.1515 -0.0929
12417TIP3    H158666   6.097   3.020  15.633  0.4671  0.2002 -0.0138
12417TIP3    H258667   6.046   3.152  15.685  2.0279  1.3190 -1.2957
12418TIP3   OH258668   3.436   1.711  16.900  0.1240 -0.0855 -0.3566
12418TIP3    H158669   3.352   1.757  16.890  0.0070  0.0082  0.9281
12418TIP3    H258670   3.445   1.660  16.820 -0.7113  0.6354 -0.9260
12419TIP3   OH258671   5.438   1.569   1.403  0.2436 -0.3357  0.5364
12419TIP3    H158672   5.467   1.482   1.431 -1.2053 -0.8244  0.5686
12419TIP3    H258673   5.458   1.572   1.310  0.6670 -0.5462  0.6189
12420TIP3   OH258674   5.278   2.449   5.770 -0.7977 -0.0954 -0.1717
12420TIP3    H158675   5.240   2.377   5.719 -1.2841  0.1627 -0.1712
12420TIP3    H258676   5.249   2.433   5.860 -1.3478  0.3875 -0.2546
12421TIP3   OH258677   3.989   3.441   1.638  0.0810  0.5022  0.1424
12421TIP3    H158678   4.034   3.497   1.576 -0.7141 -0.7394 -1.5840
12421TIP3    H258679   3.902   3.428   1.601 -0.5752  0.1193  1.7452
12422TIP3   OH258680   6.601   3.195  15.889  0.4509  0.3460 -0.2965
12422TIP3    H158681   6.518   3.158  15.857 -0.9811  1.2754  2.2428
12422TIP3    H258682   6.582   3.288  15.901  2.0769  0.6888 -0.2836
12423TIP3   OH258683   1.919   1.152   1.399 -0.4637  0.1110 -0.1146
12423TIP3    H158684   1.887   1.181   1.484  2.1339  0.0130  0.9272
12423TIP3    H258685   1.960   1.068   1.416  1.0103  0.5814 -1.2651
12424TIP3   OH258686   5.390   4.289   1.360 -0.2343 -0.4546  0.5552
12424TIP3    H158687   5.335   4.289   1.282 -0.6603  2.6258  0.7985
12424TIP3    H258688   5.349   4.225   1.418 -2.5529  0.5042  0.0217
12425TIP3   OH258689   4.809   6.750   4.278 -0.1220 -0.2057 -0.3971
12425TIP3    H158690   4.799   6.844   4.293  2.9975  0.4054 -1.6273
12425TIP3    H258691   4.887   6.726   4.328 -0.5817 -2.0580 -0.5123
12426TIP3   OH258692   4.923   5.155   5.307  0.1836 -0.1171  0.3621
12426TIP3    H158693   4.830   5.140   5.322 -0.0149 -0.1114 -0.8375
12426TIP3    H258694   4.938   5.245   5.334 -1.2432  1.6256 -4.1516
12427TIP3   OH258695   6.578   0.778  10.676  0.2272 -0.1116 -0.2553
12427TIP3    H158696   6.656   0.797  10.728  0.9451 -2.6123 -0.3577
12427TIP3    H258697   6.599   0.808  10.588  1.5406 -1.8602 -0.5463
12428TIP3   OH258698   2.146   3.833  11.290  0.0141  0.0028 -0.2393
12428TIP3    H158699   2.135   3.773  11.364  0.1154  0.7024  0.3622
12428TIP3    H258700   2.167   3.777  11.216 -0.2982 -0.7331  0.2199
12429TIP3   OH258701   6.558   3.942   6.332  0.5975 -0.0984 -0.0256
12429TIP3    H158702   6.505   4.022   6.336 -2.6338 -2.0999 -0.8212
12429TIP3    H258703   6.580   3.932   6.240 -0.4137 -0.9809 -0.1783
12430TIP3   OH258704   3.289   4.920  11.680  0.2594  0.1180  0.5056
12430TIP3    H158705   3.333   5.002  11.660  0.7238 -0.0291  0.9105
12430TIP3    H258706   3.240   4.898  11.600  0.3441  0.6498  0.3112
12431TIP3   OH258707   3.733   4.259  15.792 -0.2153  0.1723 -0.3743
12431TIP3    H158708   3.809   4.278  15.846  0.5971 -0.5179 -1.2647
12431TIP3    H258709   3.661   4.249  15.855  0.3559  1.1510  0.4398
12432TIP3   OH258710   5.109   3.831  14.280  0.8195  0.0965  0.6044
12432TIP3    H158711   5.055   3.883  14.221 -1.2472 -0.7319  1.7113
12432TIP3    H258712   5.099   3.874  14.366  1.0462 -0.6950  1.0343
12433TIP3   OH258713   6.257   2.824   5.723 -0.0812  0.0958  0.0735
12433TIP3    H158714   6.234   2.907   5.766 -0.5983  0.0929 -0.1878
12433TIP3    H258715   6.202   2.759   5.766 -1.9266  0.3733 -1.8020
12434TIP3   OH258716   4.568   5.759  12.924  0.0544 -0.1611 -0.4136
12434TIP3    H158717   4.473   5.770  12.913  0.0150  1.0744  0.9585
12434TIP3    H258718   4.606   5.801  12.847 -0.4921 -0.3577 -0.8003
12435TIP3   OH258719   6.264   2.392  16.193 -0.2090  0.6829  0.3777
12435TIP3    H158720   6.309   2.436  16.266 -0.1682  0.0420  0.7431
12435TIP3    H258721   6.333   2.339  16.152 -0.4323  0.3681  0.4115
12436TIP3   OH258722   5.470   5.099   6.537  0.0997  0.0900  0.1413
12436TIP3    H158723   5.494   5.007   6.547  0.9771  0.4453  1.3822
12436TIP3    H258724   5.377   5.102   6.556  0.3592 -0.3205  1.4937
12437TIP3   OH258725   2.011   3.974   0.492  0.6835  0.4855  0.3088
12437TIP3    H158726   1.966   4.045   0.447  0.2733  0.5626  0.8376
12437TIP3    H258727   1.974   3.894   0.454  0.7259  0.5520  0.1289
12438TIP3   OH258728   0.841   1.792   2.340  0.1313 -0.3261  0.1678
12438TIP3    H158729   0.800   1.851   2.404 -0.8937 -0.1985 -0.6013
12438TIP3    H258730   0.888   1.850   2.281  1.0052 -0.4391  0.7437
12439TIP3   OH258731   5.866   3.380  16.241  0.1796 -0.4648 -0.3118
12439TIP3    H158732   5.832   3.447  16.182  2.5262  1.2555  0.2427
12439TIP3    H258733   5.921   3.324  16.186 -1.8437 -2.0400 -0.7947
12440TIP3   OH258734   1.281   1.920   0.129  0.2919 -0.2682 -0.6108
12440TIP3    H158735   1.356   1.900   0.073  1.6571  0.3488  0.9911
12440TIP3    H258736   1.318   1.937   0.215 -1.6976 -0.0617  0.2376
12441TIP3   OH258737   3.950   1.903  10.653  0.0377 -0.0149  0.2642
12441TIP3    H158738   3.923   1.815  10.625 -0.7869 -0.2269  1.6479
12441TIP3    H258739   3.938   1.902  10.748  2.8590  0.6213  0.6799
12442TIP3   OH258740   1.641   2.087  13.275 -0.5202  0.1527 -0.3757
12442TIP3    H158741   1.598   2.008  13.243  2.6440 -0.6707 -2.7768
12442TIP3    H258742   1.658   2.139  13.197 -1.5518  2.7641  1.0608
12443TIP3   OH258743   0.394   0.107  11.515 -0.3998 -0.2329  0.4155
12443TIP3    H158744   0.444   0.187  11.498  0.4627 -0.9463 -0.4954
12443TIP3    H258745   0.316   0.137  11.562  1.0391  0.8588  2.1717
12444TIP3   OH258746   2.637   0.678   0.073  0.4078 -0.9751  0.5477
12444TIP3    H158747   2.599   0.757   0.110  0.5158 -0.8225  0.3330
12444TIP3    H258748   2.561   0.624   0.050  0.3319 -0.8891  0.5931
12445TIP3   OH258749   5.189   4.209   3.137 -0.1844 -0.4839 -0.5549
12445TIP3    H158750   5.190   4.301   3.161 -0.6677 -1.0017  1.4974
12445TIP3    H258751   5.170   4.162   3.218  0.4990 -2.4263 -1.4641
12446TIP3   OH258752   1.359   1.571  17.026 -0.5078 -0.2860 -0.3072
12446TIP3    H158753   1.395   1.585  17.114  1.1096 -1.9991 -0.6686
12446TIP3    H258754   1.380   1.480  17.006 -2.1979 -0.3584 -1.8825
12447TIP3   OH258755   4.343   0.612  15.634  0.6868  0.5288  0.4775
12447TIP3    H158756   4.350   0.681  15.700 -2.4004  0.8107  0.5901
12447TIP3    H258757   4.284   0.547  15.673  0.8436 -0.5139 -0.9775
12448TIP3   OH258758   6.414   4.615  13.236  0.1512 -0.3356  0.7232
12448TIP3    H158759   6.323   4.638  13.253  0.1871 -0.6271  1.2933
12448TIP3    H258760   6.413   4.578  13.148 -0.6195 -2.3314  1.5533
12449TIP3   OH258761   1.436   6.405  17.110  0.5769 -0.5823 -0.3816
12449TIP3    H158762   1.356   6.455  17.091  0.4344 -0.7473 -0.2163
12449TIP3    H258763   1.505   6.472  17.117 -0.0176 -0.1726  2.0967
12450TIP3   OH258764   0.973   5.193   6.620  0.0156  0.0070  0.0498
12450TIP3    H158765   1.066   5.185   6.598  0.2469 -0.7835  1.2934
12450TIP3    H258766   0.954   5.118   6.675 -1.3136  0.2988  0.0225
12451TIP3   OH258767   3.023   0.456  13.758 -0.3179 -0.6194  0.0035
12451TIP3    H158768   2.930   0.433  13.761 -0.7011  0.7137 -0.9348
12451TIP3    H258769   3.023   0.551  13.743  1.1932 -0.6717 -0.3604
12452TIP3   OH258770   6.616   4.481  16.048 -0.1733 -0.3012  0.5072
12452TIP3    H158771   6.571   4.556  16.008  1.2188 -0.4964 -1.5308
12452TIP3    H258772   6.638   4.511  16.136 -2.8930  0.3326  1.0395
12453TIP3   OH258773   0.410   1.424   0.981  0.4702 -0.0913 -0.2523
12453TIP3    H158774   0.467   1.450   1.054  0.3964 -1.2888  0.2425
12453TIP3    H258775   0.331   1.390   1.023  0.5446 -1.0586 -0.8842
12454TIP3   OH258776   2.946   0.664   2.228  0.1287 -0.3052 -0.1112
12454TIP3    H158777   2.982   0.592   2.175  0.1751 -0.9807  0.8214
12454TIP3    H258778   3.010   0.735   2.218 -0.0133 -0.3241 -1.1915
12455TIP3   OH258779   1.539   4.306  11.604  0.0350 -0.6471  0.0842
12455TIP3    H158780   1.496   4.318  11.520  0.1974 -0.1095  0.0772
12455TIP3    H258781   1.597   4.231  11.592  1.1843  0.3664 -0.7238
12456TIP3   OH258782   5.385   0.707   4.524 -0.3075  0.0310  0.2882
12456TIP3    H158783   5.398   0.612   4.527 -0.3774  0.0423  0.8444
12456TIP3    H258784   5.462   0.743   4.568  0.8243  0.3215 -1.8350
12457TIP3   OH258785   4.691   1.476  16.806 -0.0753  0.5242  0.4018
12457TIP3    H158786   4.655   1.429  16.730  2.0211 -1.5992  0.6277
12457TIP3    H258787   4.781   1.498  16.780 -0.1687  2.0551  1.3306
12458TIP3   OH258788   0.644   0.449  12.919  0.2787  0.1819 -0.1560
12458TIP3    H158789   0.658   0.402  12.837  0.3827 -0.1931  0.0741
12458TIP3    H258790   0.718   0.510  12.925  0.8507 -0.5475  0.1902
12459TIP3   OH258791   3.139   4.483  11.509  0.1828  0.9720 -0.0041
12459TIP3    H158792   3.110   4.488  11.418  0.3385 -0.0695 -0.1162
12459TIP3    H258793   3.092   4.554  11.554 -1.2156  0.3841 -0.5249
12460TIP3   OH258794   6.138   6.412   0.440  0.0456  0.1386 -0.0226
12460TIP3    H158795   6.197   6.407   0.516  1.4695 -2.7259 -1.2542
12460TIP3    H258796   6.169   6.488   0.391  1.4412 -0.1433  0.3926
12461TIP3   OH258797   0.896   2.450   4.809  0.7681  0.4027 -0.2706
12461TIP3    H158798   0.856   2.393   4.743  0.6064 -0.0220  0.1993
12461TIP3    H258799   0.849   2.534   4.799 -1.6692 -0.6630  1.6287
12462TIP3   OH258800   2.829   0.731  16.425  0.5402  0.2432  0.5313
12462TIP3    H158801   2.910   0.762  16.466 -0.8351  0.6766  2.9613
12462TIP3    H258802   2.816   0.791  16.351  2.0008  0.6979  0.6258
12463TIP3   OH258803   0.133   3.652   5.345 -0.4402 -0.5981  0.2415
12463TIP3    H158804   0.226   3.629   5.348 -0.6395 -1.2945  1.6034
12463TIP3    H258805   0.131   3.746   5.362 -0.0301 -0.7263  1.0382
12464TIP3   OH258806   6.625   2.130  14.142 -0.3613  0.5164 -0.0033
12464TIP3    H158807   6.699   2.180  14.175  0.8366 -0.3335 -1.3501
12464TIP3    H258808   6.618   2.055  14.201  0.0660  0.4235 -0.0699
12465TIP3   OH258809   0.747   6.024   0.586  0.3411  0.2826  0.1356
12465TIP3    H158810   0.800   6.098   0.615  0.2020 -0.0742  1.3219
12465TIP3    H258811   0.797   5.946   0.613 -0.7285 -0.0547  1.1865
12466TIP3   OH258812   2.693   4.405  16.213  0.7942 -0.5256  0.4468
12466TIP3    H158813   2.605   4.368  16.226  1.1037 -0.8464  1.6918
12466TIP3    H258814   2.708   4.458  16.291  0.5041  1.9865 -1.1755
12467TIP3   OH258815   3.541   0.471   0.779 -0.5906  0.0874  0.4669
12467TIP3    H158816   3.477   0.540   0.795 -0.9236 -0.3484  1.0511
12467TIP3    H258817   3.613   0.515   0.734 -0.9810  0.7276  0.4573
12468TIP3   OH258818   6.159   2.717  12.543 -0.3662  0.3630  0.1044
12468TIP3    H158819   6.207   2.712  12.626 -0.5976  1.0306  0.2758
12468TIP3    H258820   6.227   2.729  12.476 -0.2270  0.3708  0.2480
12469TIP3   OH258821   5.768   1.761  15.777  1.2943 -0.3831  0.3799
12469TIP3    H158822   5.693   1.724  15.731  0.6024 -0.7118  1.7396
12469TIP3    H258823   5.811   1.817  15.712  0.3894 -0.8907 -0.6759
12470TIP3   OH258824   0.507   2.599   3.528 -0.2899 -0.1891 -0.1071
12470TIP3    H158825   0.413   2.606   3.511 -0.1402  1.1531 -0.4202
12470TIP3    H258826   0.523   2.654   3.604  0.4745  0.8439 -0.9828
12471TIP3   OH258827   1.483   0.718  15.576  0.1461 -0.4992 -0.4549
12471TIP3    H158828   1.572   0.724  15.611 -0.4348  2.7781  0.6550
12471TIP3    H258829   1.441   0.650  15.630  1.2257 -0.2383  0.7470
12472TIP3   OH258830   4.229   4.961  13.638 -0.1359 -0.1863  0.4245
12472TIP3    H158831   4.298   4.937  13.576  0.3736  0.6515  0.6606
12472TIP3    H258832   4.149   4.923  13.601  0.5525 -1.7840  0.5204
12473TIP3   OH258833   2.110   3.560   0.601 -0.6814  0.0718  0.2000
12473TIP3    H158834   2.176   3.551   0.531 -0.7723 -1.4389  0.2809
12473TIP3    H258835   2.027   3.547   0.556 -0.7334 -1.0125  0.6034
12474TIP3   OH258836   5.878   3.427  10.645 -0.4311 -0.0234 -0.2464
12474TIP3    H158837   5.827   3.346  10.650 -0.0431 -0.2952 -0.6782
12474TIP3    H258838   5.935   3.415  10.569 -1.1424  1.1091 -0.9701
12475TIP3   OH258839   0.693   0.484   1.647 -0.3664 -0.6731  0.1293
12475TIP3    H158840   0.624   0.459   1.585 -0.5835  0.3269 -0.0409
12475TIP3    H258841   0.773   0.448   1.610 -0.6976 -1.2881 -0.0032
12476TIP3   OH258842   3.324   2.955  13.024 -0.0029  0.0716 -0.2849
12476TIP3    H158843   3.262   3.028  13.031  0.3682  0.3580  0.0323
12476TIP3    H258844   3.272   2.884  12.986 -0.0658  0.8361 -1.6532
12477TIP3   OH258845   6.366   4.953   2.472  0.0254  0.0350 -0.1527
12477TIP3    H158846   6.440   4.913   2.516 -0.4304  1.2238  1.7392
12477TIP3    H258847   6.399   5.037   2.439 -0.3961  0.4392  0.4407
12478TIP3   OH258848   5.125   1.321  13.369 -0.1261 -0.3181  0.2410
12478TIP3    H158849   5.169   1.363  13.443  1.0178  0.0684 -0.6411
12478TIP3    H258850   5.182   1.247  13.346  0.2718  0.3919 -1.1340
12479TIP3   OH258851   0.802   0.810  15.841  0.2444 -0.0755  0.4171
12479TIP3    H158852   0.710   0.788  15.825 -0.1262  2.0667 -0.6308
12479TIP3    H258853   0.847   0.783  15.761 -0.1434  2.4438 -0.6960
12480TIP3   OH258854   5.404   4.680   6.840 -0.1247  0.3078  0.3529
12480TIP3    H158855   5.472   4.655   6.903  0.3895 -0.5696 -0.5398
12480TIP3    H258856   5.391   4.774   6.854  1.5356  0.5549  0.2832
12481TIP3   OH258857   2.536   1.446   1.789 -0.7562 -0.3367 -0.3109
12481TIP3    H158858   2.599   1.463   1.719 -0.4184 -0.4592 -0.0396
12481TIP3    H258859   2.526   1.350   1.788  0.1051 -0.4454  0.5405
12482TIP3   OH258860   6.339   1.667  12.222  0.4877 -0.1367 -0.0711
12482TIP3    H158861   6.396   1.720  12.167 -2.1297  1.2180 -1.5444
12482TIP3    H258862   6.384   1.582  12.228  1.9425  0.4380 -2.3687
12483TIP3   OH258863   5.638   2.305  13.114  0.0638  0.0809  0.2048
12483TIP3    H158864   5.681   2.226  13.146  2.5320  0.6111 -1.6410
12483TIP3    H258865   5.644   2.366  13.187 -0.0224 -0.7577  0.9272
12484TIP3   OH258866   2.546   4.872  11.773  1.0352 -0.4284 -0.3804
12484TIP3    H158867   2.554   4.905  11.684  2.5255  0.3867  0.0389
12484TIP3    H258868   2.458   4.834  11.777 -0.0917  1.9829 -1.3921
12485TIP3   OH258869   6.130   5.988  12.851  0.1366  0.1145  0.6177
12485TIP3    H158870   6.049   5.972  12.901  0.0831 -1.3807  0.0758
12485TIP3    H258871   6.197   6.002  12.918  0.3770 -3.4003  1.1763
12486TIP3   OH258872   2.035   5.158   3.511 -0.4603 -0.0156  0.1447
12486TIP3    H158873   2.058   5.125   3.424  0.2231 -0.4021  0.4739
12486TIP3    H258874   2.009   5.249   3.496  2.3179  0.7784 -0.0724
12487TIP3   OH258875   0.200   4.080   3.575  0.4635  0.0851  0.2917
12487TIP3    H158876   0.200   3.989   3.606 -0.1517 -0.5317 -1.4911
12487TIP3    H258877   0.252   4.078   3.495 -1.3386  0.8991 -0.9226
12488TIP3   OH258878   6.434   6.101   5.122  0.5784 -0.1065 -0.5936
12488TIP3    H158879   6.472   6.128   5.039  0.0335 -0.2903 -0.9018
12488TIP3    H258880   6.346   6.071   5.100  0.9998 -1.6726 -0.1879
12489TIP3   OH258881   2.898   5.950   3.369 -0.4179 -0.1886 -0.1088
12489TIP3    H158882   2.880   6.023   3.309 -0.9019  0.2643  0.5874
12489TIP3    H258883   2.913   5.876   3.311 -1.1843  0.1801 -0.7949
12490TIP3   OH258884   5.766   6.037   3.874 -0.0563 -0.5433  0.2711
12490TIP3    H158885   5.752   6.113   3.930 -1.1895 -0.1828 -0.4735
12490TIP3    H258886   5.825   6.068   3.805 -0.3336 -0.3967  0.0978
12491TIP3   OH258887   5.253   5.150   3.069  0.1529  0.1054 -0.1267
12491TIP3    H158888   5.191   5.099   3.017  0.1724 -0.7951  0.7267
12491TIP3    H258889   5.286   5.217   3.008 -1.1114  0.1468 -0.7802
12492TIP3   OH258890   4.485   5.566   0.247  0.3331 -0.3623  0.4951
12492TIP3    H158891   4.558   5.629   0.257 -0.9355  0.9495  1.7341
12492TIP3    H258892   4.407   5.617   0.269 -0.8386 -2.1008  0.4035
12493TIP3   OH258893   4.421   6.361   3.471 -0.1887  0.0172 -0.4821
12493TIP3    H158894   4.438   6.346   3.378  0.6134 -0.0976 -0.3142
12493TIP3    H258895   4.326   6.349   3.479 -0.3680  0.7205 -1.4154
12494TIP3   OH258896   1.653   4.604  14.380 -0.4368 -0.2407  0.4692
12494TIP3    H158897   1.720   4.535  14.380  0.3342  0.4609  2.9565
12494TIP3    H258898   1.640   4.624  14.472 -1.9310  1.7483 -0.1515
12495TIP3   OH258899   2.864   4.947   1.505  0.2557 -0.0711  0.7627
12495TIP3    H158900   2.939   4.994   1.541  1.7559 -0.7999 -1.3368
12495TIP3    H258901   2.865   4.967   1.412 -3.0329  1.0436  0.8687
12496TIP3   OH258902   3.867   2.464   0.749 -0.0334 -0.6674  0.0948
12496TIP3    H158903   3.880   2.555   0.721  0.3916 -0.5231  0.7312
12496TIP3    H258904   3.793   2.468   0.809  1.2877 -0.3814  1.7715
12497TIP3   OH258905   4.001   3.482   4.325  0.0317  0.2792 -0.6173
12497TIP3    H158906   4.008   3.432   4.407  1.7853 -1.6217 -1.8660
12497TIP3    H258907   3.915   3.459   4.291 -0.7840  1.2214  0.7703
12498TIP3   OH258908   2.857   6.015   5.347  0.3128 -0.4772  0.3833
12498TIP3    H158909   2.871   6.032   5.254  0.2464 -3.0961 -0.1410
12498TIP3    H258910   2.789   6.078   5.373 -0.0565 -0.0931 -1.4605
12499TIP3   OH258911   3.953   5.319   5.141  0.6004 -0.7094 -0.1535
12499TIP3    H158912   3.906   5.323   5.225 -1.1457  1.3859 -1.1760
12499TIP3    H258913   4.009   5.243   5.149 -1.1031 -1.7962  2.1282
12500TIP3   OH258914   5.675   0.084  14.644 -0.1404 -0.8751 -0.0096
12500TIP3    H158915   5.724   0.167  14.637 -0.0352 -0.7637  1.7267
12500TIP3    H258916   5.644   0.083  14.735  0.4044 -3.0558  0.1655
12501TIP3   OH258917   6.150   0.587  13.772 -0.1686  0.1777  0.7193
12501TIP3    H158918   6.220   0.646  13.802  1.5067 -1.2513 -0.2523
12501TIP3    H258919   6.157   0.511  13.829  0.4296 -0.8505 -0.6843
12502TIP3   OH258920   2.586   4.469  15.671 -0.3333 -0.4537  0.0627
12502TIP3    H158921   2.567   4.457  15.765 -2.3292  0.2934 -0.2153
12502TIP3    H258922   2.515   4.423  15.627 -0.6985  1.1453 -1.0598
12503TIP3   OH258923   5.964   2.358  10.439 -0.2606  0.0221  0.0536
12503TIP3    H158924   5.943   2.451  10.446 -0.4527 -0.1614  2.1941
12503TIP3    H258925   5.883   2.316  10.410 -0.4557  0.3804  0.0876
12504TIP3   OH258926   6.552   0.942  12.878 -0.5502 -0.1677  0.4675
12504TIP3    H158927   6.553   0.851  12.906 -1.7542  0.4386  2.5425
12504TIP3    H258928   6.634   0.978  12.912 -0.0501 -0.4720 -0.3969
12505TIP3   OH258929   5.170   5.381   2.141  0.1560  0.3796 -0.0949
12505TIP3    H158930   5.088   5.352   2.181 -0.5617  0.2221 -1.6451
12505TIP3    H258931   5.163   5.476   2.138 -0.7531  0.2858 -1.7941
12506TIP3   OH258932   3.526   0.817   3.045 -0.3102  0.3366 -0.0067
12506TIP3    H158933   3.614   0.832   3.010  0.3455  0.0953  1.4961
12506TIP3    H258934   3.523   0.724   3.064 -1.1206  0.2315 -0.6540
12507TIP3   OH258935   4.172   5.719  15.996  0.8624 -0.3759 -0.2042
12507TIP3    H158936   4.081   5.693  16.011  1.0490 -1.2574 -0.5907
12507TIP3    H258937   4.213   5.715  16.082  0.4699  0.3106  0.0208
12508TIP3   OH258938   2.874   3.675   2.488 -0.5457 -0.5054  0.7235
12508TIP3    H158939   2.919   3.634   2.562  1.2750 -1.4704 -0.8947
12508TIP3    H258940   2.798   3.718   2.528  0.1001 -1.4584  3.0800
12509TIP3   OH258941   3.565   2.845  15.009 -0.2015  0.5364  0.4234
12509TIP3    H158942   3.592   2.766  15.057 -0.8559  0.0163 -0.0654
12509TIP3    H258943   3.476   2.826  14.980  0.8653  0.0739 -2.6869
12510TIP3   OH258944   5.594   5.588  16.084 -0.1140  0.5804 -0.0968
12510TIP3    H158945   5.624   5.501  16.060  1.2913  1.6799 -2.4744
12510TIP3    H258946   5.498   5.582  16.084 -0.0120 -1.0323  0.1306
12511TIP3   OH258947   4.004   0.395   2.786  0.1253  0.1249 -0.2712
12511TIP3    H158948   4.073   0.373   2.849  0.5722  1.5998 -0.2324
12511TIP3    H258949   3.953   0.315   2.779  2.0964 -1.1416 -0.6365
12512TIP3   OH258950   5.153   5.576   1.109 -0.1644  0.2917  0.2269
12512TIP3    H158951   5.178   5.581   1.201  1.0583 -0.2495 -0.0638
12512TIP3    H258952   5.192   5.494   1.078 -0.9251  0.2600 -0.6612
12513TIP3   OH258953   2.869   6.273   4.888  0.3775  0.1772  0.3501
12513TIP3    H158954   2.942   6.237   4.839  0.3929  0.8601 -0.1320
12513TIP3    H258955   2.880   6.368   4.883 -0.0003  0.2673  1.0917
12514TIP3   OH258956   5.211   1.351  16.660 -0.8443 -0.0981 -0.5368
12514TIP3    H158957   5.260   1.305  16.592 -0.3884 -1.3847  0.6341
12514TIP3    H258958   5.272   1.417  16.693 -0.1209 -1.1831  0.3800
12515TIP3   OH258959   6.081   2.841  13.726 -0.2798 -0.4433  0.0364
12515TIP3    H158960   6.021   2.916  13.728  0.0930 -0.1572  0.5806
12515TIP3    H258961   6.089   2.820  13.633 -1.6237 -0.8086 -0.0058
12516TIP3   OH258962   4.969   1.761   3.859  0.0257 -0.1014  0.0772
12516TIP3    H158963   4.982   1.854   3.844 -1.1306  0.0072 -0.2728
12516TIP3    H258964   4.876   1.746   3.841 -0.4366 -0.8034  2.7558
12517TIP3   OH258965   4.252   0.153   1.275  0.2902 -0.4133  0.0475
12517TIP3    H158966   4.261   0.058   1.281  1.3441 -0.2888  0.5421
12517TIP3    H258967   4.268   0.184   1.364  0.5233  0.2692 -0.2330
12518TIP3   OH258968   3.628   4.007   2.935 -0.0046 -0.6996 -0.2074
12518TIP3    H158969   3.581   3.975   2.858  1.4556 -1.7036 -0.6996
12518TIP3    H258970   3.567   4.067   2.977 -1.2382 -0.9989 -1.5381
12519TIP3   OH258971   1.679   0.180  17.141  0.1089 -0.4516  0.4790
12519TIP3    H158972   1.765   0.223  17.143 -0.1377  0.0256  1.7212
12519TIP3    H258973   1.668   0.145  17.230 -2.0999  1.7953  1.1508
12520TIP3   OH258974   1.562   1.486   3.715  0.0877 -0.1070  0.6997
12520TIP3    H158975   1.625   1.435   3.664 -0.4693  0.0862 -0.2018
12520TIP3    H258976   1.584   1.577   3.696  0.2416 -0.0281  1.2605
12521TIP3   OH258977   1.743   1.422   3.529  0.0774 -0.1247 -0.5119
12521TIP3    H158978   1.789   1.503   3.507 -0.5567  0.6385  0.9212
12521TIP3    H258979   1.670   1.418   3.467 -0.4099  0.8607 -0.0036
12522TIP3   OH258980   0.938   0.517  15.372  0.3573  0.1773  0.1449
12522TIP3    H158981   1.031   0.501  15.389  0.2843 -0.0017  0.3731
12522TIP3    H258982   0.909   0.440  15.322  0.3366  0.2397  0.0628
12523TIP3   OH258983   5.607   4.483   4.034 -0.0388 -0.2700 -0.1687
12523TIP3    H158984   5.599   4.518   3.945 -2.0081 -0.1319  0.0338
12523TIP3    H258985   5.533   4.422   4.042  0.8181 -1.1708  0.9762
12524TIP3   OH258986   4.491   4.579  11.654 -0.2942  0.0944  0.7201
12524TIP3    H158987   4.478   4.498  11.703 -0.3036 -1.2174 -1.4231
12524TIP3    H258988   4.420   4.582  11.591  1.0240  0.5929 -0.7855
12525TIP3   OH258989   5.901   5.809   2.638  0.6599 -0.1934  0.2983
12525TIP3    H158990   5.920   5.805   2.732  0.1550  1.6206  0.4903
12525TIP3    H258991   5.810   5.836   2.633 -0.0437 -2.6283 -0.7068
12526TIP3   OH258992   0.103   6.359   6.070 -0.3006 -0.2638  0.1987
12526TIP3    H158993   0.035   6.303   6.032 -0.1408 -1.7185  1.9839
12526TIP3    H258994   0.182   6.338   6.021 -0.4029 -1.0689  0.3815
12527TIP3   OH258995   0.230   6.518  14.100  0.0820 -0.2651  0.2503
12527TIP3    H158996   0.214   6.538  14.192 -5.1187 -0.1402 -0.5713
12527TIP3    H258997   0.220   6.423  14.093  2.7620 -0.5919  0.1366
12528TIP3   OH258998   5.997   5.849  13.521 -0.2621  0.2725 -0.4762
12528TIP3    H158999   6.027   5.915  13.582  0.2434 -0.1053 -0.3113
12528TIP3    H259000   6.069   5.840  13.458 -0.6404  0.4224 -0.9328
12529TIP3   OH259001   6.582   2.605   1.902 -0.3452  0.0619  0.0955
12529TIP3    H159002   6.609   2.521   1.864 -0.1065  0.2794 -0.2204
12529TIP3    H259003   6.604   2.597   1.995  0.2031 -0.0145 -0.0372
12530TIP3   OH259004   3.946   3.144   0.904 -0.3461 -0.6936 -0.2823
12530TIP3    H159005   3.885   3.105   0.967 -0.0078 -0.4157  0.2245
12530TIP3    H259006   3.934   3.093   0.824 -0.3204 -1.4630  0.1984
12531TIP3   OH259007   2.302   4.435   6.067  0.1426 -0.0326  0.2977
12531TIP3    H159008   2.369   4.462   6.003 -0.7446 -1.7179 -1.4290
12531TIP3    H259009   2.267   4.516   6.102 -0.1571  0.9975 -2.2762
12532TIP3   OH259010   0.418   3.810  11.452  0.0537  0.1598 -0.0760
12532TIP3    H159011   0.333   3.830  11.411  0.2945 -1.6236 -1.5395
12532TIP3    H259012   0.404   3.726  11.495  0.8050  0.3478  0.5352
12533TIP3   OH259013   0.237   1.457   3.823  0.1853 -0.1843  0.0451
12533TIP3    H159014   0.175   1.526   3.798  1.7217  0.9959 -0.5296
12533TIP3    H259015   0.296   1.449   3.748  0.0794 -2.0874  0.1281
12534TIP3   OH259016   0.157   5.228   1.404 -0.5788  0.3691  0.0711
12534TIP3    H159017   0.155   5.250   1.310 -0.5708 -1.1380 -0.2886
12534TIP3    H259018   0.070   5.252   1.436 -0.9963 -0.2424 -0.5920
12535TIP3   OH259019   1.942   3.574   3.999 -0.4798  0.3300  0.3723
12535TIP3    H159020   1.970   3.657   4.036 -0.4343  0.4863 -0.0070
12535TIP3    H259021   1.929   3.593   3.906 -0.1198 -0.1767  0.2225
12536TIP3   OH259022   3.589   4.547   5.416 -0.1798 -0.0216 -0.3320
12536TIP3    H159023   3.529   4.521   5.486 -1.8832  1.8006 -1.0705
12536TIP3    H259024   3.562   4.494   5.340 -0.5504  0.4559 -0.5353
12537TIP3   OH259025   3.935   6.354  13.685 -0.1264  0.6539  0.0054
12537TIP3    H159026   4.009   6.412  13.671  1.4186 -1.0906  0.8541
12537TIP3    H259027   3.934   6.337  13.779 -0.3499 -0.9793 -0.2776
12538TIP3   OH259028   3.309   4.584   2.387 -0.2200 -0.3099  0.2038
12538TIP3    H159029   3.371   4.536   2.332  1.5385  0.0362  1.8439
12538TIP3    H259030   3.321   4.676   2.363  0.4050 -0.1779  0.9963
12539TIP3   OH259031   1.010   2.131  13.068 -0.1547  0.0507 -0.6155
12539TIP3    H159032   1.099   2.160  13.047 -0.0997  0.0554 -0.3864
12539TIP3    H259033   0.998   2.156  13.160  0.0228 -0.9455 -0.3068
12540TIP3   OH259034   3.832   6.685  14.348 -0.2831 -0.5160  0.0587
12540TIP3    H159035   3.872   6.766  14.379  0.2397 -0.7490 -0.0087
12540TIP3    H259036   3.805   6.640  14.428 -1.7285  0.3011  0.0593
12541TIP3   OH259037   2.707   3.025  16.758  0.1232 -0.6979 -0.2721
12541TIP3    H159038   2.718   3.019  16.663  0.6702 -1.6511 -0.1456
12541TIP3    H259039   2.615   3.003  16.773  0.8526 -3.9119 -0.2818
12542TIP3   OH259040   1.876   0.059   0.569 -0.3535  0.0461  0.0174
12542TIP3    H159041   1.886   0.153   0.581  0.8190 -0.1593  0.7211
12542TIP3    H259042   1.851   0.026   0.656 -3.0666 -0.0142 -0.7296
12543TIP3   OH259043   1.632   2.789   5.005 -0.0350  0.6526  0.2156
12543TIP3    H159044   1.658   2.857   5.066 -4.3264  0.8725  1.9877
12543TIP3    H259045   1.643   2.707   5.054  0.4765  0.4517 -0.2215
12544TIP3   OH259046   1.432   1.298   4.013  0.4107  0.1307  0.2285
12544TIP3    H159047   1.518   1.330   3.986 -0.8173  3.4790  0.0673
12544TIP3    H259048   1.381   1.295   3.933  0.1648 -1.2810  0.4207
12545TIP3   OH259049   3.065   1.287   2.736  0.4159  0.1032  0.5493
12545TIP3    H159050   3.156   1.285   2.765  0.9510  0.1341 -1.0872
12545TIP3    H259051   3.038   1.195   2.735 -0.0176  0.1893  2.3470
12546TIP3   OH259052   1.362   0.339  13.970 -0.0175 -0.0079  0.1750
12546TIP3    H159053   1.385   0.313  13.881 -0.4523  2.7792 -0.7777
12546TIP3    H259054   1.401   0.426  13.981 -2.3455  0.8872  1.7004
12547TIP3   OH259055   2.201   5.486   2.520 -0.2525  0.3552  0.2048
12547TIP3    H159056   2.136   5.488   2.450 -0.3477 -0.2794  0.2639
12547TIP3    H259057   2.160   5.432   2.588 -0.6214  1.9018  1.2201
12548TIP3   OH259058   2.882   2.182   1.851 -0.6380  0.5819  0.2816
12548TIP3    H159059   2.806   2.170   1.794 -0.3714  0.1910  0.0149
12548TIP3    H259060   2.931   2.254   1.811  0.2439 -0.5661 -0.7095
12549TIP3   OH259061   4.756   0.607   4.575 -0.1603  0.3049 -0.3073
12549TIP3    H159062   4.806   0.646   4.647 -1.5515  0.3788  0.6531
12549TIP3    H259063   4.696   0.677   4.547 -1.1401 -0.4208 -0.0517
12550TIP3   OH259064   4.514   5.105  12.183  0.3528 -0.3077  0.2148
12550TIP3    H159065   4.496   5.012  12.174  0.0985 -0.3398  1.0383
12550TIP3    H259066   4.523   5.136  12.093  0.3949 -1.1153 -0.0641
12551TIP3   OH259067   1.954   6.585   3.355 -0.2924  0.2295  0.3211
12551TIP3    H159068   1.973   6.564   3.263 -0.5049  1.1599  0.0597
12551TIP3    H259069   1.943   6.499   3.397  1.2751 -0.2397 -0.1940
12552TIP3   OH259070   1.057   1.593  14.686 -0.6619 -0.1160 -0.5700
12552TIP3    H159071   1.029   1.644  14.762 -1.7328 -1.0422 -0.3086
12552TIP3    H259072   1.008   1.630  14.613 -0.7753 -0.1933 -0.5344
12553TIP3   OH259073   3.687   0.754   5.373  0.4056 -0.0126  0.2379
12553TIP3    H159074   3.737   0.752   5.455  1.5655 -0.5758 -0.4808
12553TIP3    H259075   3.678   0.848   5.354  0.9018  0.1007  0.5440
12554TIP3   OH259076   4.519   2.462  12.808  0.5224  0.1534 -0.5768
12554TIP3    H159077   4.563   2.445  12.725 -0.4894 -1.9821 -0.7181
12554TIP3    H259078   4.431   2.425  12.796 -0.6242  2.3999  0.4463
12555TIP3   OH259079   3.195   4.996  12.079 -0.0822  0.3692 -0.2549
12555TIP3    H159080   3.262   5.058  12.052  1.7229 -2.1880 -1.8965
12555TIP3    H259081   3.234   4.949  12.153 -1.7047  1.6066  1.4311
12556TIP3   OH259082   1.770   2.767   2.306  0.1061 -0.1204  0.8394
12556TIP3    H159083   1.707   2.836   2.325  0.0847  0.0122  0.2893
12556TIP3    H259084   1.770   2.712   2.384  0.7641  0.9907  1.6174
12557TIP3   OH259085   6.516   4.813  16.887 -0.4696 -0.4226  0.1651
12557TIP3    H159086   6.442   4.864  16.855 -0.8977 -2.9590 -3.1379
12557TIP3    H259087   6.477   4.739  16.932  0.1212  0.2887  1.8793
12558TIP3   OH259088   2.931   5.086  11.556 -0.4806  0.3142 -0.2203
12558TIP3    H159089   2.999   5.130  11.607  0.0685  0.6865 -1.2715
12558TIP3    H259090   2.892   5.155  11.503 -1.0392 -0.0826 -0.3337
12559TIP3   OH259091   1.172   6.514  11.139  0.0716 -0.4463  0.8338
12559TIP3    H159092   1.088   6.511  11.093  1.0464  1.4906 -1.1913
12559TIP3    H259093   1.223   6.443  11.100  0.8340  1.0830 -1.0565
12560TIP3   OH259094   4.284   6.640  16.883  0.0335 -0.3956  0.3876
12560TIP3    H159095   4.227   6.596  16.819  0.1330 -0.1339  0.1153
12560TIP3    H259096   4.284   6.583  16.959 -0.5878 -0.4074  0.3845
12561TIP3   OH259097   5.050   2.137   4.223 -0.0561  0.2406  0.3168
12561TIP3    H159098   5.123   2.192   4.252  0.6327 -0.5766  0.1718
12561TIP3    H259099   5.075   2.048   4.248  0.0371 -0.3478 -1.7088
12562TIP3   OH259100   1.296   1.910  10.895 -0.1560 -0.5047 -0.0554
12562TIP3    H159101   1.263   1.891  10.807 -1.3107 -0.3148  0.3337
12562TIP3    H259102   1.390   1.892  10.890 -0.4083 -1.5711 -1.0205
12563TIP3   OH259103   5.640   2.265   4.206 -0.6107 -0.0454 -0.0106
12563TIP3    H159104   5.593   2.322   4.266 -0.5136  0.3903 -0.3477
12563TIP3    H259105   5.715   2.317   4.177  0.9449 -1.2567  1.7086
12564TIP3   OH259106   5.943   4.148  13.570  0.4598 -0.0090  0.1478
12564TIP3    H159107   5.971   4.211  13.636  0.9545  1.0903 -1.0864
12564TIP3    H259108   5.994   4.069  13.589  0.8330  0.4016  0.8694
12565TIP3   OH259109   4.990   4.062   3.791 -0.1161  0.2239  0.0550
12565TIP3    H159110   4.962   4.092   3.704  0.8983  0.7188 -0.1035
12565TIP3    H259111   4.993   3.967   3.784 -0.2197  0.2530 -0.3922
12566TIP3   OH259112   3.271   1.250  12.215 -0.0886  0.0239  0.1891
12566TIP3    H159113   3.188   1.215  12.184 -0.0876 -0.3805  0.6331
12566TIP3    H259114   3.303   1.304  12.143 -0.4006 -0.3756 -0.2517
12567TIP3   OH259115   2.585   0.721   4.428 -0.3519 -0.0563  0.0530
12567TIP3    H159116   2.557   0.808   4.399  0.2515  0.0708 -0.1405
12567TIP3    H259117   2.662   0.701   4.376  0.6294  0.0886  1.4191
12568TIP3   OH259118   6.241   3.831  12.685  0.0033  0.0372 -0.1084
12568TIP3    H159119   6.226   3.791  12.599 -0.8740  0.0079  0.0535
12568TIP3    H259120   6.174   3.792  12.741 -0.5494  1.3847  0.1727
12569TIP3   OH259121   0.117   5.333  15.378  0.4016 -0.0884  0.4932
12569TIP3    H159122   0.133   5.423  15.348 -1.9309  0.4706  0.7747
12569TIP3    H259123   0.038   5.340  15.432  0.7496 -2.1671  1.3255
12570TIP3   OH259124   2.588   4.714  16.010  0.4086 -0.2181 -0.2038
12570TIP3    H159125   2.587   4.809  16.026  0.6623 -0.0905 -0.9068
12570TIP3    H259126   2.551   4.676  16.089 -1.5846  0.5762 -0.7162
12571TIP3   OH259127   2.011   5.277  13.705 -0.3748 -0.7262  0.1381
12571TIP3    H159128   2.038   5.359  13.747  0.3616 -0.5046 -0.7325
12571TIP3    H259129   1.922   5.263  13.736 -0.7347  0.7376 -0.1586
12572TIP3   OH259130   3.738   5.327  13.131 -0.4729  0.4970  0.0705
12572TIP3    H159131   3.663   5.285  13.090  0.5206 -0.9118 -0.3713
12572TIP3    H259132   3.738   5.293  13.220  0.3660 -0.5164 -0.3034
12573TIP3   OH259133   2.831   0.084  14.691 -0.6203 -0.1012  0.1201
12573TIP3    H159134   2.798   0.072  14.780 -0.0398 -3.0535  0.0033
12573TIP3    H259135   2.915   0.127  14.703 -0.5126 -0.5399  1.0279
12574TIP3   OH259136   0.326   5.812  17.152 -0.2309 -0.0052 -0.2112
12574TIP3    H159137   0.379   5.891  17.143 -0.6110  0.0881 -1.6199
12574TIP3    H259138   0.377   5.744  17.109 -1.5848  0.2464 -2.2937
12575TIP3   OH259139   6.097   5.080  12.127 -0.4821  0.0786 -0.1714
12575TIP3    H159140   6.070   5.109  12.040 -0.5589  0.5837  0.0190
12575TIP3    H259141   6.164   5.143  12.153 -1.0451  0.4222  0.4756
12576TIP3   OH259142   3.864   1.370   5.339  0.1240  0.4412  0.6373
12576TIP3    H159143   3.820   1.418   5.409 -0.5300  0.2879  0.3367
12576TIP3    H259144   3.820   1.398   5.259  0.2341 -0.0977  0.3848
12577TIP3   OH259145   4.675   1.245  15.883  0.1203  0.4805 -0.4850
12577TIP3    H159146   4.706   1.257  15.973  1.6036 -0.5000 -0.8519
12577TIP3    H259147   4.600   1.186  15.891  2.7813 -3.0288 -0.2386
12578TIP3   OH259148   0.668   3.710   0.278  0.1835  0.0018  0.3443
12578TIP3    H159149   0.616   3.634   0.250 -0.9222  0.5128  0.9698
12578TIP3    H259150   0.719   3.678   0.352 -0.0278 -0.2206  0.3927
12579TIP3   OH259151   2.579   1.664   0.322 -0.0414  0.0465 -0.4127
12579TIP3    H159152   2.511   1.715   0.279  1.2498  2.9239  0.7863
12579TIP3    H259153   2.556   1.668   0.415 -0.1050 -1.8665 -0.3395
12580TIP3   OH259154   6.387   0.197  16.166 -0.1426 -0.4412 -0.7544
12580TIP3    H159155   6.335   0.155  16.098 -0.1738 -0.3395 -0.7961
12580TIP3    H259156   6.390   0.289  16.139 -0.4712 -0.3330 -0.4198
12581TIP3   OH259157   5.096   6.642   4.005  0.1868 -0.4419 -0.1269
12581TIP3    H159158   5.011   6.604   4.027 -0.7441  0.9394 -1.2031
12581TIP3    H259159   5.091   6.731   4.039  1.2554 -0.3885 -0.1030
12582TIP3   OH259160   0.158   0.733  10.879 -0.2423 -0.0407  0.0938
12582TIP3    H159161   0.235   0.702  10.832 -1.6703 -2.7117 -0.6283
12582TIP3    H259162   0.126   0.655  10.925 -2.2190  1.1253  0.7487
12583TIP3   OH259163   0.249   0.405   4.078  0.0514  0.2132  0.3715
12583TIP3    H159164   0.317   0.453   4.031 -0.5298  1.2413  0.5575
12583TIP3    H259165   0.263   0.428   4.170 -1.0005  1.0362  0.3392
12584TIP3   OH259166   2.978   5.758   2.523 -0.0413  0.5221  0.6931
12584TIP3    H159167   3.015   5.846   2.536 -1.2471  0.7463  2.9512
12584TIP3    H259168   2.934   5.738   2.606  0.4587 -2.3473  0.3284
12585TIP3   OH259169   0.028   1.990  11.823  0.5264  0.8474  0.2513
12585TIP3    H159170  -0.038   1.956  11.764 -0.3882  1.3989  0.9330
12585TIP3    H259171   0.020   2.085  11.815  1.1813  0.9143  0.3956
12586TIP3   OH259172   0.825   3.853  15.189  0.3659 -0.3394  0.2308
12586TIP3    H159173   0.768   3.929  15.174  2.1620  0.9705 -0.1776
12586TIP3    H259174   0.797   3.819  15.274 -0.3352  0.9045  0.5225
12587TIP3   OH259175   3.800   1.518   5.880 -0.8013  0.1163 -0.2833
12587TIP3    H159176   3.715   1.547   5.913 -1.7032 -2.5024 -0.1997
12587TIP3    H259177   3.855   1.515   5.958 -0.7593  1.2640 -0.2507
12588TIP3   OH259178   2.737   2.323  11.771  0.1157 -0.3115  0.2992
12588TIP3    H159179   2.778   2.374  11.701  0.2807 -0.0416  0.5922
12588TIP3    H259180   2.810   2.290  11.823 -0.0502  0.6061  1.1263
12589TIP3   OH259181   3.997   4.254  14.722  0.4241 -0.1501  0.2025
12589TIP3    H159182   4.041   4.329  14.681  1.0604 -0.1523  0.8639
12589TIP3    H259183   4.055   4.229  14.794 -1.6849  1.1310  2.4009
12590TIP3   OH259184   4.946   6.280   2.412 -0.0862  0.1968  0.4603
12590TIP3    H159185   4.959   6.209   2.350  0.6365  1.1696 -0.5128
12590TIP3    H259186   5.028   6.285   2.461 -0.9745 -1.1751  2.1619
12591TIP3   OH259187   5.478   5.825  16.432  0.0433  0.1052 -0.1027
12591TIP3    H159188   5.451   5.740  16.468  1.3564 -0.9077 -1.4571
12591TIP3    H259189   5.397   5.876  16.429 -0.5590 -0.6566  1.8545
12592TIP3   OH259190   1.187   3.772   2.568 -0.6605  0.0182  0.2061
12592TIP3    H159191   1.228   3.732   2.491 -0.0805  0.5509  0.2385
12592TIP3    H259192   1.131   3.703   2.603  0.6331 -0.8995  0.4951
12593TIP3   OH259193   6.279   0.855   5.842 -0.1533  0.4808  0.6278
12593TIP3    H159194   6.212   0.913   5.878 -1.2011  0.2300 -0.9013
12593TIP3    H259195   6.324   0.909   5.777 -0.1876  0.0186  0.2218
12594TIP3   OH259196   5.900   4.501  13.444  0.5188 -0.6342  0.1623
12594TIP3    H159197   5.849   4.442  13.498 -2.6629  0.7686 -1.1551
12594TIP3    H259198   5.844   4.578  13.433  2.9229  0.9848 -1.3783
12595TIP3   OH259199   3.465   3.732   4.685  1.0436  0.0157  0.2107
12595TIP3    H159200   3.560   3.733   4.674  1.0597 -0.6863  0.3094
12595TIP3    H259201   3.434   3.796   4.621  1.6187  0.6724  0.5749
12596TIP3   OH259202   6.754   2.273  11.536  0.4388  0.2485  0.0446
12596TIP3    H159203   6.776   2.317  11.453 -0.7606  0.5706 -0.1089
12596TIP3    H259204   6.837   2.237  11.566  1.1406  1.2539 -0.6429
12597TIP3   OH259205   6.328   5.809  11.724  0.0450 -0.1532  0.1634
12597TIP3    H159206   6.343   5.862  11.646 -1.6167 -1.8422 -1.3598
12597TIP3    H259207   6.408   5.758  11.735  0.3647  0.2432 -0.3181
12598TIP3   OH259208   4.789   6.108   4.026  0.6322  0.5744  0.0869
12598TIP3    H159209   4.877   6.088   3.994  0.7204  0.6023  0.3078
12598TIP3    H259210   4.786   6.204   4.029  0.4601  0.5792 -0.2919
12599TIP3   OH259211   1.067   1.801   2.047 -0.1791  0.2025  0.5195
12599TIP3    H159212   1.039   1.860   2.116  0.0437  0.4812  0.3703
12599TIP3    H259213   1.019   1.720   2.064 -0.7454  0.5374  0.5160
12600TIP3   OH259214   2.269   6.097  15.230 -0.3238 -0.3134  0.5952
12600TIP3    H159215   2.266   6.161  15.159 -0.8392 -1.9286 -0.8955
12600TIP3    H259216   2.247   6.146  15.308  1.5683  1.7973 -0.1412
12601TIP3   OH259217   0.364   1.491  10.840  0.1612 -1.3612  0.1451
12601TIP3    H159218   0.448   1.499  10.884  1.1204 -2.6509 -1.3794
12601TIP3    H259219   0.381   1.433  10.766 -1.5505  0.1125 -1.4879
12602TIP3   OH259220   2.368   6.587   1.351 -0.2682  0.3230  0.9739
12602TIP3    H159221   2.405   6.501   1.371 -1.7124 -0.3686  0.6636
12602TIP3    H259222   2.436   6.630   1.299  0.9521 -0.1702  2.1295
12603TIP3   OH259223   2.497   0.578   4.146 -0.8633 -0.4095  0.0125
12603TIP3    H159224   2.545   0.569   4.064 -1.0248 -1.8860  0.0541
12603TIP3    H259225   2.564   0.588   4.213 -0.6876 -0.2795 -0.1842
12604TIP3   OH259226   3.338   3.747  11.336 -1.0656 -0.0029  0.1033
12604TIP3    H159227   3.354   3.798  11.257 -0.3105  0.3782  0.5025
12604TIP3    H259228   3.301   3.665  11.304  1.6854 -0.9081 -0.8324
12605TIP3   OH259229   2.679   3.190  13.898 -0.0793  0.2165  0.0624
12605TIP3    H159230   2.637   3.116  13.856  0.0872  0.1908 -0.0568
12605TIP3    H259231   2.711   3.156  13.982 -0.0723  0.1746  0.0430
12606TIP3   OH259232   4.455   1.673  14.592 -0.4499  0.4947 -0.1021
12606TIP3    H159233   4.410   1.590  14.581 -0.1298  0.5664 -2.1439
12606TIP3    H259234   4.389   1.732  14.628 -0.8950 -0.4133  0.5789
12607TIP3   OH259235   6.245   0.081  16.568 -0.3245 -0.3447  0.1055
12607TIP3    H159236   6.165   0.114  16.527 -0.1983  0.4189  0.4644
12607TIP3    H259237   6.274   0.152  16.625  0.5944 -0.6285  0.0039
12608TIP3   OH259238   2.223   2.754   0.350 -0.0952  0.1372  0.2671
12608TIP3    H159239   2.153   2.689   0.337 -1.4543  1.5350  0.4418
12608TIP3    H259240   2.267   2.759   0.265 -0.0382 -0.9355  0.2234
12609TIP3   OH259241   5.774   5.711   4.075 -0.4781  0.3807  0.3097
12609TIP3    H159242   5.729   5.662   4.007 -2.7744  2.5196  0.2399
12609TIP3    H259243   5.793   5.645   4.143 -1.4788 -1.0170 -0.7399
12610TIP3   OH259244   5.886   1.177  10.213 -0.7478 -0.3658 -0.0833
12610TIP3    H159245   5.826   1.241  10.173 -1.0361  0.1607  1.1692
12610TIP3    H259246   5.962   1.176  10.155 -0.6070  1.3440  0.0445
12611TIP3   OH259247   1.115   4.559   5.122 -0.1212  0.3598 -0.3782
12611TIP3    H159248   1.037   4.613   5.114 -1.4919 -1.6728 -1.0167
12611TIP3    H259249   1.168   4.582   5.046  0.3184  2.3268  0.4762
12612TIP3   OH259250   6.210   2.275  10.552 -0.0065  0.1424 -0.2123
12612TIP3    H159251   6.128   2.306  10.514 -0.9348  1.1247  2.4844
12612TIP3    H259252   6.187   2.192  10.594  0.4042  0.3431  0.4095
12613TIP3   OH259253   0.279   1.483  14.753  0.2904 -0.2171 -0.1359
12613TIP3    H159254   0.277   1.471  14.658  0.0491 -0.6627 -0.0748
12613TIP3    H259255   0.196   1.527  14.772  0.9955  1.1962 -0.3109
12614TIP3   OH259256   1.512   5.684   5.893 -0.4062 -0.0358 -0.2711
12614TIP3    H159257   1.500   5.700   5.986 -0.4153  0.8517 -0.4200
12614TIP3    H259258   1.548   5.595   5.888 -0.6453 -0.1816  0.5566
12615TIP3   OH259259   4.215   5.978  12.523  0.1624 -0.5777  0.3415
12615TIP3    H159260   4.153   5.976  12.451  0.0623 -1.0246  0.4352
12615TIP3    H259261   4.163   5.953  12.600  0.4016 -0.7206  0.4591
12616TIP3   OH259262   2.235   2.150  11.356 -0.1785  0.1267  0.0396
12616TIP3    H159263   2.234   2.092  11.280 -1.8251 -1.1535  0.9885
12616TIP3    H259264   2.320   2.135  11.398 -0.2869 -1.0564 -0.1490
12617TIP3   OH259265   2.986   2.893   2.567  0.0937 -0.3523  0.1606
12617TIP3    H159266   3.003   2.830   2.638 -0.9403  0.1084  0.8334
12617TIP3    H259267   2.975   2.977   2.612  1.6763  0.3560 -0.7565
12618TIP3   OH259268   0.877   5.849  14.609 -0.0190 -0.3243 -0.1180
12618TIP3    H159269   0.791   5.860  14.649  0.3310  1.3829  0.2175
12618TIP3    H259270   0.858   5.829  14.517 -0.7772  0.8285 -0.2226
12619TIP3   OH259271   1.693   0.395   0.579  0.5072  0.0074  0.0441
12619TIP3    H159272   1.621   0.369   0.522  2.6040 -2.4616 -1.5838
12619TIP3    H259273   1.652   0.415   0.663 -1.9983 -2.0282 -0.6499
12620TIP3   OH259274   0.810   2.133   6.376  0.7741 -0.3502 -0.2915
12620TIP3    H159275   0.772   2.093   6.454  1.2492 -0.1559  0.0440
12620TIP3    H259276   0.799   2.227   6.389 -1.0585 -0.3967 -1.4492
12621TIP3   OH259277   1.468   5.373   5.775 -0.2239 -0.0276 -0.0114
12621TIP3    H159278   1.500   5.316   5.845  2.3719  0.9735 -0.3274
12621TIP3    H259279   1.519   5.347   5.698 -0.5533  1.2590 -0.6779
12622TIP3   OH259280   6.479   4.487   5.505  0.0121 -0.2460  0.2654
12622TIP3    H159281   6.538   4.513   5.575 -0.2943  3.3271 -0.7193
12622TIP3    H259282   6.403   4.545   5.514 -1.9225 -2.5355 -0.4958
12623TIP3   OH259283   3.673   2.077  14.367 -0.0737  0.3111 -0.0176
12623TIP3    H159284   3.713   2.159  14.338  0.4723  0.0906  0.1185
12623TIP3    H259285   3.580   2.087  14.344 -0.1233  1.2125  0.5249
12624TIP3   OH259286   1.664   0.431   3.127  0.0683 -0.2287  0.5099
12624TIP3    H159287   1.727   0.397   3.063  0.2712  0.7261  0.1932
12624TIP3    H259288   1.580   0.395   3.100 -0.2012  1.7670 -1.5268
12625TIP3   OH259289   3.850   4.950   0.090 -0.6157 -0.5418 -0.2497
12625TIP3    H159290   3.875   4.867   0.049  0.3131 -0.2077 -0.3488
12625TIP3    H259291   3.931   4.985   0.126 -0.9232  0.5538 -0.6108
12626TIP3   OH259292   3.624   1.887   2.702 -0.0582 -0.0479  0.1320
12626TIP3    H159293   3.577   1.969   2.721 -0.8764 -0.8379  1.5746
12626TIP3    H259294   3.585   1.856   2.620  0.2500  0.9900 -0.4179
12627TIP3   OH259295   0.212   5.377   3.312  0.0463  0.1822  0.0700
12627TIP3    H159296   0.224   5.325   3.233  2.1966 -2.1536  1.8677
12627TIP3    H259297   0.127   5.350   3.345 -0.4488  0.4881 -0.9201
12628TIP3   OH259298   2.194   6.339   4.840 -0.2013  0.0667  0.3369
12628TIP3    H159299   2.204   6.434   4.844  1.6110 -0.0535 -0.7727
12628TIP3    H259300   2.228   6.308   4.923 -2.5956  0.4906  1.5223
12629TIP3   OH259301   3.907   1.225   2.352  0.3220 -0.1328  0.0247
12629TIP3    H159302   3.923   1.145   2.401 -1.3909 -1.2743 -1.2084
12629TIP3    H259303   3.864   1.284   2.414  0.7489 -0.5087  0.6778
12630TIP3   OH259304   0.946   4.690  12.328  0.2801  0.3967  0.2652
12630TIP3    H159305   0.987   4.663  12.245  0.5167 -0.6821  0.7190
12630TIP3    H259306   0.975   4.780  12.341  1.1336  0.2074 -0.2847
12631TIP3   OH259307   5.000   6.306  15.484 -0.0467  0.2809 -0.1070
12631TIP3    H159308   5.001   6.298  15.580  1.4508 -2.6850 -0.3258
12631TIP3    H259309   5.089   6.336  15.462 -0.2262  0.4454 -0.6051
12632TIP3   OH259310   5.077   5.631  14.687  0.1746  0.3895  0.0212
12632TIP3    H159311   5.100   5.651  14.597 -0.9117  0.6851 -0.1978
12632TIP3    H259312   5.034   5.545  14.683  0.5977  0.1605  0.3259
12633TIP3   OH259313   6.367   5.221  14.140  0.7704  0.2208  0.2678
12633TIP3    H159314   6.461   5.210  14.153  0.5947 -2.0907 -0.1234
12633TIP3    H259315   6.327   5.190  14.221  0.2977 -0.4158 -0.1967
12634TIP3   OH259316   5.315   0.718   1.860 -0.4361  0.3788  0.2418
12634TIP3    H159317   5.363   0.800   1.851 -0.7628  0.5218 -0.2403
12634TIP3    H259318   5.237   0.741   1.910 -1.9472  0.9647 -2.2822
12635TIP3   OH259319   5.558   0.932   0.845 -0.2573  0.1129  0.0003
12635TIP3    H159320   5.523   0.959   0.760 -0.2646  0.6680  0.1740
12635TIP3    H259321   5.557   0.837   0.843 -1.0916  0.1211 -0.2864
12636TIP3   OH259322   1.498   1.894  11.895  0.4120  0.3140  0.2416
12636TIP3    H159323   1.570   1.940  11.852  0.1423  1.8358  1.3885
12636TIP3    H259324   1.478   1.947  11.971 -2.8301  0.6374 -0.7642
12637TIP3   OH259325   4.346   5.248   1.888  0.2764 -0.4439  0.7498
12637TIP3    H159326   4.409   5.178   1.906  1.2470  0.0688 -0.5707
12637TIP3    H259327   4.400   5.328   1.887 -0.3992  0.0056 -0.3342
12638TIP3   OH259328   5.634   3.956  15.758 -0.1993 -0.2434 -0.2837
12638TIP3    H159329   5.563   3.918  15.706  0.4650 -0.1436 -1.2861
12638TIP3    H259330   5.697   3.988  15.693  0.9400 -0.6674  0.5849
12639TIP3   OH259331   1.484   3.344  15.398 -0.6601 -0.6541 -0.2933
12639TIP3    H159332   1.470   3.253  15.424  1.6498 -0.9594 -0.0244
12639TIP3    H259333   1.542   3.338  15.323 -2.6190  0.5111 -1.9662
12640TIP3   OH259334   2.225   1.404   4.910  0.8034 -0.1170  0.1795
12640TIP3    H159335   2.286   1.335   4.938  0.6535 -0.3673 -0.1127
12640TIP3    H259336   2.178   1.427   4.991  1.9667  0.7723  0.6102
12641TIP3   OH259337   0.875   6.780  16.009  0.7439  0.2004 -0.5321
12641TIP3    H159338   0.836   6.757  15.925 -2.5983 -1.0133  1.2483
12641TIP3    H259339   0.847   6.871  16.024  0.5080  0.0840 -0.2731
12642TIP3   OH259340   2.765   1.147   1.405  0.3983  0.0009  0.2519
12642TIP3    H159341   2.843   1.091   1.409  1.2298  1.0319 -0.9311
12642TIP3    H259342   2.702   1.098   1.353  0.8472 -0.1464 -0.1480
12643TIP3   OH259343   0.051   3.590   2.451 -0.4892 -0.5225 -0.4269
12643TIP3    H159344  -0.037   3.552   2.448 -0.1973 -1.4151  1.4181
12643TIP3    H259345   0.047   3.652   2.523  0.7144 -1.4192  0.4282
12644TIP3   OH259346   6.182   2.511   3.034  0.6250  0.2026 -0.1016
12644TIP3    H159347   6.165   2.600   3.002  0.7257 -0.6134 -2.5113
12644TIP3    H259348   6.106   2.491   3.090  0.6638  1.8194  0.5826
12645TIP3   OH259349   2.902   6.562   0.106  0.0799 -0.0190 -0.0253
12645TIP3    H159350   2.839   6.552   0.035  1.1137  0.6420 -1.0548
12645TIP3    H259351   2.984   6.582   0.062  0.6176  0.9484  1.3932
12646TIP3   OH259352   5.793   3.910  17.122 -0.0158 -0.1547  0.3342
12646TIP3    H159353   5.747   3.834  17.087 -1.1228  0.1186  1.1787
12646TIP3    H259354   5.848   3.875  17.193 -1.8015  0.0581  1.8564
12647TIP3   OH259355   5.688   4.250   3.400 -0.1719  0.7082 -0.1794
12647TIP3    H159356   5.689   4.208   3.314 -0.6831 -0.2838  0.2942
12647TIP3    H259357   5.777   4.237   3.434 -1.1784 -2.8148  1.2981
12648TIP3   OH259358   4.084   5.215  15.091  0.2483  0.5879  0.4614
12648TIP3    H159359   4.089   5.181  15.002  1.1231  1.5455  0.1408
12648TIP3    H259360   4.026   5.154  15.136 -0.6221  0.3902 -0.8936
12649TIP3   OH259361   4.568   4.507   4.471  0.2949  0.6351 -0.2300
12649TIP3    H159362   4.605   4.443   4.409  0.0636  1.2928 -1.0599
12649TIP3    H259363   4.476   4.483   4.477  0.3310  0.5325 -0.0934
12650TIP3   OH259364   2.140   0.693  15.112  0.0136 -0.2603 -0.3566
12650TIP3    H159365   2.046   0.704  15.129  0.4064  1.3395  0.8657
12650TIP3    H259366   2.175   0.661  15.195  0.5079 -1.1570 -0.9069
12651TIP3   OH259367   5.481   5.753   0.858  0.3371  0.1303 -0.0068
12651TIP3    H159368   5.431   5.738   0.778  3.2026  1.5938 -2.1555
12651TIP3    H259369   5.437   5.826   0.900 -0.2716  0.3827 -1.0705
12652TIP3   OH259370   2.722   6.539   4.811 -0.3985  0.2208 -0.4361
12652TIP3    H159371   2.734   6.605   4.879 -1.2676  1.6876 -1.6908
12652TIP3    H259372   2.742   6.584   4.729 -1.8686 -0.8210 -1.3940
12653TIP3   OH259373   2.873   1.885  16.327  0.0601  0.9763 -0.0813
12653TIP3    H159374   2.901   1.920  16.412 -0.6961  2.3961 -0.4092
12653TIP3    H259375   2.835   1.800  16.348  1.3943  0.5758  0.7957
12654TIP3   OH259376   3.245   2.502   1.260 -0.0639  0.1663  0.2588
12654TIP3    H159377   3.291   2.505   1.344  0.4536  1.1012 -0.0603
12654TIP3    H259378   3.173   2.441   1.275 -0.3195  0.7695  1.5667
12655TIP3   OH259379   6.524   0.431  12.066 -0.2514  0.0007 -0.6493
12655TIP3    H159380   6.581   0.411  12.140 -3.4103 -1.9100  1.4036
12655TIP3    H259381   6.537   0.358  12.006 -1.0461 -0.8565  0.1882
12656TIP3   OH259382   6.457   2.513   4.890  0.5321 -0.2172 -0.0445
12656TIP3    H159383   6.371   2.523   4.850  0.9994 -1.2025 -1.3278
12656TIP3    H259384   6.513   2.574   4.842  1.2836 -2.0147 -1.4948
12657TIP3   OH259385   0.119   0.338   1.704 -0.2181 -0.3027 -0.2897
12657TIP3    H159386   0.097   0.264   1.648 -1.1030  1.0353 -1.7093
12657TIP3    H259387   0.042   0.351   1.759 -0.0862 -0.3537 -0.0865
12658TIP3   OH259388   1.030   0.678   4.164 -0.0226  0.1763  0.5815
12658TIP3    H159389   1.016   0.706   4.254  0.4036  0.4869  0.5544
12658TIP3    H259390   1.097   0.739   4.130 -0.8255  0.6276 -0.2146
12659TIP3   OH259391   6.682   6.445  11.874  0.4098  1.1465 -0.2925
12659TIP3    H159392   6.658   6.416  11.962 -0.9565  0.4832 -0.8722
12659TIP3    H259393   6.776   6.427  11.867  0.2688  0.0361  0.5725
12660TIP3   OH259394   3.359   3.082   1.561 -0.1316 -0.1018 -0.3346
12660TIP3    H159395   3.372   3.002   1.509  0.5638  1.5299 -2.7478
12660TIP3    H259396   3.265   3.098   1.558 -0.2903 -0.8721  0.2527
12661TIP3   OH259397   1.732   1.819  12.459  0.4928 -0.1099  0.2100
12661TIP3    H159398   1.723   1.863  12.375 -0.1416 -2.0295 -0.7675
12661TIP3    H259399   1.671   1.865  12.517 -0.2861  0.1969 -0.8277
12662TIP3   OH259400   0.141   5.780  16.014 -0.3906  0.1175 -0.4602
12662TIP3    H159401   0.107   5.832  15.941 -0.4659  3.3930  1.7522
12662TIP3    H259402   0.221   5.740  15.981 -0.2797  1.7637 -2.2637
12663TIP3   OH259403   4.593   2.482  16.868 -0.1161 -0.2297 -0.4421
12663TIP3    H159404   4.616   2.574  16.881 -1.0562  0.0785 -0.9909
12663TIP3    H259405   4.621   2.440  16.950  1.3115  0.3402 -0.6120
12664TIP3   OH259406   3.189   4.438  14.918 -0.3453  0.0636  0.0197
12664TIP3    H159407   3.192   4.446  15.013 -1.7633  0.7585  0.0214
12664TIP3    H259408   3.208   4.346  14.901 -0.8067 -0.2203  1.0157
12665TIP3   OH259409   3.388   2.366  15.009  0.3656  0.3280  0.4867
12665TIP3    H159410   3.382   2.305  15.083  1.2851  1.0924  1.2056
12665TIP3    H259411   3.428   2.314  14.939 -1.8708 -0.8355  0.0150
12666TIP3   OH259412   3.650   6.023  13.102  0.1240 -0.0645 -0.6872
12666TIP3    H159413   3.678   5.986  13.186 -1.6787 -0.3784 -0.2097
12666TIP3    H259414   3.646   6.118  13.118  1.7516  0.0693 -1.0185
12667TIP3   OH259415   2.721   0.584   1.985  0.2323 -0.2119  0.4247
12667TIP3    H159416   2.750   0.492   1.986  0.1811 -0.2215  1.3701
12667TIP3    H259417   2.777   0.626   1.919  0.1709 -0.9498 -0.1037
12668TIP3   OH259418   6.421   0.588   5.585  0.3008 -0.2842  0.3377
12668TIP3    H159419   6.345   0.531   5.595  0.3820 -0.5065 -0.3760
12668TIP3    H259420   6.496   0.529   5.582  0.8580  0.0465  4.4132
12669TIP3   OH259421   1.392   2.423  14.284 -0.0196 -0.0330 -0.2820
12669TIP3    H159422   1.410   2.497  14.342 -0.7332 -0.6767  0.7938
12669TIP3    H259423   1.478   2.395  14.253  0.2914  0.9345 -0.3031
12670TIP3   OH259424   2.901   2.095   4.434  0.3193 -0.2585 -0.2964
12670TIP3    H159425   2.928   2.103   4.526  2.3842  0.6680 -0.9420
12670TIP3    H259426   2.848   2.015   4.431  0.0660 -0.1919  1.7266
12671TIP3   OH259427   3.339   5.525   1.217 -0.5736 -0.2744 -0.3628
12671TIP3    H159428   3.428   5.491   1.227 -0.4587  0.4606  1.1915
12671TIP3    H259429   3.288   5.477   1.283 -1.0920  0.1441 -0.4595
12672TIP3   OH259430   5.796   4.804   2.020 -0.3796 -0.6630 -0.3555
12672TIP3    H159431   5.704   4.817   1.999  0.0619 -0.3489 -2.1800
12672TIP3    H259432   5.814   4.867   2.089 -0.6548  1.8679 -2.5096
12673TIP3   OH259433   6.680   6.578  14.236 -0.7199  1.0953 -0.5773
12673TIP3    H159434   6.707   6.491  14.264 -0.0296  1.5225  0.0834
12673TIP3    H259435   6.738   6.638  14.282 -0.0211  1.8358 -2.3552
12674TIP3   OH259436   3.973   6.607   2.160  0.1289 -0.0663 -0.2378
12674TIP3    H159437   3.947   6.632   2.072  0.6316 -1.5995 -0.8400
12674TIP3    H259438   4.068   6.621   2.161  0.1796 -0.4241 -0.0706
12675TIP3   OH259439   0.787   0.902   5.361 -0.5565  0.3895  0.3275
12675TIP3    H159440   0.748   0.898   5.274  0.8944  1.7174 -0.4133
12675TIP3    H259441   0.743   0.834   5.411  0.0580 -1.7991 -2.0522
12676TIP3   OH259442   2.737   3.838  13.652 -0.8507 -0.0387  0.1924
12676TIP3    H159443   2.796   3.762  13.651 -0.2358  0.4181  1.3948
12676TIP3    H259444   2.796   3.914  13.647 -1.3929  0.3944  0.3136
12677TIP3   OH259445   2.897   2.690  12.106 -0.4531  0.2268  0.9342
12677TIP3    H159446   2.976   2.644  12.133  1.7273  3.1261 -0.2539
12677TIP3    H259447   2.896   2.683  12.011  0.0358  2.6791  0.6964
12678TIP3   OH259448   0.849   2.498   0.219  0.0430 -0.6514 -0.1893
12678TIP3    H159449   0.933   2.534   0.189  0.0384  1.1391  1.8588
12678TIP3    H259450   0.843   2.524   0.311 -1.6541 -2.8607  0.3543
12679TIP3   OH259451   5.563   0.688  14.229  0.0609  0.2721  0.1729
12679TIP3    H159452   5.630   0.620  14.219  1.8471  2.2867 -1.9508
12679TIP3    H259453   5.480   0.641  14.216  1.1933 -1.7554  0.0601
12680TIP3   OH259454   1.920   6.045  12.688 -0.6744  0.5410 -0.0989
12680TIP3    H159455   1.982   6.069  12.757 -0.0979  0.8296 -0.7084
12680TIP3    H259456   1.845   6.103  12.701 -0.5757  0.5813  0.2955
12681TIP3   OH259457   1.064   6.098  11.363  0.7005  0.0231  0.3742
12681TIP3    H159458   1.101   6.083  11.276 -1.1478  1.6423 -0.7046
12681TIP3    H259459   1.086   6.018  11.412 -0.9999 -2.3275 -2.5295
12682TIP3   OH259460   1.046   4.630  12.074 -0.1923 -0.1482 -0.0059
12682TIP3    H159461   1.084   4.614  11.988 -1.7930  2.2278 -1.1829
12682TIP3    H259462   0.972   4.569  12.079  0.2164 -0.6553 -0.0866
12683TIP3   OH259463   0.837   3.561  14.914 -0.2100 -0.6827 -0.0056
12683TIP3    H159464   0.758   3.565  14.860 -0.5874  0.5835  0.6039
12683TIP3    H259465   0.840   3.471  14.946 -0.1159 -1.3746 -1.9171
12684TIP3   OH259466   5.934   4.865  12.131  0.0560  0.3692  0.1277
12684TIP3    H159467   5.988   4.943  12.146  0.4405  0.1999 -0.3726
12684TIP3    H259468   5.990   4.806  12.081  0.0770 -0.6075  1.2800
12685TIP3   OH259469   4.642   5.161   3.447  0.1535  0.5591  0.6839
12685TIP3    H159470   4.725   5.206   3.465  0.0562  0.7180  0.7351
12685TIP3    H259471   4.668   5.072   3.423  0.3308  0.5667  0.8429
12686TIP3   OH259472   0.210   0.670  15.660  0.4753  0.0259  0.1826
12686TIP3    H159473   0.172   0.601  15.714 -0.4564  0.7970  0.5255
12686TIP3    H259474   0.210   0.748  15.716  1.2924  0.3749 -0.2801
12687TIP3   OH259475   5.288   1.319   6.441  0.1417  0.2265  0.4360
12687TIP3    H159476   5.200   1.338   6.410  0.6581  0.5698 -0.8779
12687TIP3    H259477   5.342   1.390   6.405  0.6740  1.0022  2.6632
12688TIP3   OH259478   5.240   3.209   0.315  0.5107  0.2612  0.1618
12688TIP3    H159479   5.265   3.177   0.229  2.6977  1.9278  0.1473
12688TIP3    H259480   5.146   3.226   0.308  0.2134 -1.7689 -1.1782
12689TIP3   OH259481   0.248   3.664   4.737  0.3958 -0.7749  0.1596
12689TIP3    H159482   0.281   3.581   4.702 -2.8751 -1.7207 -0.9188
12689TIP3    H259483   0.207   3.640   4.821  0.5264 -0.0415  0.4346
12690TIP3   OH259484   1.553   2.866  12.665  0.3894  0.2686 -0.3835
12690TIP3    H159485   1.527   2.794  12.722  0.0606  1.4177  0.9427
12690TIP3    H259486   1.644   2.845  12.641 -0.0007 -1.0420 -0.7490
12691TIP3   OH259487   4.780   5.624  16.887  0.2509  0.0269  0.0287
12691TIP3    H159488   4.761   5.531  16.897  0.5240  0.0048  0.3079
12691TIP3    H259489   4.863   5.627  16.839 -0.3646  0.1258 -1.0537
12692TIP3   OH259490   5.773   2.360   2.550  0.5604 -0.3609 -0.2205
12692TIP3    H159491   5.771   2.296   2.620 -3.1782 -0.5063 -0.3349
12692TIP3    H259492   5.691   2.345   2.501 -0.1152  3.9566 -0.6623
12693TIP3   OH259493   2.489   6.342   1.371 -0.2057  0.5666  0.1990
12693TIP3    H159494   2.517   6.274   1.311  0.7028  0.1601  1.0664
12693TIP3    H259495   2.437   6.296   1.437  0.3387  0.7172  0.7381
12694TIP3   OH259496   0.967   1.309  11.851  0.6289 -0.2820  0.0980
12694TIP3    H159497   1.001   1.393  11.820 -3.5375  1.4605 -0.1225
12694TIP3    H259498   1.003   1.299  11.939  3.4854  0.2644 -0.9574
12695TIP3   OH259499   3.955   2.498  15.082 -0.1651 -0.7061 -0.0364
12695TIP3    H159500   3.977   2.537  15.166  1.8607 -0.5786 -0.5978
12695TIP3    H259501   3.860   2.505  15.076 -0.5833 -2.6444  3.1739
12696TIP3   OH259502   2.730   1.507   4.154  0.3449 -0.1876 -0.6382
12696TIP3    H159503   2.800   1.551   4.203 -0.3545  0.2792 -0.0412
12696TIP3    H259504   2.697   1.440   4.214 -1.4467  1.2887  0.0997
12697TIP3   OH259505   2.477   5.732   2.736  0.3649 -0.4303  0.0692
12697TIP3    H159506   2.412   5.803   2.734 -0.3501 -1.0669  0.4875
12697TIP3    H259507   2.456   5.682   2.815  1.3303 -0.6818  0.1711
12698TIP3   OH259508   5.408   3.542  16.681  0.2484  0.2143 -0.1029
12698TIP3    H159509   5.324   3.582  16.704 -0.2930 -0.8954 -0.1374
12698TIP3    H259510   5.458   3.614  16.642 -1.2760  0.5342 -1.5555
12699TIP3   OH259511   2.621   4.481  13.403  0.1436 -0.4408  0.8346
12699TIP3    H159512   2.661   4.530  13.331  1.3148 -0.6143  1.3441
12699TIP3    H259513   2.532   4.517  13.411 -0.0154 -0.4791 -0.7355
12700TIP3   OH259514   1.617   5.794  14.632 -0.0937 -0.1375 -0.7179
12700TIP3    H159515   1.592   5.880  14.598  0.8616  0.2417 -0.4795
12700TIP3    H259516   1.638   5.743  14.554 -0.8493 -0.2081 -0.8709
12701TIP3   OH259517   0.072   4.753   5.537  0.5339 -0.2559 -0.1963
12701TIP3    H159518   0.093   4.813   5.609  2.2370  0.9998 -1.6913
12701TIP3    H259519   0.135   4.681   5.547  0.6760 -0.1527 -0.3668
12702TIP3   OH259520   3.386   3.917  11.116  0.1326 -0.1391  0.1349
12702TIP3    H159521   3.359   3.862  11.043 -0.0090 -0.3797  0.3657
12702TIP3    H259522   3.354   4.004  11.095 -2.6874 -0.8349  1.4000
12703TIP3   OH259523   3.106   5.780   1.299 -0.1412  0.0717  0.0964
12703TIP3    H159524   3.186   5.828   1.278 -1.2142  2.3879  1.1194
12703TIP3    H259525   3.123   5.744   1.386 -0.7993  1.9784  1.0433
12704TIP3   OH259526   2.428   5.509   1.061  0.3285  0.8639 -0.1322
12704TIP3    H159527   2.462   5.598   1.055  0.8783  0.6937  0.4687
12704TIP3    H259528   2.438   5.474   0.972  1.1585  1.0175 -0.1044
12705TIP3   OH259529   1.999   3.211   5.105  0.1162  0.7792  0.4711
12705TIP3    H159530   1.980   3.195   5.197  0.4263 -1.1046  0.2320
12705TIP3    H259531   2.088   3.179   5.092 -1.5158 -3.3305 -1.4628
12706TIP3   OH259532   5.253   1.890  11.022 -0.1750  0.3428  0.0030
12706TIP3    H159533   5.170   1.844  11.005 -1.3361  2.1089  0.7293
12706TIP3    H259534   5.280   1.859  11.109  0.2816 -0.7247 -0.5099
12707TIP3   OH259535   5.672   2.399   3.913 -0.7151 -0.2960 -0.0518
12707TIP3    H159536   5.671   2.303   3.908  0.0022 -0.3146  0.0741
12707TIP3    H259537   5.755   2.419   3.956 -0.3768  0.4192 -1.0167
12708TIP3   OH259538   1.407   2.226  12.516  0.0081 -0.2269 -0.2579
12708TIP3    H159539   1.356   2.218  12.435 -1.4803  0.5331  0.5836
12708TIP3    H259540   1.347   2.198  12.585  0.7242  0.7151  0.7543
12709TIP3   OH259541   2.539   2.033   6.005  0.0954  0.1434 -0.0451
12709TIP3    H159542   2.554   2.046   5.912  0.7603  0.2644  0.0797
12709TIP3    H259543   2.456   2.077   6.022  0.5377  1.1114 -0.3510
12710TIP3   OH259544   5.784   2.782   4.866 -0.3635  0.4600 -0.4162
12710TIP3    H159545   5.840   2.724   4.815 -0.0244  0.6453 -0.2635
12710TIP3    H259546   5.705   2.792   4.814 -0.3083  0.0826 -0.5714
12711TIP3   OH259547   1.257   3.595  16.592  0.4161 -0.7501 -0.2125
12711TIP3    H159548   1.164   3.606  16.575  0.2578 -2.2843 -0.3896
12711TIP3    H259549   1.283   3.520  16.539  1.8265 -0.1232 -0.4245
12712TIP3   OH259550   2.766   4.846   0.909  0.3294  0.0939 -0.5723
12712TIP3    H159551   2.706   4.902   0.957 -0.8324  0.6392 -2.5834
12712TIP3    H259552   2.710   4.791   0.854  1.5641 -1.0623 -0.7220
12713TIP3   OH259553   6.747   6.526   3.386  0.0398  0.0757  0.7681
12713TIP3    H159554   6.759   6.571   3.303  1.8754  0.1914  1.0904
12713TIP3    H259555   6.663   6.480   3.376  1.5343 -2.1673 -2.1847
12714TIP3   OH259556   4.222   3.476  11.865  0.0633 -0.0058  0.2393
12714TIP3    H159557   4.133   3.481  11.831  0.4495  0.3897 -0.7363
12714TIP3    H259558   4.241   3.382  11.867  0.2143 -0.0259 -1.1691
12715TIP3   OH259559   0.579   6.674   0.145  0.2949  0.9057  0.3745
12715TIP3    H159560   0.507   6.621   0.112  1.4286 -1.1349  1.0762
12715TIP3    H259561   0.537   6.736   0.205 -0.7835 -0.9297  1.5772
12716TIP3   OH259562   4.540   5.278   4.577  0.0987  0.0277  0.4060
12716TIP3    H159563   4.598   5.214   4.534 -0.1579 -1.5334  2.2919
12716TIP3    H259564   4.462   5.227   4.600 -0.2168  1.0769  1.7143
12717TIP3   OH259565   1.089   1.821   3.337  0.5799 -0.2291 -0.6532
12717TIP3    H159566   1.110   1.891   3.275  1.8334  0.0891  0.0934
12717TIP3    H259567   1.175   1.791   3.369 -0.0572  0.2741  1.6377
12718TIP3   OH259568   2.854   0.345   3.537 -0.0196  0.2948 -1.0411
12718TIP3    H159569   2.762   0.370   3.548 -0.3889 -1.3984 -0.1824
12718TIP3    H259570   2.894   0.361   3.622  0.3859  0.6380 -1.2962
12719TIP3   OH259571   1.337   6.064   5.710 -0.9314 -0.2325  0.0638
12719TIP3    H159572   1.288   6.146   5.699  0.8504  1.2684  2.8439
12719TIP3    H259573   1.287   6.015   5.775  1.5708  1.6815  3.5753
12720TIP3   OH259574   1.725   5.571  10.770 -0.2298  0.3370 -0.3236
12720TIP3    H159575   1.783   5.504  10.735 -0.5207  1.2232 -2.5477
12720TIP3    H259576   1.636   5.540  10.752 -0.3837  0.8381 -0.4526
12721TIP3   OH259577   5.047   2.533   2.964  0.2957 -0.0896  0.0778
12721TIP3    H159578   5.091   2.598   2.910  0.0761 -0.6743 -0.8055
12721TIP3    H259579   5.100   2.453   2.954 -0.8832 -0.7520 -0.8653
12722TIP3   OH259580   4.074   0.569   0.350 -0.7697  0.1029 -0.4095
12722TIP3    H159581   4.047   0.512   0.422 -2.0859  0.9428 -0.2180
12722TIP3    H259582   4.169   0.574   0.357 -0.9301  0.6828  1.6423
12723TIP3   OH259583   5.856   3.873   0.781  0.0820  0.1698 -0.6194
12723TIP3    H159584   5.773   3.911   0.811  1.6467  1.2631  2.6005
12723TIP3    H259585   5.901   3.945   0.737 -0.0985 -0.0333 -1.1350
12724TIP3   OH259586   1.620   5.450  17.005 -0.0810 -0.5817  0.4656
12724TIP3    H159587   1.554   5.509  17.042 -1.6461 -2.9438  1.5209
12724TIP3    H259588   1.679   5.432  17.079 -0.1020 -1.0331  0.3693
12725TIP3   OH259589   5.712   1.452   1.454  0.6211 -0.0043  0.1908
12725TIP3    H159590   5.689   1.426   1.543 -1.0029  0.9327  0.0622
12725TIP3    H259591   5.805   1.475   1.458  0.9362 -1.4384  1.2961
12726TIP3   OH259592   4.615   6.604   2.392 -0.5145  0.3916  0.2074
12726TIP3    H159593   4.639   6.685   2.347  2.2286 -0.8596 -0.7128
12726TIP3    H259594   4.625   6.624   2.485 -1.1092  1.4742  0.0439
12727TIP3   OH259595   6.676   6.514   6.190  0.6196  0.6925 -0.0190
12727TIP3    H159596   6.709   6.594   6.232  1.7058 -0.6735  1.8452
12727TIP3    H259597   6.755   6.465   6.168 -0.0084  0.6839 -2.2833
12728TIP3   OH259598   6.726   0.771   4.935 -0.1690 -0.1236 -0.1627
12728TIP3    H159599   6.650   0.828   4.930 -1.6166 -1.9364  0.6447
12728TIP3    H259600   6.750   0.770   5.027 -0.4257 -1.1400 -0.0998
12729TIP3   OH259601   2.496   6.612   0.160 -0.3836  0.3212 -0.1037
12729TIP3    H159602   2.581   6.637   0.198 -1.3059  0.5256  1.8755
12729TIP3    H259603   2.449   6.695   0.151 -1.6066 -0.1470  1.8810
12730TIP3   OH259604   3.658   5.900   1.113 -0.9271 -0.4051  0.1999
12730TIP3    H159605   3.586   5.839   1.098 -2.1757  1.4022 -1.4200
12730TIP3    H259606   3.616   5.986   1.119  1.1456  0.8081 -1.7737
12731TIP3   OH259607   5.169   2.496  17.157 -0.4509 -0.4452  0.0321
12731TIP3    H159608   5.143   2.424  17.100  0.8916 -2.3159  1.7233
12731TIP3    H259609   5.107   2.494  17.230  0.8922 -1.2802  1.1717
12732TIP3   OH259610   0.209   4.138  11.471  0.3180 -0.1182  0.2977
12732TIP3    H159611   0.125   4.172  11.503  0.4344  0.0286  0.4508
12732TIP3    H259612   0.194   4.045  11.457 -0.8964  0.5096 -3.0153
12733TIP3   OH259613   4.176   2.903   2.637 -0.1543 -0.2993 -0.6774
12733TIP3    H159614   4.081   2.889   2.641 -0.5391  2.2629  0.3701
12733TIP3    H259615   4.190   2.983   2.688  2.6246 -0.8335 -0.5524
12734TIP3   OH259616   1.767   1.937  14.790  0.2021  0.5000 -0.4016
12734TIP3    H159617   1.728   1.933  14.877  0.8469  0.6515 -0.1036
12734TIP3    H259618   1.773   2.031  14.771  0.5086  0.4777 -0.4104
12735TIP3   OH259619   4.908   4.875  16.161 -0.4926  0.0940 -0.6306
12735TIP3    H159620   4.990   4.922  16.171 -0.7322  0.4600 -0.3762
12735TIP3    H259621   4.840   4.939  16.184 -1.0309  0.7324 -3.6972
12736TIP3   OH259622   6.195   3.145  13.906  0.2619  0.1795  0.4735
12736TIP3    H159623   6.208   3.056  13.939 -0.6867 -0.7858 -1.6829
12736TIP3    H259624   6.118   3.139  13.849  1.8009  1.7931 -1.8611
12737TIP3   OH259625   3.095   4.700  10.531  0.1452  0.1252 -0.5256
12737TIP3    H159626   3.163   4.767  10.518  0.0489  0.2174 -0.5492
12737TIP3    H259627   3.016   4.739  10.496  0.1638 -0.1440 -0.8685
12738TIP3   OH259628   1.528   2.495   2.453  0.3827  0.5710 -0.2591
12738TIP3    H159629   1.464   2.467   2.519 -0.2988  3.1912  0.2770
12738TIP3    H259630   1.479   2.492   2.370  0.4584 -0.2394 -0.2773
12739TIP3   OH259631   3.926   5.094   1.106  0.2398 -0.2586  0.1256
12739TIP3    H159632   3.860   5.141   1.055  0.6489  1.3005  1.0231
12739TIP3    H259633   3.977   5.047   1.040  1.5488  2.7186 -1.0664
12740TIP3   OH259634   0.593   3.725  16.968 -0.1676  0.2277  0.0941
12740TIP3    H159635   0.555   3.684  17.045 -0.6846  0.7621  0.1227
12740TIP3    H259636   0.530   3.708  16.898 -0.3368  0.8841  0.0835
12741TIP3   OH259637   2.406   2.452  12.065  0.1476 -0.2540  0.3991
12741TIP3    H159638   2.333   2.514  12.059 -0.0133 -0.5535 -0.6747
12741TIP3    H259639   2.483   2.508  12.072 -0.0940  0.0681  0.5259
12742TIP3   OH259640   4.986   6.575   0.463  0.2269 -0.2259  0.2971
12742TIP3    H159641   5.025   6.510   0.404  0.4430  1.1501 -1.1121
12742TIP3    H259642   5.024   6.556   0.548  0.8241 -1.5048 -0.2349
12743TIP3   OH259643   4.099   4.884  13.049 -0.6173 -0.3433  0.2415
12743TIP3    H159644   4.109   4.975  13.023 -0.2979 -0.1486  1.0339
12743TIP3    H259645   4.183   4.843  13.028 -0.8552 -0.5248 -0.3750
12744TIP3   OH259646   5.901   2.417   3.635  0.2239 -0.3695  0.3553
12744TIP3    H159647   5.972   2.431   3.572  1.9702 -2.2750  1.7912
12744TIP3    H259648   5.852   2.343   3.600 -1.0135  0.8552 -0.5621
12745TIP3   OH259649   4.666   3.833   2.035 -0.4253 -0.3493  0.0680
12745TIP3    H159650   4.593   3.873   2.084 -0.3566 -2.1223  1.6695
12745TIP3    H259651   4.652   3.739   2.044  0.7790 -0.7125 -1.6091
12746TIP3   OH259652   3.208   1.664  16.193  0.2084 -0.2538 -0.6057
12746TIP3    H159653   3.148   1.689  16.123 -2.0456 -2.1020  0.6309
12746TIP3    H259654   3.281   1.621  16.147 -1.4843 -1.9067 -1.7991
12747TIP3   OH259655   0.515   5.338   6.298  0.6533  0.0339 -0.4554
12747TIP3    H159656   0.577   5.342   6.225  1.3863 -2.1261  0.0153
12747TIP3    H259657   0.560   5.287   6.365 -1.4604 -1.1797  0.0745
12748TIP3   OH259658   5.647   1.113   4.220  0.4662  0.9981 -0.1079
12748TIP3    H159659   5.568   1.155   4.252  1.4478  1.9921  1.0210
12748TIP3    H259660   5.650   1.136   4.127  0.3323  2.3945  0.2210
12749TIP3   OH259661   3.730   0.051   3.835 -0.1741  0.0687 -0.0812
12749TIP3    H159662   3.733   0.140   3.870 -1.9015 -0.1107  0.5554
12749TIP3    H259663   3.806   0.045   3.777 -0.0055  1.9328 -0.0658
12750TIP3   OH259664   3.737   6.385   6.615 -0.2364 -0.1812 -0.0962
12750TIP3    H159665   3.794   6.308   6.627  0.2404  0.6118  3.2232
12750TIP3    H259666   3.791   6.447   6.565  0.8113 -0.5173  0.5891
12751TIP3   OH259667   3.030   4.656   2.509  0.2088  0.6002 -0.1543
12751TIP3    H159668   3.037   4.591   2.579  1.4645  0.3315 -0.5162
12751TIP3    H259669   3.092   4.626   2.442 -0.6127  1.1231 -1.1732
12752TIP3   OH259670   1.097   0.397   5.715  0.1156 -0.7642 -0.2272
12752TIP3    H159671   1.146   0.446   5.648  0.2904 -1.0107 -0.2781
12752TIP3    H259672   1.012   0.380   5.675  0.0721 -0.5456 -0.2289
12753TIP3   OH259673   3.533   5.624  15.375 -0.7005  0.2522  0.3898
12753TIP3    H159674   3.533   5.542  15.423  0.3401 -0.4691 -0.8345
12753TIP3    H259675   3.625   5.643  15.359 -0.9613  1.3544  0.1513
12754TIP3   OH259676   3.570   5.110   5.890  0.1370 -0.2137  0.1143
12754TIP3    H159677   3.633   5.175   5.861  0.7723 -0.5677  0.6941
12754TIP3    H259678   3.570   5.043   5.822  0.2764 -0.1415  0.0442
12755TIP3   OH259679   1.263   0.801  11.044  0.0183 -0.4825  0.0529
12755TIP3    H159680   1.195   0.748  11.086 -0.6247  0.8856  0.7488
12755TIP3    H259681   1.293   0.860  11.112 -0.7543  1.5011 -1.2816
12756TIP3   OH259682   6.728   4.552   5.332 -0.1877  0.0141  0.1497
12756TIP3    H159683   6.758   4.496   5.404  1.5177  0.7718  0.0587
12756TIP3    H259684   6.658   4.502   5.290 -0.4188 -0.9308  1.6321
12757TIP3   OH259685   3.419   4.967  13.332  0.3748  0.1526  0.4131
12757TIP3    H159686   3.362   5.026  13.381  1.3783  0.9894  0.5746
12757TIP3    H259687   3.388   4.880  13.355 -1.4052  0.6175 -0.1697
12758TIP3   OH259688   3.741   0.499  16.707  0.6528 -0.1420  0.3219
12758TIP3    H159689   3.809   0.512  16.773  0.9168  0.3083 -0.0375
12758TIP3    H259690   3.663   0.540  16.746  0.3733 -1.3656  1.0846
12759TIP3   OH259691   5.515   6.180   3.025  0.1118  0.3494  0.5077
12759TIP3    H159692   5.549   6.091   3.013  0.6263  0.5846  0.1851
12759TIP3    H259693   5.423   6.168   3.049  0.1291 -0.2642  0.2709
12760TIP3   OH259694   2.471   4.299   4.967  0.3697 -0.4680 -0.0035
12760TIP3    H159695   2.472   4.204   4.954  0.8647 -0.3286 -1.0722
12760TIP3    H259696   2.522   4.333   4.893  0.5854  0.5966  0.6321
12761TIP3   OH259697   3.717   1.814  10.879 -0.8809 -0.5874 -0.0223
12761TIP3    H159698   3.635   1.863  10.885 -0.0351  0.9743 -0.9480
12761TIP3    H259699   3.722   1.786  10.788  0.2248  0.4386 -0.2911
12762TIP3   OH259700   2.605   4.289   0.979  0.1439 -0.4459 -0.7613
12762TIP3    H159701   2.672   4.233   1.018  0.9794 -0.4716 -2.1961
12762TIP3    H259702   2.567   4.236   0.909 -2.4798 -1.0093  1.0237
12763TIP3   OH259703   0.672   5.546   1.749  0.2619 -0.4775  0.2295
12763TIP3    H159704   0.593   5.553   1.803 -0.0223 -0.1750 -0.2186
12763TIP3    H259705   0.672   5.455   1.718  1.4682 -1.1997  2.3047
12764TIP3   OH259706   0.596   2.338   3.294  0.4407 -0.4393 -0.1930
12764TIP3    H159707   0.627   2.327   3.384 -1.4246  2.4805  0.8573
12764TIP3    H259708   0.532   2.267   3.283  0.2539 -0.4719  0.9747
12765TIP3   OH259709   6.282   6.569  17.094  0.5006  0.4387  0.3242
12765TIP3    H159710   6.340   6.623  17.148  3.0225  0.2201 -2.0255
12765TIP3    H259711   6.230   6.632  17.044 -0.2947  0.6522  1.4184
12766TIP3   OH259712   1.347   0.100   3.260  0.0828  0.9842 -0.3349
12766TIP3    H159713   1.355   0.120   3.354 -1.4911  2.0986 -0.4314
12766TIP3    H259714   1.266   0.050   3.253  1.3317 -1.0217 -0.8232
12767TIP3   OH259715   2.264   5.320   5.335 -0.1121  0.2334  0.1455
12767TIP3    H159716   2.263   5.235   5.379  1.4972 -0.6617 -1.5057
12767TIP3    H259717   2.313   5.377   5.395  0.8459 -0.6147  0.1753
12768TIP3   OH259718   6.214   3.935  13.983 -1.2070 -0.1776  0.1886
12768TIP3    H159719   6.244   3.872  13.917 -1.2074 -0.2480  0.2565
12768TIP3    H259720   6.291   3.988  14.001 -1.6385  0.9095 -1.0876
12769TIP3   OH259721   5.810   1.157  12.708 -0.2677 -0.0736 -0.1580
12769TIP3    H159722   5.791   1.109  12.788 -0.8513 -0.7455 -0.6920
12769TIP3    H259723   5.902   1.140  12.690 -0.1474  0.0515  0.3500
12770TIP3   OH259724   4.442   2.010  15.375  0.2130 -0.1396  0.2617
12770TIP3    H159725   4.407   1.967  15.297  0.2975 -0.6862  0.5211
12770TIP3    H259726   4.377   1.991  15.443 -0.3723  1.1987  0.0804
12771TIP3   OH259727   1.093   3.431  15.497 -0.3162  0.3653  0.0328
12771TIP3    H159728   1.156   3.431  15.568 -3.3568 -0.6033  2.8799
12771TIP3    H259729   1.095   3.520  15.462  1.1728  0.8703  1.3760
12772TIP3   OH259730   5.407   4.554   6.576 -0.4770 -0.8611  0.5354
12772TIP3    H159731   5.494   4.586   6.555  0.0738 -1.4493  1.8686
12772TIP3    H259732   5.386   4.593   6.661 -2.4675  1.1038 -0.7992
12773TIP3   OH259733   2.860   0.920   3.335 -0.7580 -0.2625  0.0941
12773TIP3    H159734   2.904   0.913   3.250  1.6816 -2.4565  1.4338
12773TIP3    H259735   2.774   0.882   3.321  0.6977 -3.4282 -0.7545
12774TIP3   OH259736   5.435   2.504  13.907 -0.2171  1.0834 -0.4682
12774TIP3    H159737   5.429   2.455  13.825  1.8221  3.7206 -2.2997
12774TIP3    H259738   5.486   2.448  13.965 -0.7750 -0.3647 -1.3578
12775TIP3   OH259739   2.088   5.698   0.774  0.1916  0.2040 -0.0650
12775TIP3    H159740   2.160   5.693   0.711 -1.6696  0.5714 -2.2850
12775TIP3    H259741   2.073   5.607   0.800  1.9981  0.2123  1.0949
12776TIP3   OH259742   0.372   0.252  16.675 -0.0890 -0.1354  0.1993
12776TIP3    H159743   0.355   0.161  16.698  1.6249 -0.9311 -1.5768
12776TIP3    H259744   0.294   0.281  16.629 -0.0752 -1.1459 -0.4612
12777TIP3   OH259745   6.111   6.123  14.030 -0.4473 -0.2222  0.3101
12777TIP3    H159746   6.113   6.204  13.978 -1.3415 -0.9391 -0.8739
12777TIP3    H259747   6.091   6.152  14.119  0.5607  0.9845  0.1625
12778TIP3   OH259748   4.716   1.439  14.219  0.2292 -0.0947 -0.3999
12778TIP3    H159749   4.623   1.443  14.194  0.1228 -0.1960 -0.0294
12778TIP3    H259750   4.727   1.350  14.253  0.9844 -0.8250 -2.4967
12779TIP3   OH259751   0.418   5.277   1.423 -0.5184  0.2661  0.2541
12779TIP3    H159752   0.335   5.232   1.410  0.5202 -1.6224  0.0523
12779TIP3    H259753   0.396   5.370   1.413 -2.5488 -0.2105 -0.0035
12780TIP3   OH259754   5.008   5.888   2.572 -0.0695 -0.4755 -0.2044
12780TIP3    H159755   4.914   5.872   2.578 -0.1724 -0.4927 -1.5861
12780TIP3    H259756   5.028   5.944   2.647 -1.2937 -0.0090 -0.2185
12781TIP3   OH259757   2.554   0.370   2.824 -0.0503 -0.3328  0.7978
12781TIP3    H159758   2.618   0.441   2.832 -0.2274 -0.2094  1.1527
12781TIP3    H259759   2.586   0.316   2.752  0.0176  0.1799  0.4434
12782TIP3   OH259760   3.699   6.299   2.405 -0.1205  0.1185  0.2612
12782TIP3    H159761   3.637   6.316   2.334 -0.1822 -1.4273 -0.0732
12782TIP3    H259762   3.740   6.384   2.421 -2.3577  1.1814  0.5433
12783TIP3   OH259763   2.891   6.751   2.137 -0.7453 -0.2027  0.3431
12783TIP3    H159764   2.942   6.831   2.127 -1.3152  0.1727  0.3693
12783TIP3    H259765   2.825   6.773   2.203  0.4723 -1.3855  2.0036
12784TIP3   OH259766   0.063   1.905  15.059  0.6002  0.3254 -0.0750
12784TIP3    H159767  -0.016   1.956  15.045  0.6244  0.6579  0.9277
12784TIP3    H259768   0.113   1.955  15.124  2.6564  1.2512 -2.2898
12785TIP3   OH259769   5.677   4.940  15.312 -0.0035 -0.4274 -0.3007
12785TIP3    H159770   5.711   4.981  15.392  2.2479  0.6037 -1.7289
12785TIP3    H259771   5.622   4.868  15.343 -0.3020  0.8095  2.1910
12786TIP3   OH259772   2.502   5.915  14.299  0.7016  0.2052 -0.2018
12786TIP3    H159773   2.551   5.848  14.251  2.1619  2.0553 -1.3647
12786TIP3    H259774   2.546   5.997  14.277 -2.0479  1.7585 -0.0714
12787TIP3   OH259775   6.586   6.530  15.460  0.1822  0.0206 -0.4638
12787TIP3    H159776   6.681   6.534  15.464  0.1323  1.7054 -0.5049
12787TIP3    H259777   6.558   6.515  15.551  0.4192  1.4690 -0.1454
12788TIP3   OH259778   1.662   1.623   5.332 -1.1339  0.0449 -0.3721
12788TIP3    H159779   1.632   1.682   5.401 -2.6769 -0.5656 -0.4902
12788TIP3    H259780   1.706   1.552   5.378  0.8237  1.3291 -0.2384
12789TIP3   OH259781   3.856   4.765   6.238  0.2216  0.1441  0.2017
12789TIP3    H159782   3.770   4.727   6.253  0.3526 -0.6302 -0.9351
12789TIP3    H259783   3.918   4.694   6.256  0.5052  0.0357 -1.1508
12790TIP3   OH259784   4.117   1.844  16.216 -0.5640  0.5014 -0.6341
12790TIP3    H159785   4.185   1.834  16.282  1.7530 -0.1931 -3.0499
12790TIP3    H259786   4.055   1.774  16.235  1.2553 -1.1310 -0.5630
12791TIP3   OH259787   3.606   5.035   5.175 -0.6465  0.6527  0.7825
12791TIP3    H159788   3.693   5.023   5.213 -0.7092  0.2919  0.8199
12791TIP3    H259789   3.615   5.110   5.117 -0.7332  1.6671  2.0591
12792TIP3   OH259790   2.286   4.176   0.279  0.0890  0.0175  0.5565
12792TIP3    H159791   2.267   4.240   0.210  1.2101 -0.5902 -0.3225
12792TIP3    H259792   2.254   4.093   0.245  1.6151 -0.4826  0.2803
12793TIP3   OH259793   3.910   3.252  16.728  0.5571 -0.0362  0.3550
12793TIP3    H159794   3.895   3.337  16.688 -0.5690 -0.0789  0.6758
12793TIP3    H259795   3.944   3.197  16.657 -1.3212 -0.0841 -0.5255
12794TIP3   OH259796   5.678   3.125   4.565 -0.2712 -0.0567 -0.2377
12794TIP3    H159797   5.626   3.189   4.516  1.8768  1.8479 -0.0850
12794TIP3    H259798   5.748   3.099   4.505  0.2161 -0.5081  0.5171
12795TIP3   OH259799   3.801   6.753   1.622  0.0481 -0.5557 -0.3353
12795TIP3    H159800   3.852   6.683   1.662 -0.2237 -0.6177 -0.0965
12795TIP3    H259801   3.859   6.830   1.624  0.8715 -1.1153 -1.8663
12796TIP3   OH259802   0.628   4.417   3.885 -0.2731 -0.0766 -0.0730
12796TIP3    H159803   0.627   4.432   3.790 -0.0435  1.2562  0.1153
12796TIP3    H259804   0.557   4.356   3.901 -0.5041 -0.0751 -1.0736
12797TIP3   OH259805   2.100   6.516   4.578  0.0778 -0.1236 -0.0300
12797TIP3    H159806   2.030   6.451   4.584 -0.3720  0.3215 -0.4385
12797TIP3    H259807   2.181   6.465   4.581 -0.2901 -0.8103 -1.5748
12798TIP3   OH259808   0.863   0.563  11.961  0.3936  0.3505 -0.0783
12798TIP3    H159809   0.866   0.531  11.870 -0.3536 -0.5924  0.2129
12798TIP3    H259810   0.775   0.600  11.970  0.5292  0.5979  0.2139
12799TIP3   OH259811   6.773   0.120  12.296  0.6506  0.0972 -0.8191
12799TIP3    H159812   6.742   0.086  12.380  2.2072 -1.5007 -0.8578
12799TIP3    H259813   6.716   0.078  12.232  2.5093 -2.5176 -0.8621
12800TIP3   OH259814   5.896   6.435  12.879  0.9424  0.1865 -0.1712
12800TIP3    H159815   5.810   6.407  12.848  1.5894 -1.1730 -0.7937
12800TIP3    H259816   5.938   6.355  12.910  2.0580  0.7988 -0.0625
12801TIP3   OH259817   2.483   6.397   1.074  0.6241  0.2465 -0.4529
12801TIP3    H159818   2.515   6.307   1.084  1.8940  0.7088 -0.2579
12801TIP3    H259819   2.391   6.393   1.099  0.6393 -1.0330 -0.5863
12802TIP3   OH259820   3.609   0.392   5.223  0.2475 -0.0560  0.0416
12802TIP3    H159821   3.578   0.461   5.164 -1.1542 -1.4857 -0.9391
12802TIP3    H259822   3.680   0.433   5.273  0.8491  1.4661 -1.9943
12803TIP3   OH259823   3.974   6.255  14.583  0.2156  0.1149  0.0854
12803TIP3    H159824   3.909   6.213  14.525 -0.7532  1.3805  0.2268
12803TIP3    H259825   4.040   6.187  14.597 -0.4122 -0.7849 -1.1137
12804TIP3   OH259826   1.007   3.167   3.625  0.4867  0.4882  0.2761
12804TIP3    H159827   1.098   3.189   3.643  0.6019  0.2249  0.0277
12804TIP3    H259828   0.986   3.215   3.545  1.1201 -1.2463 -0.9649
12805TIP3   OH259829   1.878   2.607  14.806 -0.4419 -0.1840 -0.4178
12805TIP3    H159830   1.899   2.575  14.718  0.1564  1.5862 -0.9395
12805TIP3    H259831   1.793   2.651  14.795 -0.7227 -0.6025  0.0581
12806TIP3   OH259832   2.805   1.732   4.689 -0.7832 -0.0388  0.6079
12806TIP3    H159833   2.835   1.814   4.729  1.8923 -0.8448  0.3696
12806TIP3    H259834   2.801   1.670   4.762 -1.3083 -0.0918  0.5349
12807TIP3   OH259835   3.672   6.268   4.983  0.0815 -0.3253 -0.3078
12807TIP3    H159836   3.649   6.309   4.900 -0.9053  0.3805  0.3039
12807TIP3    H259837   3.748   6.215   4.963  1.6171  2.0759 -1.0472
12808TIP3   OH259838   0.249   5.052  11.749 -0.4009 -0.2011  0.2047
12808TIP3    H159839   0.239   4.960  11.725  0.1657  0.1333 -1.3596
12808TIP3    H259840   0.277   5.050  11.840 -1.5541 -1.5431  0.5542
12809TIP3   OH259841   0.567   5.616  15.453 -0.0829 -0.0415  0.6579
12809TIP3    H159842   0.545   5.696  15.502 -0.3756 -0.6351  1.4980
12809TIP3    H259843   0.494   5.605  15.392  0.2310  0.6399  0.1449
12810TIP3   OH259844   6.006   1.001   1.793  0.0423 -0.1801 -0.1464
12810TIP3    H159845   6.019   0.926   1.734 -0.6382  0.5408 -1.2405
12810TIP3    H259846   6.005   1.076   1.734 -1.2242  0.5053  0.7317
12811TIP3   OH259847   3.431   2.831   4.961 -0.0621  0.4243  0.0426
12811TIP3    H159848   3.439   2.736   4.956 -0.1438  0.4092  0.1916
12811TIP3    H259849   3.408   2.848   5.053  1.5897  0.6908  0.4214
12812TIP3   OH259850   5.363   5.011  11.893 -0.5031  0.2833  0.0507
12812TIP3    H159851   5.285   4.968  11.857  0.6792 -3.6880  1.9754
12812TIP3    H259852   5.433   4.988  11.832 -0.1576  0.8532  0.2308
12813TIP3   OH259853   2.513   6.108   3.362 -0.4483 -0.2513 -0.2998
12813TIP3    H159854   2.537   6.029   3.314  3.1802 -0.4915  1.7889
12813TIP3    H259855   2.565   6.177   3.320 -0.6358  0.3320  0.4266
12814TIP3   OH259856   6.066   5.839  12.615  0.2712  0.6381  0.2361
12814TIP3    H159857   6.144   5.837  12.560  0.6932  0.6273  0.8318
12814TIP3    H259858   6.083   5.909  12.678 -0.5905  1.2491 -0.1975
12815TIP3   OH259859   0.788   4.603   4.347  0.5794 -0.1240  0.2146
12815TIP3    H159860   0.845   4.602   4.270  0.6280 -0.1725  0.2506
12815TIP3    H259861   0.700   4.611   4.312  0.6558  0.6655  0.1890
12816TIP3   OH259862   1.979   4.000   1.389 -0.2051 -0.2146  0.1427
12816TIP3    H159863   2.016   4.080   1.351  0.0965 -0.1837  0.4914
12816TIP3    H259864   1.941   4.028   1.472 -1.3060 -0.1935 -0.3714
12817TIP3   OH259865   1.528   1.063   1.649  0.3840  0.2520  0.0273
12817TIP3    H159866   1.487   1.083   1.564  0.9232  1.1156 -0.0351
12817TIP3    H259867   1.541   0.968   1.647 -0.9869  0.0553 -0.2350
12818TIP3   OH259868   2.530   1.452  16.295 -0.5428 -0.7280 -0.0136
12818TIP3    H159869   2.521   1.358  16.313 -3.4626 -0.2678  1.2084
12818TIP3    H259870   2.443   1.488  16.311  0.3223  2.0795 -1.3088
12819TIP3   OH259871   6.472   3.996   0.664 -0.2066 -0.2792  0.2258
12819TIP3    H159872   6.418   3.951   0.599 -0.6003  3.0883 -1.9526
12819TIP3    H259873   6.561   3.966   0.646 -0.4666 -0.2606 -1.1827
12820TIP3   OH259874   0.243   6.527   0.854  0.1691  0.1823  0.0343
12820TIP3    H159875   0.160   6.537   0.900 -0.3666 -1.4007 -0.5794
12820TIP3    H259876   0.218   6.503   0.764  1.2728  0.3402 -0.3228
12821TIP3   OH259877   2.339   5.653   5.806  0.0501  0.0147 -0.4086
12821TIP3    H159878   2.371   5.713   5.874  1.3465 -0.1590 -0.8453
12821TIP3    H259879   2.382   5.570   5.825 -1.1536 -0.5709 -0.2594
12822TIP3   OH259880   2.398   1.279  11.582 -0.7366 -0.4959  0.4385
12822TIP3    H159881   2.425   1.350  11.640 -0.4504 -1.0941  1.0435
12822TIP3    H259882   2.471   1.217  11.584 -0.5260 -0.3186 -0.9036
12823TIP3   OH259883   5.160   2.852  12.185  0.1012  0.1246  0.6253
12823TIP3    H159884   5.187   2.774  12.235 -0.6217 -0.0928  0.6795
12823TIP3    H259885   5.070   2.868  12.213 -0.8248 -0.8727 -1.7169
12824TIP3   OH259886   4.954   6.108  12.799  0.0061  0.0640 -0.1857
12824TIP3    H159887   5.013   6.044  12.840 -1.6676 -0.0629  2.1426
12824TIP3    H259888   4.928   6.067  12.717 -0.1759 -1.7989  0.7627
12825TIP3   OH259889   3.323   0.778  16.431  0.5187  1.0052 -0.0443
12825TIP3    H159890   3.268   0.800  16.356  1.8395 -1.2246 -1.7302
12825TIP3    H259891   3.268   0.719  16.484  1.0392 -0.8299 -1.4751
12826TIP3   OH259892   6.655   0.394   1.835 -0.4574 -0.3029  0.1215
12826TIP3    H159893   6.596   0.459   1.874  2.1657  2.5674 -0.4372
12826TIP3    H259894   6.655   0.416   1.741  0.1860 -1.3473 -0.1222
12827TIP3   OH259895   5.948   6.598  16.992 -0.5836  0.1196  0.2515
12827TIP3    H159896   6.026   6.629  16.946 -0.2102  0.7160  1.2732
12827TIP3    H259897   5.881   6.665  16.973 -0.0329  1.0969  1.7144
12828TIP3   OH259898   2.319   5.454   0.792 -0.0139 -0.4469  0.4332
12828TIP3    H159899   2.299   5.382   0.732  3.1560 -0.6827 -0.4554
12828TIP3    H259900   2.409   5.479   0.770  0.0837  1.6349  2.9297
12829TIP3   OH259901   0.734   3.633   5.026 -0.1331  0.1145  0.2769
12829TIP3    H159902   0.744   3.719   4.985 -0.1564  0.0874  0.2132
12829TIP3    H259903   0.687   3.581   4.960 -2.0928  0.6830  1.1881
12830TIP3   OH259904   2.436   3.744  13.258 -0.8212 -0.1187 -0.3539
12830TIP3    H159905   2.422   3.821  13.313 -0.5335 -1.2620  1.3812
12830TIP3    H259906   2.503   3.693  13.305  0.1603 -0.6383 -2.2930
12831TIP3   OH259907   1.928   3.113   6.038 -0.4546 -0.0301 -0.5686
12831TIP3    H159908   1.930   3.188   6.097 -0.3805 -1.6501  1.5404
12831TIP3    H259909   1.994   3.053   6.072  1.7241  0.2497 -4.0694
12832TIP3   OH259910   6.572   4.130   6.785  0.2414  0.3924  0.5750
12832TIP3    H159911   6.631   4.104   6.714  0.4451  0.1226  0.8431
12832TIP3    H259912   6.498   4.070   6.779  0.1816  0.4731  0.4921
12833TIP3   OH259913   6.713   5.080   2.975  0.3406  0.2566  0.1316
12833TIP3    H159914   6.626   5.062   3.011 -0.0512 -1.5511 -1.6879
12833TIP3    H259915   6.698   5.151   2.912  0.9699  3.1689  3.0925
12834TIP3   OH259916   4.386   5.626  12.505 -0.1452  0.2550 -0.3562
12834TIP3    H159917   4.313   5.595  12.558 -1.6943  2.3853 -1.1408
12834TIP3    H259918   4.414   5.707  12.547  1.6644 -0.4350 -0.1808
12835TIP3   OH259919   1.330   0.676  11.956  0.0769  0.5312 -0.2857
12835TIP3    H159920   1.333   0.588  11.920 -0.4324 -0.1908  1.3797
12835TIP3    H259921   1.259   0.719  11.909  0.9831  0.4046 -1.8216
12836TIP3   OH259922   6.074   0.051   2.899 -0.0742  0.4223 -0.6878
12836TIP3    H159923   5.983   0.020   2.901  0.4736 -1.1846  0.0758
12836TIP3    H259924   6.097   0.061   2.992  0.4539  1.0816 -0.8863
12837TIP3   OH259925   6.217   3.464   1.046 -0.2875 -0.2062  0.4100
12837TIP3    H159926   6.152   3.406   1.006  1.0835 -2.0181  0.7617
12837TIP3    H259927   6.238   3.527   0.976 -1.2175 -0.6047 -0.2420
12838TIP3   OH259928   4.262   4.284   3.997 -0.2887  0.0172 -0.1429
12838TIP3    H159929   4.265   4.292   3.902 -1.2004  1.9454 -0.0358
12838TIP3    H259930   4.352   4.303   4.025 -0.5820  2.0812 -0.4780
12839TIP3   OH259931   5.409   0.125  15.476 -0.8146 -0.5605  0.2677
12839TIP3    H159932   5.403   0.220  15.471  0.1903 -0.4812  0.4735
12839TIP3    H259933   5.502   0.107  15.487 -0.9782 -1.5772  0.0820
12840TIP3   OH259934   1.848   6.023  14.541  0.0616 -0.0387  0.3506
12840TIP3    H159935   1.935   6.027  14.500 -0.4507  2.6048 -0.5850
12840TIP3    H259936   1.789   5.997  14.470 -0.0276 -1.1285  0.8141
12841TIP3   OH259937   2.148   0.643   5.384 -0.3470 -0.5890 -0.0031
12841TIP3    H159938   2.106   0.643   5.470  0.3369  0.2295  0.3372
12841TIP3    H259939   2.076   0.656   5.322 -0.8762 -1.4426  0.4171
12842TIP3   OH259940   0.409   5.524   1.829  0.3333 -0.8635 -0.3938
12842TIP3    H159941   0.326   5.540   1.785  0.9897  1.5092 -0.8409
12842TIP3    H259942   0.413   5.429   1.841 -2.4336 -0.9991 -0.3507
12843TIP3   OH259943   1.968   0.310  14.002  0.4758 -0.3673 -0.8570
12843TIP3    H159944   2.002   0.287  14.089 -1.2170 -0.7722 -0.2799
12843TIP3    H259945   2.043   0.346  13.955  1.4501 -0.3139  0.7178
12844TIP3   OH259946   2.701   6.456   0.691  0.0100  0.3305  0.1090
12844TIP3    H159947   2.690   6.523   0.625  1.1220  0.4318  0.0141
12844TIP3    H259948   2.619   6.407   0.690 -1.3618  2.5152  1.1416
12845TIP3   OH259949   4.756   0.886  15.031 -0.3595  0.6340 -0.1943
12845TIP3    H159950   4.824   0.819  15.029 -1.9507 -1.0343 -0.6239
12845TIP3    H259951   4.778   0.946  14.959  0.8697  0.3551 -0.0519
12846TIP3   OH259952   1.559   3.116  15.642 -0.2037 -0.4055 -0.1108
12846TIP3    H159953   1.620   3.067  15.587  1.5466 -1.3948  2.5725
12846TIP3    H259954   1.608   3.193  15.670 -0.1448 -1.1744  2.0246
12847TIP3   OH259955   3.036   4.542   4.608 -0.2432 -0.1059 -0.1814
12847TIP3    H159956   3.115   4.578   4.568  0.6872 -0.2860  1.4081
12847TIP3    H259957   3.050   4.447   4.608 -0.1341 -0.1011  0.6930
12848TIP3   OH259958   2.494   4.121   3.515  0.1163  0.3082 -0.2313
12848TIP3    H159959   2.560   4.059   3.547  1.3588  1.4199 -0.6172
12848TIP3    H259960   2.416   4.067   3.501  1.2543 -1.2227 -0.8284
12849TIP3   OH259961   2.693   4.291   3.411  0.5902  0.1821  0.4092
12849TIP3    H159962   2.625   4.224   3.419 -0.8835  1.6676  0.4474
12849TIP3    H259963   2.733   4.296   3.498  1.7155 -1.6707  0.0286
12850TIP3   OH259964   2.040   6.766  13.830  0.2551 -0.7979  0.6641
12850TIP3    H159965   2.130   6.771  13.862  1.1081 -1.7152 -1.4853
12850TIP3    H259966   2.041   6.695  13.765 -1.1950  1.4336 -1.9186
12851TIP3   OH259967   2.973   4.841  16.052 -0.7179  0.2656  0.5543
12851TIP3    H159968   2.898   4.834  16.110 -1.5537  0.3678 -0.4879
12851TIP3    H259969   2.977   4.934  16.029 -0.5216  0.1912  0.2878
12852TIP3   OH259970   5.466   4.809   5.614 -0.0225 -0.2586  0.2840
12852TIP3    H159971   5.466   4.869   5.688  3.3593  0.5813 -0.3305
12852TIP3    H259972   5.417   4.855   5.546 -0.5945  0.2245  1.0135
12853TIP3   OH259973   4.089   1.634   3.992 -0.6551 -0.4356 -0.4231
12853TIP3    H159974   4.069   1.675   4.076 -1.3718 -1.3008 -0.1597
12853TIP3    H259975   4.090   1.540   4.011 -0.4950 -0.6161 -1.3092
12854TIP3   OH259976   5.721   0.847  14.924 -0.1995  0.3894  0.2409
12854TIP3    H159977   5.662   0.921  14.907 -0.9298 -0.2848 -0.2038
12854TIP3    H259978   5.671   0.789  14.981 -0.4977 -0.8334 -1.2192
12855TIP3   OH259979   1.666   1.502   2.951 -0.5831 -0.1720 -0.2285
12855TIP3    H159980   1.574   1.487   2.932 -0.4227 -1.0882 -0.2846
12855TIP3    H259981   1.713   1.453   2.884 -0.0361 -1.8848  1.3551
12856TIP3   OH259982   2.341   3.915  14.577 -0.0787 -0.1076 -0.4923
12856TIP3    H159983   2.261   3.878  14.541 -0.1674 -1.7724  1.3611
12856TIP3    H259984   2.411   3.863  14.537 -0.1334 -1.3166  0.9417
12857TIP3   OH259985   0.228   3.067   0.258 -0.1837 -0.1677 -0.2184
12857TIP3    H159986   0.231   2.991   0.200  0.3885 -0.0817 -0.3066
12857TIP3    H259987   0.205   3.140   0.201  1.6407  0.1503 -0.6062
12858TIP3   OH259988   0.283   3.678   3.455 -0.3279 -0.3464  0.3482
12858TIP3    H159989   0.198   3.636   3.446 -0.1552 -0.4697 -0.8887
12858TIP3    H259990   0.305   3.706   3.366  0.9253 -0.3273  0.6499
12859TIP3   OH259991   3.233   1.282   4.429 -0.6982 -0.0465 -0.5658
12859TIP3    H159992   3.321   1.266   4.395 -0.7000 -2.2496  0.3716
12859TIP3    H259993   3.181   1.209   4.395 -1.4114 -0.5452  1.5431
12860TIP3   OH259994   2.404   5.211  12.850  0.2671  0.3723 -0.2018
12860TIP3    H159995   2.415   5.118  12.827  0.2289  0.2562  0.2376
12860TIP3    H259996   2.321   5.215  12.897 -0.3892  0.8565 -1.3807
12861TIP3   OH259997   1.144   4.117   3.671 -0.0880 -0.4607 -0.5375
12861TIP3    H159998   1.096   4.184   3.623 -1.0367 -1.2132 -0.6631
12861TIP3    H259999   1.208   4.083   3.608  0.4326  0.3590 -0.4544
12862TIP3   OH260000   2.773   5.242  11.776  0.1535 -0.4004  0.3958
12862TIP3    H160001   2.691   5.242  11.725  0.8456 -0.3334 -0.7233
12862TIP3    H260002   2.747   5.208  11.862 -0.9974 -0.6734 -0.0462
12863TIP3   OH260003   1.297   5.290  12.994  0.6564  0.1437  0.2124
12863TIP3    H160004   1.350   5.346  13.050 -0.8580  0.9986  0.8158
12863TIP3    H260005   1.266   5.220  13.051  0.9809 -0.2580 -0.0960
12864TIP3   OH260006   2.586   4.980   1.071  0.3143 -0.1907  0.1522
12864TIP3    H160007   2.516   5.023   1.022 -0.8887 -1.7377  0.4903
12864TIP3    H260008   2.591   5.030   1.153 -0.8009 -0.4475  0.3785
12865TIP3   OH260009   4.202   5.103  12.106  0.0716 -0.4027 -0.4129
12865TIP3    H160010   4.210   5.186  12.153 -0.5648 -0.3903 -0.3196
12865TIP3    H260011   4.224   5.125  12.015  1.1467 -0.3951 -0.1450
12866TIP3   OH260012   3.228   2.412  14.213 -0.3769 -0.0422  0.3667
12866TIP3    H160013   3.191   2.498  14.195 -0.9214 -0.6163 -1.4285
12866TIP3    H260014   3.153   2.358  14.238 -0.4746 -0.6905 -1.2633
12867TIP3   OH260015   1.230   3.237   3.065 -0.1032  0.5862 -0.6585
12867TIP3    H160016   1.281   3.310   3.098  0.3081 -0.5773  1.3621
12867TIP3    H260017   1.290   3.189   3.008  0.2878  0.6182 -0.2725
12868TIP3   OH260018   3.997   2.248  13.801 -0.1410  0.4889 -0.0362
12868TIP3    H160019   4.090   2.262  13.782  0.5210 -0.9965  1.9486
12868TIP3    H260020   3.971   2.176  13.744 -0.2061  1.2252 -0.9428
12869TIP3   OH260021   5.052   5.743  14.933 -0.3120  0.2290  0.0944
12869TIP3    H160022   4.956   5.742  14.929 -0.2970  0.1949 -0.2230
12869TIP3    H260023   5.081   5.695  14.856 -0.0224  1.6281 -0.6782
12870TIP3   OH260024   6.363   6.445  16.494 -0.3293 -0.5991  0.1262
12870TIP3    H160025   6.389   6.459  16.403 -2.6284 -0.4806 -0.5469
12870TIP3    H260026   6.405   6.516  16.542 -0.1136  0.0674 -1.0272
12871TIP3   OH260027   2.956   2.471   3.353  0.1100 -0.2773  0.2693
12871TIP3    H160028   2.990   2.538   3.293  0.9064  0.5301  1.5939
12871TIP3    H260029   2.869   2.501   3.376  0.5327  0.4075  0.9975
12872TIP3   OH260030   6.011   5.239  17.109  0.1072 -0.1193  0.0606
12872TIP3    H160031   6.018   5.225  17.204  0.4586  0.7558  0.1715
12872TIP3    H260032   5.917   5.254  17.095  0.3576  2.3385  0.6723
12873TIP3   OH260033   2.735   0.051  14.945  0.0840 -0.0593  0.4707
12873TIP3    H160034   2.828   0.058  14.970  0.2294 -0.6783  0.1085
12873TIP3    H260035   2.705   0.142  14.942  1.4814  0.3766 -2.3909
12874TIP3   OH260036   0.903   4.721   4.745  0.2795 -0.6924  0.7253
12874TIP3    H160037   0.992   4.749   4.725 -0.1950  1.4322  1.4544
12874TIP3    H260038   0.910   4.681   4.832 -0.0483  2.9144  2.5343
12875TIP3   OH260039   1.910   2.447   3.465  0.3871 -0.2232 -0.3936
12875TIP3    H160040   1.836   2.433   3.524 -1.7210  1.3610 -2.5606
12875TIP3    H260041   1.956   2.522   3.500 -0.5894  0.4223 -0.4829
12876TIP3   OH260042   1.943   0.690   1.924  0.5327 -0.1044 -0.0226
12876TIP3    H160043   1.888   0.768   1.916  1.8825  0.7104 -1.5470
12876TIP3    H260044   1.956   0.660   1.834 -0.7111 -2.6358  0.5911
12877TIP3   OH260045   3.577   3.003  12.678 -0.7420 -0.2069 -0.4612
12877TIP3    H160046   3.632   2.948  12.623  1.3605 -0.2673  1.6027
12877TIP3    H260047   3.496   3.014  12.628 -0.7529 -4.1303 -1.4591
12878TIP3   OH260048   6.682   1.254  13.279 -0.4730  0.2409 -0.5029
12878TIP3    H160049   6.616   1.188  13.258  0.4273 -0.1754 -2.1306
12878TIP3    H260050   6.680   1.314  13.204 -0.0891  1.1020  0.1699
12879TIP3   OH260051   5.020   2.595  16.086  0.3983  0.2007 -0.3158
12879TIP3    H160052   5.016   2.539  16.163  1.9074 -1.4095 -1.3655
12879TIP3    H260053   4.940   2.573  16.036 -0.6083  1.2883  0.7965
12880TIP3   OH260054   5.363   3.791  12.953  0.8854  0.6202  0.0585
12880TIP3    H160055   5.408   3.861  13.000 -0.1498  0.6508  1.0090
12880TIP3    H260056   5.290   3.767  13.009  0.7741 -0.6903 -0.6302
12881TIP3   OH260057   2.664   1.338   4.951 -0.0484 -0.4056  0.1327
12881TIP3    H160058   2.657   1.315   4.858  0.9290 -0.4828  0.0746
12881TIP3    H260059   2.581   1.310   4.989 -0.7763  0.3256 -0.8703
12882TIP3   OH260060   5.154   0.111  16.993 -0.0084 -0.2291  0.0642
12882TIP3    H160061   5.132   0.161  16.915  1.3229 -0.0489 -0.2246
12882TIP3    H260062   5.094   0.037  16.992 -0.0747 -0.1689 -1.0783
12883TIP3   OH260063   3.790   0.173   2.003  0.3416  0.6977 -0.1274
12883TIP3    H160064   3.724   0.227   1.959 -0.7091 -0.9455 -0.6164
12883TIP3    H260065   3.816   0.224   2.079 -1.4822  1.4039  0.0566
12884TIP3   OH260066   1.700   1.565  16.822  0.0318 -0.1859  0.2346
12884TIP3    H160067   1.706   1.487  16.767  1.0712  0.6204 -0.8157
12884TIP3    H260068   1.645   1.538  16.896 -2.4522 -0.9377 -1.7942
12885TIP3   OH260069   0.182   5.627  14.782  0.1577  0.3561 -0.0384
12885TIP3    H160070   0.266   5.586  14.761 -1.1125 -1.5353 -1.6409
12885TIP3    H260071   0.152   5.666  14.700 -0.0580  1.9354  0.7655
12886TIP3   OH260072   2.249   3.011   5.146 -0.3228 -0.6117 -0.0202
12886TIP3    H160073   2.260   3.033   5.053  0.2816  1.0191  0.4187
12886TIP3    H260074   2.171   2.955   5.149 -1.8703  1.4295 -1.2128
12887TIP3   OH260075   3.042   1.121   6.472 -0.3371  0.3311 -0.0763
12887TIP3    H160076   3.063   1.028   6.467 -1.4231  0.1593 -2.1482
12887TIP3    H260077   2.985   1.129   6.549 -1.7106 -1.0484 -0.9054
12888TIP3   OH260078   2.143   1.265   3.619 -0.3762  1.0641 -0.6760
12888TIP3    H160079   2.138   1.348   3.572 -0.2371  1.1394 -0.5571
12888TIP3    H260080   2.094   1.203   3.564 -0.6723  1.2762 -0.6553
12889TIP3   OH260081   5.831   0.417   1.144 -0.0074 -0.4957 -0.3540
12889TIP3    H160082   5.820   0.420   1.239  1.0866  1.6566 -0.2670
12889TIP3    H260083   5.743   0.401   1.110 -0.4196 -1.1852  1.0018
12890TIP3   OH260084   2.726   0.390  11.432  0.2904  0.0338  0.1194
12890TIP3    H160085   2.754   0.379  11.523 -2.7574 -0.5825  1.0330
12890TIP3    H260086   2.664   0.463  11.434 -0.3992 -0.4894 -1.3273
12891TIP3   OH260087   1.911   3.751  11.999  0.1788 -0.1702 -0.0018
12891TIP3    H160088   1.852   3.752  11.924  0.8551  0.5449 -0.5233
12891TIP3    H260089   1.861   3.705  12.067  0.0854 -2.0329 -1.2955
12892TIP3   OH260090   3.293   6.551  16.164  0.5087  0.0955 -0.5139
12892TIP3    H160091   3.259   6.480  16.109 -0.7992 -0.0025  0.3989
12892TIP3    H260092   3.359   6.509  16.219 -0.7033 -0.5789  0.4658
12893TIP3   OH260093   3.224   0.624   4.600 -0.2544  0.3233 -0.6299
12893TIP3    H160094   3.165   0.695   4.575 -0.1812  0.0618 -1.5599
12893TIP3    H260095   3.310   0.652   4.566 -0.2395 -0.2441 -1.0572
12894TIP3   OH260096   6.059   5.002  16.259  0.4049 -0.1259  0.1958
12894TIP3    H160097   6.072   4.926  16.316  0.5777 -0.2198  0.0342
12894TIP3    H260098   5.978   5.042  16.289  0.7945  0.1539  0.8748
12895TIP3   OH260099   5.039   5.894   4.463 -0.5906 -0.2227 -0.0048
12895TIP3    H160100   5.035   5.978   4.417 -3.2628 -1.7363 -2.7183
12895TIP3    H260101   4.949   5.877   4.491  0.0414 -1.8784  1.1212
12896TIP3   OH260102   3.946   2.347   5.946 -0.2060 -0.1052  0.3933
12896TIP3    H160103   3.929   2.399   6.025  1.6922 -0.1036  0.8374
12896TIP3    H260104   4.020   2.291   5.971  0.3549 -0.1664 -1.3652
12897TIP3   OH260105   1.810   3.693  15.457  0.7691 -0.0732  0.2804
12897TIP3    H160106   1.742   3.755  15.485  1.4242  0.2671  1.0995
12897TIP3    H260107   1.764   3.634  15.397  0.3028  1.6551 -1.1098
12898TIP3   OH260108   2.916   2.653   5.492 -0.2679 -0.1661  0.5798
12898TIP3    H160109   2.877   2.570   5.520  0.9269 -1.5002 -1.6687
12898TIP3    H260110   3.007   2.633   5.475 -0.0971  1.4843 -0.5987
12899TIP3   OH260111   6.639   0.683  17.063  0.3138 -0.3925  0.3002
12899TIP3    H160112   6.651   0.659  16.971 -0.5406 -1.0791  0.3537
12899TIP3    H260113   6.640   0.779  17.064 -0.2731 -0.3760 -0.5150
12900TIP3   OH260114   5.191   2.598  15.624 -0.1300  0.5227 -0.5082
12900TIP3    H160115   5.124   2.539  15.658  0.3628  0.2103 -0.0538
12900TIP3    H260116   5.267   2.583  15.682 -0.4958  2.7167  0.6093
12901TIP3   OH260117   5.388   5.483  11.859 -0.7113  0.1536  0.2434
12901TIP3    H160118   5.420   5.406  11.904  2.0987 -0.3642 -2.4664
12901TIP3    H260119   5.420   5.557  11.911 -2.2048 -0.4285  2.0513
12902TIP3   OH260120   2.222   6.673  17.178  0.0284  0.2401 -0.3689
12902TIP3    H160121   2.271   6.735  17.124  1.5388  0.3907  1.1759
12902TIP3    H260122   2.180   6.727  17.245 -0.5331 -0.1588 -0.3906
12903TIP3   OH260123   0.542   1.937   1.700  0.4812  0.2997 -0.1952
12903TIP3    H160124   0.501   1.854   1.724 -0.8804  1.2029  0.7032
12903TIP3    H260125   0.565   1.927   1.608 -2.8880  0.1748 -1.0707
12904TIP3   OH260126   2.789   5.628   0.961  0.2273 -0.8207  0.0264
12904TIP3    H160127   2.763   5.636   1.052  0.0522  2.2840 -0.2491
12904TIP3    H260128   2.832   5.712   0.940  1.8813 -2.1560 -2.2221
12905TIP3   OH260129   5.491   5.648   2.150 -0.0487 -0.1324  0.4739
12905TIP3    H160130   5.530   5.670   2.065  1.6096 -0.5181  1.1125
12905TIP3    H260131   5.418   5.709   2.160  0.5004  0.7230 -0.6847
12906TIP3   OH260132   0.321   3.970   5.843  0.6830 -0.4593  0.4309
12906TIP3    H160133   0.307   3.876   5.855  1.9859 -0.6488  0.5176
12906TIP3    H260134   0.251   4.011   5.894 -1.4766 -1.3820 -1.6845
12907TIP3   OH260135   2.873   3.633  15.594  0.4058  0.4563 -0.4321
12907TIP3    H160136   2.822   3.570  15.545  0.4256  0.2149 -0.1439
12907TIP3    H260137   2.846   3.620  15.685  1.7015 -0.3504 -0.1594
12908TIP3   OH260138   5.235   2.255  16.009 -0.3306  0.1084 -0.3470
12908TIP3    H160139   5.237   2.350  16.000  1.3221  0.0788 -0.3763
12908TIP3    H260140   5.325   2.227  15.992 -0.7020 -1.4223  0.1226
12909TIP3   OH260141   4.222   0.545   3.970 -0.5178  0.3309 -0.4235
12909TIP3    H160142   4.221   0.498   4.053 -0.9251 -0.6482 -0.9615
12909TIP3    H260143   4.281   0.619   3.984  0.4149 -0.5469  0.3417
12910TIP3   OH260144   5.877   2.950  12.866  0.3258 -0.1746 -0.2603
12910TIP3    H160145   5.816   3.018  12.839 -0.2075 -0.3630  0.4574
12910TIP3    H260146   5.929   2.932  12.788 -0.6986 -0.1926 -0.9438
12911TIP3   OH260147   2.275   1.675  15.755 -0.7400  0.2257 -0.2982
12911TIP3    H160148   2.358   1.684  15.708  0.1277  0.1945  1.2142
12911TIP3    H260149   2.226   1.754  15.731  0.2857  0.9339 -0.0779
12912TIP3   OH260150   3.503   3.586   0.797 -0.2796 -1.1300 -0.5190
12912TIP3    H160151   3.513   3.497   0.766  0.9004 -0.8046 -1.1061
12912TIP3    H260152   3.490   3.638   0.718  0.7742 -0.5602 -0.3267
12913TIP3   OH260153   1.845   0.695  15.834 -0.3079  0.4707  0.2625
12913TIP3    H160154   1.938   0.687  15.812 -0.2527  0.9988  0.2999
12913TIP3    H260155   1.801   0.701  15.749 -0.3527 -0.2059  0.2313
12914TIP3   OH260156   3.439   0.101   3.873 -0.4064 -0.0696  0.0587
12914TIP3    H160157   3.534   0.093   3.878 -0.2451  2.5561  2.0527
12914TIP3    H260158   3.421   0.108   3.779  1.4461  0.2462 -0.2950
12915TIP3   OH260159   5.473   1.079  15.892 -0.6232 -0.0623 -0.1379
12915TIP3    H160160   5.500   0.987  15.887  1.2143  0.4385  0.1169
12915TIP3    H260161   5.392   1.077  15.943 -2.4963 -1.8840 -3.0270
12916TIP3   OH260162   5.997   4.924  11.449  0.6601 -0.3594 -0.0685
12916TIP3    H160163   5.912   4.966  11.438  0.4690 -0.6417  0.3410
12916TIP3    H260164   5.983   4.834  11.421  0.9067 -0.3227 -0.3120
12917TIP3   OH260165   5.520   3.077   2.328 -0.3453 -0.5954 -0.0520
12917TIP3    H160166   5.494   3.159   2.370 -2.3951 -1.4216  0.3240
12917TIP3    H260167   5.615   3.085   2.317 -0.4440  1.5807  0.4986
12918TIP3   OH260168   3.937   1.746  15.205 -1.1558 -0.3306 -0.1608
12918TIP3    H160169   3.996   1.785  15.141 -2.5933  1.6430 -0.3295
12918TIP3    H260170   3.856   1.731  15.157 -1.4985 -0.9685  0.6098
12919TIP3   OH260171   0.022   2.897  16.499  0.3475 -0.3991  0.3091
12919TIP3    H160172   0.076   2.958  16.449 -0.4485  1.2704  1.4149
12919TIP3    H260173   0.073   2.816  16.502  1.2966  0.1046 -1.4475
12920TIP3   OH260174   5.064   0.450   2.766  0.0105  0.0273  0.5451
12920TIP3    H160175   5.114   0.508   2.710 -1.1271  0.7681  0.2762
12920TIP3    H260176   5.130   0.405   2.819  1.1755 -1.3233 -1.9413
12921TIP3   OH260177   3.007   1.087  15.503  0.0084 -0.2039  0.1052
12921TIP3    H160178   2.981   1.037  15.426 -2.3391 -0.0958  0.7996
12921TIP3    H260179   2.988   1.178  15.481  0.0315 -0.0916  0.5372
12922TIP3   OH260180   1.249   4.325  15.400 -0.5799 -0.0541  0.4535
12922TIP3    H160181   1.195   4.375  15.462 -0.3768 -0.4591  0.9600
12922TIP3    H260182   1.283   4.252  15.452 -1.7188 -1.3165 -0.5522
12923TIP3   OH260183   3.156   3.172   3.209  0.1998 -0.3051  0.3033
12923TIP3    H160184   3.080   3.168   3.152  0.9907  1.6752 -0.9368
12923TIP3    H260185   3.197   3.085   3.200  0.2566 -0.0591 -2.0725
12924TIP3   OH260186   4.867   1.774   2.389  0.5149 -0.4377  0.0614
12924TIP3    H160187   4.773   1.755   2.388  0.5033 -0.4268  1.3659
12924TIP3    H260188   4.881   1.821   2.470  1.8310 -1.3325  0.3615
12925TIP3   OH260189   3.368   1.094  12.640  0.4756  0.2812 -0.1114
12925TIP3    H160190   3.297   1.132  12.588  0.1565 -0.4772 -0.2397
12925TIP3    H260191   3.334   1.093  12.730 -0.1526 -1.1873 -0.3559
12926TIP3   OH260192   3.170   5.722   4.608 -0.4713 -0.3787  0.4660
12926TIP3    H160193   3.168   5.658   4.538 -2.2082 -1.2343  1.2558
12926TIP3    H260194   3.256   5.763   4.601  0.4984 -2.4784 -0.3235
12927TIP3   OH260195   1.784   4.772  15.097 -0.3179  0.3091 -0.5252
12927TIP3    H160196   1.700   4.739  15.130 -1.1575  1.2867 -1.6496
12927TIP3    H260197   1.779   4.867  15.111  1.0041  0.2677  0.2865
12928TIP3   OH260198   3.786   3.324   0.762 -0.6146 -0.2708  0.4956
12928TIP3    H160199   3.720   3.355   0.825 -1.1899  0.3682 -0.4041
12928TIP3    H260200   3.846   3.271   0.814  0.2337  2.1310  2.0527
12929TIP3   OH260201   0.662   3.594   1.962  0.2434  0.2764  0.1077
12929TIP3    H160202   0.672   3.689   1.957  0.4896  0.2189 -0.5536
12929TIP3    H260203   0.719   3.560   1.892  0.3463 -0.3662  0.4946
12930TIP3   OH260204   6.169   1.332  13.072  0.0389  0.0723 -0.0995
12930TIP3    H160205   6.238   1.345  13.136  0.1108 -1.2347  0.1038
12930TIP3    H260206   6.215   1.303  12.993 -0.2684 -0.9704  0.0877
12931TIP3   OH260207   0.722   6.167  11.050  0.2235 -0.3478 -0.0167
12931TIP3    H160208   0.698   6.155  10.958 -1.8930 -1.6243  0.6564
12931TIP3    H260209   0.769   6.086  11.073 -0.7568 -0.7779  0.4820
12932TIP3   OH260210   2.357   2.497   6.085  0.0096 -0.1234 -0.1957
12932TIP3    H160211   2.415   2.428   6.116 -0.4631 -0.0965  0.7758
12932TIP3    H260212   2.356   2.562   6.155 -1.4550 -0.2902 -0.0354
12933TIP3   OH260213   3.790   5.153  15.726  0.3430 -0.2651 -0.0536
12933TIP3    H160214   3.851   5.115  15.790  1.2046 -1.6782 -1.6840
12933TIP3    H260215   3.797   5.247  15.740  1.9172 -0.4613  0.6748
12934TIP3   OH260216   1.382   1.148   0.399  0.1774 -0.2026 -0.0730
12934TIP3    H160217   1.386   1.188   0.313 -0.0173  1.5543  0.7210
12934TIP3    H260218   1.290   1.155   0.425  0.6108  1.1813  1.1469
12935TIP3   OH260219   1.355   2.914  14.303 -0.0411  0.1399  0.7355
12935TIP3    H160220   1.402   2.977  14.248 -1.4772 -0.1190 -0.8306
12935TIP3    H260221   1.382   2.829  14.270 -2.3533 -0.0109 -0.8862
12936TIP3   OH260222   1.394   1.227  13.890  0.3446 -0.7851 -0.2941
12936TIP3    H160223   1.328   1.168  13.925  0.8366 -0.0748  1.8785
12936TIP3    H260224   1.365   1.314  13.918  2.6286 -0.5430  1.3996
12937TIP3   OH260225   4.598   2.680   4.447  0.5328 -0.4418 -0.5722
12937TIP3    H160226   4.655   2.692   4.522  0.8590  0.8959 -1.0065
12937TIP3    H260227   4.657   2.675   4.372  0.2009 -1.5659 -0.7681
12938TIP3   OH260228   5.053   4.605  13.155 -0.1891 -0.1035  0.0335
12938TIP3    H160229   5.059   4.550  13.233 -0.1449  0.6697  0.5797
12938TIP3    H260230   4.990   4.673  13.179  0.4295  0.6002 -0.3133
12939TIP3   OH260231   6.670   3.463   1.436 -0.2386 -0.1074  0.2514
12939TIP3    H160232   6.731   3.394   1.459  0.5575  1.0253  1.5798
12939TIP3    H260233   6.671   3.464   1.340  1.5329 -0.3593  0.2444
12940TIP3   OH260234   6.760   2.123  11.084  0.2708  0.5748  0.5366
12940TIP3    H160235   6.843   2.147  11.126  0.0636  0.3522  1.0830
12940TIP3    H260236   6.775   2.137  10.991  1.8354 -1.9745  0.3345
12941TIP3   OH260237   0.801   4.613  15.991  0.5895  0.0114  0.0298
12941TIP3    H160238   0.749   4.687  15.959 -0.9152 -0.1901  1.9405
12941TIP3    H260239   0.885   4.622  15.945 -0.9260  0.6117 -2.7457
12942TIP3   OH260240   0.164   1.216   0.421  0.2480  0.2741 -0.0297
12942TIP3    H160241   0.213   1.297   0.431  0.8160  0.0051 -0.6378
12942TIP3    H260242   0.182   1.187   0.331  0.8892 -1.0691  0.5126
12943TIP3   OH260243   1.098   1.677   5.401  0.8339  0.0222  1.0342
12943TIP3    H160244   1.089   1.731   5.480  1.0914  0.7345  0.5735
12943TIP3    H260245   1.181   1.630   5.414  1.0276  0.3661  1.0516
12944TIP3   OH260246   0.947   2.112  11.169 -0.1292  0.2650 -0.3725
12944TIP3    H160247   0.949   2.117  11.074 -3.4278 -0.7321 -0.5496
12944TIP3    H260248   0.894   2.188  11.196 -2.8292 -1.7950  0.3464
12945TIP3   OH260249   5.505   0.185  11.154  0.4029  0.1396  0.3614
12945TIP3    H160250   5.455   0.193  11.073 -1.7978 -2.5668  1.3662
12945TIP3    H260251   5.464   0.247  11.214 -0.5500 -0.7179  0.6049
12946TIP3   OH260252   2.789   2.129   4.701 -0.0048  0.3612 -0.1259
12946TIP3    H160253   2.836   2.048   4.722  0.4487  0.3421 -1.1809
12946TIP3    H260254   2.784   2.176   4.784 -0.0195 -0.6181  0.4365
12947TIP3   OH260255   1.239   5.204   6.545 -0.5477  0.1274  0.3726
12947TIP3    H160256   1.295   5.265   6.592 -0.2478  0.3769 -0.2956
12947TIP3    H260257   1.292   5.124   6.537 -0.3310  0.3147 -0.1301
12948TIP3   OH260258   4.029   3.181  11.872  0.1781 -0.2041 -0.6293
12948TIP3    H160259   4.095   3.220  11.814  1.9067 -2.6046 -0.3141
12948TIP3    H260260   4.023   3.090  11.844 -1.9990 -0.3688  0.2889
12949TIP3   OH260261   6.609   1.868   2.717  0.0491 -0.1177  0.3174
12949TIP3    H160262   6.595   1.913   2.633 -0.3362  0.3780  0.6443
12949TIP3    H260263   6.626   1.939   2.779  2.0186 -0.5956  0.3321
12950TIP3   OH260264   1.944   5.418   0.933 -0.2926 -0.5838  0.6434
12950TIP3    H160265   2.018   5.411   0.993 -2.2415  1.6079  3.4261
12950TIP3    H260266   1.937   5.331   0.894  2.3287 -1.4790  2.0188
12951TIP3   OH260267   2.106   2.934   1.012  0.4689  0.3049 -0.1061
12951TIP3    H160268   2.151   2.887   0.941  1.7475  2.7261 -0.9677
12951TIP3    H260269   2.170   2.998   1.042 -1.1413  1.3439  1.1957
12952TIP3   OH260270   2.609   1.123  11.599  0.3097 -0.4170 -0.3893
12952TIP3    H160271   2.655   1.165  11.672 -1.2106  0.0360  0.3381
12952TIP3    H260272   2.678   1.098  11.538  1.4328  1.3582  0.0983
12953TIP3   OH260273   6.504   5.441   1.905 -0.5621 -0.6486  0.5165
12953TIP3    H160274   6.572   5.477   1.963 -1.3028  0.6605  0.5857
12953TIP3    H260275   6.422   5.471   1.943 -1.1845 -2.0254  0.2836
12954TIP3   OH260276   3.491   6.638   6.469  0.0346 -0.0103 -0.6910
12954TIP3    H160277   3.556   6.707   6.480 -0.6330  0.6498 -0.7671
12954TIP3    H260278   3.470   6.610   6.558  0.5020 -0.3045 -0.6723
12955TIP3   OH260279   5.725   3.381   0.137 -0.3117  0.1274  0.4391
12955TIP3    H160280   5.759   3.326   0.208 -1.6096 -1.3732 -0.0692
12955TIP3    H260281   5.633   3.397   0.162 -0.0649  1.7104  0.3569
12956TIP3   OH260282   4.317   1.032  16.414  0.0156 -0.2654  0.1822
12956TIP3    H160283   4.265   1.060  16.490 -0.8579  1.5631 -1.0472
12956TIP3    H260284   4.254   1.023  16.343  1.1288  0.3287 -0.9119
12957TIP3   OH260285   2.860   5.635  13.733 -0.1566  0.2094  0.5056
12957TIP3    H160286   2.828   5.592  13.654 -0.5212 -0.5348  1.0627
12957TIP3    H260287   2.801   5.607  13.802  2.1224 -1.7856  1.6903
12958TIP3   OH260288   6.125   4.203   2.956 -0.1766  0.2866  0.3037
12958TIP3    H160289   6.220   4.191   2.953 -0.0010  1.4163  1.1907
12958TIP3    H260290   6.091   4.132   2.902  1.1676 -0.1639  0.0185
12959TIP3   OH260291   4.256   3.277  12.748 -0.1455 -0.0267  0.4625
12959TIP3    H160292   4.297   3.295  12.832 -1.3452  0.5023  0.9484
12959TIP3    H260293   4.186   3.342  12.741 -0.3528 -0.3586 -0.7324
12960TIP3   OH260294   3.412   0.240   6.497  0.1167  0.4662  0.1297
12960TIP3    H160295   3.480   0.173   6.500 -1.1339 -0.8711 -0.7784
12960TIP3    H260296   3.332   0.195   6.524 -0.9440  1.3101 -1.5080
12961TIP3   OH260297   2.887   5.089  12.092 -0.5630  0.5311 -0.0527
12961TIP3    H160298   2.884   5.180  12.124 -0.7903  1.0008 -1.3946
12961TIP3    H260299   2.979   5.075  12.070 -1.0811  1.6223 -3.1592
12962TIP3   OH260300   2.242   4.121   2.708 -0.1739 -0.5223  0.2274
12962TIP3    H160301   2.233   4.100   2.615 -0.2290  0.2016  0.0695
12962TIP3    H260302   2.156   4.154   2.734 -0.2102 -0.8888  0.5781
12963TIP3   OH260303   2.643   3.231   2.839 -0.1003 -0.3157 -0.4195
12963TIP3    H160304   2.690   3.233   2.755 -0.4035 -0.8702 -0.6054
12963TIP3    H260305   2.652   3.320   2.874  1.7487 -0.5899 -0.0985
12964TIP3   OH260306   2.714   0.581  12.137  0.1005 -0.1167 -0.2073
12964TIP3    H160307   2.782   0.647  12.150 -0.0490  0.1021 -0.5279
12964TIP3    H260308   2.755   0.514  12.082 -0.0380  0.1742 -0.6754
12965TIP3   OH260309   1.589   3.016  12.430  0.1352 -0.0590 -0.3767
12965TIP3    H160310   1.560   2.949  12.491 -1.2905 -0.9502 -1.9986
12965TIP3    H260311   1.624   3.086  12.486  0.8496 -1.7571  1.3579
12966TIP3   OH260312   1.348   0.136  14.409  0.2665  0.7038 -0.5159
12966TIP3    H160313   1.438   0.134  14.378  0.3067 -1.1066 -0.3229
12966TIP3    H260314   1.356   0.135  14.505  0.0490  0.5803 -0.4973
12967TIP3   OH260315   3.358   6.600  13.868  0.1246 -0.0369 -0.2819
12967TIP3    H160316   3.380   6.639  13.783 -0.0524  1.6082  0.4111
12967TIP3    H260317   3.330   6.674  13.922 -0.6537 -1.1918  0.9321
12968TIP3   OH260318   3.590   6.328  13.152 -0.2685  0.3567  0.1315
12968TIP3    H160319   3.503   6.358  13.128 -0.7837 -1.3521 -0.2509
12968TIP3    H260320   3.596   6.344  13.247  0.6683  4.4083 -0.5306
12969TIP3   OH260321   6.456   6.216   1.253  0.0970 -0.7230 -0.1044
12969TIP3    H160322   6.490   6.154   1.188 -0.6076  1.1956 -2.3705
12969TIP3    H260323   6.382   6.257   1.210  0.6679  1.8355  1.2834
12970TIP3   OH260324   5.483   1.910  13.899 -0.3593 -0.7429 -0.3281
12970TIP3    H160325   5.444   1.938  13.981 -1.6736 -0.1406 -1.1489
12970TIP3    H260326   5.525   1.826  13.920  1.8333  0.7847  1.6381
12971TIP3   OH260327   1.890   0.322   5.280 -0.2560 -0.9072 -0.1909
12971TIP3    H160328   1.847   0.264   5.343  0.9486  0.9514  2.4090
12971TIP3    H260329   1.835   0.401   5.278  0.1018 -0.6669 -0.9455
12972TIP3   OH260330   1.230   0.185   4.439  0.3816  0.1768  0.1806
12972TIP3    H160331   1.136   0.169   4.435  0.4251  0.0763 -0.5736
12972TIP3    H260332   1.239   0.269   4.483 -0.2268  1.7964 -2.6761
12973TIP3   OH260333   4.562   4.998   2.031 -0.1043  0.1516  0.2860
12973TIP3    H160334   4.600   4.991   1.943 -2.7612  0.0156 -0.9140
12973TIP3    H260335   4.562   5.092   2.050  0.6995  0.1612  0.2507
12974TIP3   OH260336   0.103   0.216  15.263  0.1426 -0.0729  0.2696
12974TIP3    H160337   0.019   0.242  15.299 -0.0463  0.5664 -0.5982
12974TIP3    H260338   0.097   0.121  15.251  0.8187 -0.5517  3.4349
12975TIP3   OH260339   2.487   0.633   5.554  0.5326  0.3412  0.2745
12975TIP3    H160340   2.506   0.540   5.543 -0.2609  0.1809  0.2465
12975TIP3    H260341   2.463   0.642   5.646 -0.3313  0.3437  0.0545
12976TIP3   OH260342   6.641   3.174  12.036  0.0797  0.1961 -0.6517
12976TIP3    H160343   6.693   3.163  11.957  1.0032 -2.0271  0.2335
12976TIP3    H260344   6.642   3.088  12.078 -0.2983  1.3591  1.8366
12977TIP3   OH260345   2.779   2.930  12.261  0.1694  0.1876  0.3233
12977TIP3    H160346   2.700   2.923  12.208  1.4816 -0.3557 -1.5824
12977TIP3    H260347   2.843   2.874  12.218  2.1026  1.8454  0.9310
12978TIP3   OH260348   3.858   6.436  15.376 -0.0247  0.4042 -0.1815
12978TIP3    H160349   3.785   6.396  15.422  0.0924  0.5087  0.1001
12978TIP3    H260350   3.831   6.439  15.284  0.3300 -1.1268 -0.3364
12979TIP3   OH260351   2.508   2.762  12.666 -0.5184 -0.1560  0.5207
12979TIP3    H160352   2.523   2.684  12.613 -2.6267 -0.3569  0.1974
12979TIP3    H260353   2.566   2.828  12.627 -0.7376 -0.7890 -0.9299
12980TIP3   OH260354   3.842   0.801  11.090  0.5339  0.6965 -0.3500
12980TIP3    H160355   3.860   0.708  11.102  1.9968  1.0998  0.8294
12980TIP3    H260356   3.881   0.822  11.005  0.5424  0.3137 -0.4406
12981TIP3   OH260357   4.795   6.055   5.324 -0.2193 -0.6782 -0.1079
12981TIP3    H160358   4.866   5.998   5.353  2.3015  2.2234 -0.2986
12981TIP3    H260359   4.735   6.060   5.399  0.4341 -2.1747  0.5197
12982TIP3   OH260360   1.561   0.880   3.906  0.6531 -0.8252  0.5999
12982TIP3    H160361   1.555   0.922   3.992  2.0753  0.3832  0.1199
12982TIP3    H260362   1.474   0.890   3.868  0.5751  0.4025  1.0809
12983TIP3   OH260363   1.661   0.478  13.105  0.4771 -0.1079 -0.8739
12983TIP3    H160364   1.718   0.505  13.033  1.1201  0.7601 -0.0508
12983TIP3    H260365   1.654   0.555  13.161  1.5052 -1.3283  0.9759
12984TIP3   OH260366   1.887   0.699  13.628 -0.4605  0.1329 -0.4312
12984TIP3    H160367   1.982   0.714  13.624 -0.2674 -1.6323 -3.4729
12984TIP3    H260368   1.877   0.605  13.615 -2.6011  0.0721  1.3652
12985TIP3   OH260369   1.176   3.003   2.793 -0.3329  0.1345 -0.0174
12985TIP3    H160370   1.143   3.051   2.717 -0.1577  3.3901  1.8578
12985TIP3    H260371   1.098   2.987   2.846  0.1658  2.3016  1.4370
12986TIP3   OH260372   0.971   3.651   3.311  0.0247 -0.0198  0.6813
12986TIP3    H160373   0.937   3.593   3.242  0.2629  1.3834 -0.6301
12986TIP3    H260374   1.016   3.592   3.371 -3.7361 -1.8503  1.9195
12987TIP3   OH260375   3.532   3.851  11.687  0.3935  0.3598 -0.1229
12987TIP3    H160376   3.508   3.944  11.681  0.9541  0.7247  2.4983
12987TIP3    H260377   3.472   3.816  11.754  0.6810 -0.9997 -0.5746
12988TIP3   OH260378   5.693   5.491   1.578  0.1514 -0.7611 -0.2724
12988TIP3    H160379   5.697   5.407   1.532  1.5532 -1.3220  0.8603
12988TIP3    H260380   5.681   5.468   1.670 -0.7264  0.3153 -0.1119
12989TIP3   OH260381   3.518   2.308  16.578 -0.2675  0.0613  0.2574
12989TIP3    H160382   3.470   2.387  16.605  0.4970  0.6977 -0.2001
12989TIP3    H260383   3.505   2.247  16.650 -1.0015  0.5468  0.5546
12990TIP3   OH260384   5.420   6.268  11.512 -0.8721 -0.0395 -0.6822
12990TIP3    H160385   5.404   6.359  11.538  0.9498 -0.9042  3.9862
12990TIP3    H260386   5.348   6.219  11.550 -1.0513 -0.7361 -1.9082
12991TIP3   OH260387   6.332   3.463   3.410 -0.5513 -0.3483 -0.4764
12991TIP3    H160388   6.388   3.388   3.391 -0.6706 -0.3390 -0.8718
12991TIP3    H260389   6.339   3.518   3.332  0.8887  0.8922  0.4926
12992TIP3   OH260390   6.561   0.262   2.383  0.2368  0.6107  0.5947
12992TIP3    H160391   6.499   0.205   2.427 -0.8889  3.0346  2.2127
12992TIP3    H260392   6.535   0.260   2.291 -2.0226  1.2994  1.1945
12993TIP3   OH260393   2.662   5.236   2.276 -0.2836  0.4030  0.4983
12993TIP3    H160394   2.681   5.307   2.338  1.9933  0.5443 -0.3208
12993TIP3    H260395   2.708   5.160   2.312  0.7084  0.3833 -0.7784
12994TIP3   OH260396   6.602   1.727  15.290  0.1546 -0.0732  0.3994
12994TIP3    H160397   6.512   1.704  15.265  0.1338  0.3148  0.1164
12994TIP3    H260398   6.598   1.820  15.312  0.2936 -0.2852  1.3077
12995TIP3   OH260399   4.840   5.894   2.010 -0.0236 -0.2640 -0.4066
12995TIP3    H160400   4.787   5.863   2.084  1.9662 -1.4001  0.5833
12995TIP3    H260401   4.783   5.881   1.933 -0.8748 -2.3014  0.5137
12996TIP3   OH260402   1.992   0.395  15.577  0.3173  0.0459 -0.0734
12996TIP3    H160403   2.077   0.438  15.580  1.2397 -1.6177 -1.6914
12996TIP3    H260404   1.942   0.445  15.512  0.2515  0.6655  0.4531
12997TIP3   OH260405   3.931   0.075  16.968 -0.2507  0.0830  0.5078
12997TIP3    H160406   3.878   0.109  17.040 -0.8021 -0.3817  0.3288
12997TIP3    H260407   4.021   0.091  16.995 -0.4488 -0.1195  1.3237
12998TIP3   OH260408   1.911   6.547  16.063 -0.5004  0.3973  0.8086
12998TIP3    H160409   1.928   6.475  16.123 -1.6002 -0.4854  0.0840
12998TIP3    H260410   1.822   6.575  16.085 -1.4687 -0.8780 -1.3423
12999TIP3   OH260411   4.123   2.821  14.195 -0.1000  0.2963 -0.4436
12999TIP3    H160412   4.116   2.846  14.287 -0.4496 -3.2132  0.5748
12999TIP3    H260413   4.040   2.778  14.176 -0.2143  1.4146 -2.5628
13000TIP3   OH260414   5.940   4.977   0.731 -0.2362  0.1479 -0.1123
13000TIP3    H160415   5.960   5.051   0.788 -0.4619  1.8234 -2.1196
13000TIP3    H260416   5.870   4.929   0.776  0.8460  0.3689  1.8510
13001TIP3   OH260417   3.144   4.010  16.762  0.0789 -0.3805 -0.5317
13001TIP3    H160418   3.107   4.089  16.721 -2.3102 -1.8172 -1.2377
13001TIP3    H260419   3.083   3.940  16.738  0.7780 -1.9850  2.2163
13002TIP3   OH260420   4.057   0.805   1.878 -0.2616 -0.3775 -0.0852
13002TIP3    H160421   4.068   0.742   1.949  0.0419  1.2800  1.3721
13002TIP3    H260422   4.142   0.808   1.834  1.0103  1.9918  2.3965
13003TIP3   OH260423   4.205   0.361   0.186 -0.5835  0.1347 -0.5006
13003TIP3    H160424   4.203   0.428   0.255 -1.1044  1.9706 -2.2529
13003TIP3    H260425   4.175   0.407   0.107  1.6138 -1.4940 -2.3435
13004TIP3   OH260426   3.095   1.859  14.527 -0.0082  0.2618 -0.2742
13004TIP3    H160427   3.155   1.927  14.557  1.0008 -0.3133 -0.9589
13004TIP3    H260428   3.147   1.778  14.530 -0.8472 -0.2935 -0.5586
13005TIP3   OH260429   1.764   4.206   0.260  0.2620  0.1112  0.2904
13005TIP3    H160430   1.744   4.158   0.341  2.9769 -3.5638 -1.0420
13005TIP3    H260431   1.845   4.252   0.279 -0.5371  1.4755  0.4706
13006TIP3   OH260432   6.020   6.700   1.008  0.2687 -0.2442 -0.1523
13006TIP3    H160433   6.012   6.615   1.051 -1.3293 -0.6964 -1.3117
13006TIP3    H260434   6.107   6.731   1.033  1.1105 -2.4878 -0.1829
13007TIP3   OH260435   4.579   5.510   2.372 -0.3175 -0.1772 -0.2262
13007TIP3    H160436   4.662   5.509   2.325 -0.5425 -0.4870 -0.6153
13007TIP3    H260437   4.566   5.602   2.396  0.7353 -0.3043  0.8942
13008TIP3   OH260438   2.575   4.551   0.946 -0.1608  0.0717  0.1008
13008TIP3    H160439   2.634   4.565   0.872 -0.6043 -0.0851 -0.2890
13008TIP3    H260440   2.590   4.461   0.973  1.1097  0.6051  1.1936
13009TIP3   OH260441   1.003   4.148   5.804  0.0171 -0.1100 -0.1650
13009TIP3    H160442   0.950   4.075   5.836  1.7783 -0.9269  0.9554
13009TIP3    H260443   1.016   4.203   5.882 -0.3583  0.8111 -0.7505
13010TIP3   OH260444   6.493   1.316   1.217 -0.0150  0.4375  0.3599
13010TIP3    H160445   6.478   1.248   1.151  1.3558  0.6403 -0.1720
13010TIP3    H260446   6.504   1.267   1.299 -2.4935  0.2241  0.6238
13011TIP3   OH260447   6.406   0.923   0.698  0.1313 -0.5234  0.1959
13011TIP3    H160448   6.326   0.873   0.690  0.1651 -0.2981 -1.8489
13011TIP3    H260449   6.451   0.910   0.615  1.8604 -0.0379  1.0248
13012TIP3   OH260450   6.541   0.759   0.894 -0.2660  0.2237  1.0988
13012TIP3    H160451   6.611   0.795   0.949 -0.9941  1.0792  1.4767
13012TIP3    H260452   6.497   0.836   0.859 -1.4444 -0.3086  1.3966
13013TIP3   OH260453   5.096   4.436   3.238  0.0520 -0.1165  0.3235
13013TIP3    H160454   5.075   4.374   3.308  2.3449  0.3528  1.4634
13013TIP3    H260455   5.147   4.504   3.281 -0.2005  1.2098 -1.4397
13014TIP3   OH260456   2.200   0.083  11.629 -0.2756  0.4824  0.4582
13014TIP3    H160457   2.289   0.087  11.664  0.6528  1.5809 -1.9469
13014TIP3    H260458   2.172   0.174  11.622  0.2242  0.4330 -3.2063
13015TIP3   OH260459   6.566   3.503   2.332 -0.4465 -0.3181 -0.4519
13015TIP3    H160460   6.583   3.593   2.304  2.6524 -0.7670 -0.2116
13015TIP3    H260461   6.559   3.453   2.250 -1.6551  0.0261 -0.5718
13016TIP3   OH260462   1.973   0.328  12.568  0.0552  0.0937 -0.3193
13016TIP3    H160463   1.933   0.415  12.579 -0.4227 -0.1888  0.1694
13016TIP3    H260464   1.901   0.272  12.539  0.0074 -0.4995  0.9318
13017TIP3   OH260465   3.165   6.646  11.605  0.2787 -0.2364 -0.2610
13017TIP3    H160466   3.106   6.707  11.562 -1.2383  0.3144  2.4658
13017TIP3    H260467   3.138   6.559  11.574 -0.2086  0.2075 -1.0699
13018TIP3   OH260468   1.929   5.417   5.562  0.2090  0.0301 -0.2705
13018TIP3    H160469   1.984   5.482   5.605 -0.2913  0.5154 -0.3572
13018TIP3    H260470   1.957   5.419   5.470  1.4636 -1.2002  0.0738
13019TIP3   OH260471   2.140   0.254  13.153  1.1811  0.1853 -0.3303
13019TIP3    H160472   2.145   0.220  13.063  1.4470  1.3056 -0.7496
13019TIP3    H260473   2.206   0.323  13.156  0.7549  0.5589  0.5497
13020TIP3   OH260474   1.975   6.727  10.987 -0.0466  0.6542 -0.0846
13020TIP3    H160475   1.927   6.776  11.054 -1.2697 -0.2552 -0.2664
13020TIP3    H260476   1.941   6.638  10.994 -0.1719  0.5352 -1.8846
13021TIP3   OH260477   2.954   1.546  12.195  0.2970 -0.2901 -0.2717
13021TIP3    H160478   2.995   1.471  12.152 -1.0357 -0.7721 -0.7470
13021TIP3    H260479   3.009   1.563  12.271  2.2975  0.1458 -1.7887
13022TIP3   OH260480   3.130   6.696  16.939  0.2713  0.2646 -0.4758
13022TIP3    H160481   3.218   6.721  16.965 -0.3160  1.5093  0.3759
13022TIP3    H260482   3.141   6.612  16.893  1.9021  0.5142 -0.5663
13023TIP3   OH260483   2.579   6.162   2.970  0.0207  0.1715  1.0195
13023TIP3    H160484   2.634   6.092   2.935  0.3210  0.0925  1.6578
13023TIP3    H260485   2.497   6.118   2.992  0.3539 -0.0584  1.8064
13024TIP3   OH260486   0.157   2.506   0.132 -0.8014  0.5128 -0.0361
13024TIP3    H160487   0.117   2.424   0.104 -2.0696  0.7174  1.0906
13024TIP3    H260488   0.245   2.482   0.159 -0.1546  0.0364 -2.4893
13025TIP3   OH260489   1.530   4.097  11.322  0.2481  0.0551  0.4156
13025TIP3    H160490   1.615   4.105  11.365  0.5848  1.9403 -0.5266
13025TIP3    H260491   1.552   4.088  11.229 -0.5838  0.2772  0.1978
13026TIP3   OH260492   5.503   3.312  16.300  0.2451  0.2909 -0.2388
13026TIP3    H160493   5.447   3.284  16.228 -0.7453  1.9548 -0.1469
13026TIP3    H260494   5.479   3.403  16.315  1.3942  0.3628  1.3107
13027TIP3   OH260495   3.725   1.466  13.736 -0.1666  0.1241  0.2889
13027TIP3    H160496   3.689   1.490  13.821  1.4081  1.7266  0.5299
13027TIP3    H260497   3.785   1.394  13.755 -2.2451 -1.7142  0.0574
13028TIP3   OH260498   2.571   6.355   4.980 -0.2889  0.3727  0.3891
13028TIP3    H160499   2.523   6.417   5.035 -0.4882  1.9148 -1.4828
13028TIP3    H260500   2.635   6.408   4.933  0.2568 -0.9966 -0.4579
13029TIP3   OH260501   2.397   1.253  15.839 -0.1021 -0.5407 -0.2045
13029TIP3    H160502   2.482   1.256  15.796 -0.0514  0.6132 -0.0511
13029TIP3    H260503   2.403   1.179  15.899 -0.2523 -2.2863 -2.3082
13030TIP3   OH260504   0.063   3.267  14.415 -0.5546  0.4101 -0.2210
13030TIP3    H160505   0.022   3.337  14.362 -0.6683 -0.5668 -1.4524
13030TIP3    H260506   0.016   3.188  14.390 -0.1970 -0.1760  0.9244
13031TIP3   OH260507   2.285   1.195   1.645  0.9030 -0.3828 -0.2771
13031TIP3    H160508   2.239   1.166   1.566 -0.7683 -0.6996  0.7992
13031TIP3    H260509   2.272   1.290   1.648  0.0113 -0.5191  0.2169
13032TIP3   OH260510   3.839   2.239   3.221  0.2154  0.2219 -0.0643
13032TIP3    H160511   3.867   2.330   3.208  1.9380  0.0995  2.5234
13032TIP3    H260512   3.918   2.193   3.247 -0.6418 -2.0695 -1.3829
13033TIP3   OH260513   0.701   6.563   2.885 -0.1445 -0.0835  0.0273
13033TIP3    H160514   0.778   6.567   2.943 -1.7175  2.2475  2.1048
13033TIP3    H260515   0.628   6.547   2.944 -1.5530  0.2544 -1.5911
13034TIP3   OH260516   6.513   5.374   5.072  0.5259  0.2481  0.3006
13034TIP3    H160517   6.494   5.464   5.098  1.1177  0.2121  0.8852
13034TIP3    H260518   6.605   5.361   5.096  1.1085  0.2080 -1.8436
13035TIP3   OH260519   6.098   2.221  16.812  0.1643 -0.0920  0.3754
13035TIP3    H160520   6.072   2.304  16.773  0.4499 -0.4506 -0.5952
13035TIP3    H260521   6.160   2.244  16.881 -1.0308  0.6126  1.2287
13036TIP3   OH260522   5.810   0.190   0.796  0.0187  0.8899  0.4424
13036TIP3    H160523   5.789   0.240   0.717  0.5676 -1.2780 -1.1188
13036TIP3    H260524   5.878   0.243   0.839 -0.2150  2.0542 -0.5759
13037TIP3   OH260525   3.618   2.542  12.388  0.5723  0.6209  0.0609
13037TIP3    H160526   3.555   2.470  12.397  0.7959  0.7096  2.8167
13037TIP3    H260527   3.587   2.591  12.312 -2.2615  0.2256  0.8866
13038TIP3   OH260528   4.386   6.137  14.167  0.1476 -0.2018 -0.0253
13038TIP3    H160529   4.315   6.074  14.157 -0.1848  0.3044 -0.9569
13038TIP3    H260530   4.344   6.217  14.197  0.2431  0.2481 -1.0688
13039TIP3   OH260531   3.169   3.511  15.612 -0.1018  0.6364  0.2222
13039TIP3    H160532   3.140   3.490  15.701 -0.0562 -2.4025 -0.4505
13039TIP3    H260533   3.093   3.552  15.571 -0.8781 -0.0914  0.9336
13040TIP3   OH260534   3.713   3.510   2.110  0.1220 -0.7512 -0.8238
13040TIP3    H160535   3.710   3.503   2.015  0.5253  0.0681 -0.8999
13040TIP3    H260536   3.677   3.596   2.129 -0.2791 -1.0502 -0.2100
13041TIP3   OH260537   2.503   3.716  12.024 -0.0038 -0.1570  0.6436
13041TIP3    H160538   2.428   3.730  11.966 -0.0160  0.1346  0.7287
13041TIP3    H260539   2.577   3.702  11.965  0.0564  0.5214  0.5511
13042TIP3   OH260540   0.868   2.898   0.251  0.5548  0.0803 -0.7558
13042TIP3    H160541   0.960   2.903   0.276 -0.2731 -1.0168  2.7992
13042TIP3    H260542   0.821   2.935   0.327 -2.0069 -0.8200 -1.8559
13043TIP3   OH260543   0.373   4.749  15.386  0.7669  0.1335 -0.0371
13043TIP3    H160544   0.342   4.781  15.471 -1.0721  0.5703 -0.8587
13043TIP3    H260545   0.342   4.659  15.381  0.8658  0.1116 -0.2461
13044TIP3   OH260546   4.298   6.038  15.846  0.1542 -0.4087  0.1802
13044TIP3    H160547   4.241   6.049  15.769 -0.1232 -0.9925  0.3046
13044TIP3    H260548   4.371   6.098  15.830  1.2984 -2.2227 -1.6710
13045TIP3   OH260549   0.321   4.338  14.692 -0.0465  0.4107 -0.3506
13045TIP3    H160550   0.401   4.311  14.738  1.4128 -1.1355 -3.6584
13045TIP3    H260551   0.269   4.258  14.686 -1.0514  1.0116  0.1374
13046TIP3   OH260552   3.434   6.652  11.782  0.1256 -0.2880 -0.1193
13046TIP3    H160553   3.393   6.634  11.866  0.6046  0.1498  0.2118
13046TIP3    H260554   3.362   6.656  11.719 -0.2209 -0.7045  0.2537
13047TIP3   OH260555   0.107   2.929  17.125  0.1921  0.1980  0.1768
13047TIP3    H160556   0.033   2.984  17.098 -0.6141 -1.2080 -0.5467
13047TIP3    H260557   0.066   2.855  17.170  1.1652 -0.5501 -0.1480
13048TIP3   OH260558   2.218   3.384  15.217  0.5994  0.2435  0.2326
13048TIP3    H160559   2.262   3.442  15.154  1.2460 -1.2536 -0.7165
13048TIP3    H260560   2.245   3.296  15.191 -1.1110 -0.5476  1.1020
13049TIP3   OH260561   5.190   1.613  16.834 -0.0212 -0.9068  0.1886
13049TIP3    H160562   5.214   1.702  16.810 -0.2716 -1.2238 -1.3071
13049TIP3    H260563   5.251   1.589  16.904  0.7654  0.0403 -0.1648
13050TIP3   OH260564   2.712   6.624   1.963 -0.3942  0.4689  1.0120
13050TIP3    H160565   2.618   6.639   1.977 -0.8141 -0.3329 -0.7083
13050TIP3    H260566   2.755   6.664   2.038 -2.0595  1.7721  1.2950
13051TIP3   OH260567   0.731   5.440   6.108  0.3961 -0.0988  0.2617
13051TIP3    H160568   0.686   5.522   6.087  0.8239  1.0473  3.4759
13051TIP3    H260569   0.776   5.415   6.028 -2.5857  0.9407 -1.7957
13052TIP3   OH260570   5.390   4.579   6.275  0.3358 -0.2999  0.2767
13052TIP3    H160571   5.382   4.517   6.348 -0.3667  0.3770  0.7914
13052TIP3    H260572   5.400   4.665   6.317 -0.0399  0.0942 -0.4174
13053TIP3   OH260573   4.803   4.728  15.293 -0.2800  0.1168  0.1354
13053TIP3    H160574   4.807   4.656  15.229  1.6466 -0.3120  0.7041
13053TIP3    H260575   4.814   4.807  15.240  0.2465 -0.1726 -0.1958
13054TIP3   OH260576   5.805   5.978  16.152  0.2774 -0.0278 -0.5185
13054TIP3    H160577   5.775   5.904  16.204 -0.3169  0.2790 -0.4180
13054TIP3    H260578   5.725   6.028  16.133  0.7555  0.9068 -0.0892
13055TIP3   OH260579   6.395   2.491  15.284  0.3525 -0.5911  0.2108
13055TIP3    H160580   6.399   2.476  15.189 -0.2214 -0.8792  0.2282
13055TIP3    H260581   6.370   2.582  15.293  0.0093 -0.6730  0.0840
13056TIP3   OH260582   5.308   1.792  11.270  0.0911  0.3407 -0.6255
13056TIP3    H160583   5.392   1.837  11.272  0.6982 -0.8404  0.9913
13056TIP3    H260584   5.329   1.699  11.282 -1.4048 -0.0265 -0.6598
13057TIP3   OH260585   6.460   4.868   5.758 -0.1630  0.0530  0.6977
13057TIP3    H160586   6.387   4.922   5.786  0.1782  1.3623 -0.9095
13057TIP3    H260587   6.522   4.873   5.831 -0.8225  0.5095  1.2332
13058TIP3   OH260588   1.866   1.259  11.475 -0.0718 -0.3434 -0.0245
13058TIP3    H160589   1.851   1.251  11.569  1.0917  1.3360  0.3275
13058TIP3    H260590   1.784   1.292  11.440 -0.9662 -2.2954  0.1909
13059TIP3   OH260591   1.989   5.561  11.066 -0.3297 -0.3801 -1.2347
13059TIP3    H160592   1.989   5.593  11.156  0.9191 -0.6215 -1.1428
13059TIP3    H260593   1.898   5.569  11.038 -0.5929  0.3748 -0.1940
13060TIP3   OH260594   1.887   4.983  17.051  0.0839  0.5589 -0.3561
13060TIP3    H160595   1.909   5.056  17.108  0.2394  0.9067 -0.8551
13060TIP3    H260596   1.928   4.907  17.093 -1.0956  0.5537  0.8002
13061TIP3   OH260597   5.837   3.135   3.376 -0.0968  0.2750  0.0263
13061TIP3    H160598   5.809   3.045   3.391 -0.6744  0.2688 -1.0792
13061TIP3    H260599   5.839   3.175   3.464  0.7297 -0.9685  0.5873
13062TIP3   OH260600   2.592   2.695  16.152  0.6485 -0.1992 -0.4107
13062TIP3    H160601   2.525   2.699  16.220  1.9218 -1.3955  0.9488
13062TIP3    H260602   2.546   2.667  16.074 -1.0738  2.3633 -0.3820
13063TIP3   OH260603   3.377   0.405  13.375  0.6923 -0.1428  0.4422
13063TIP3    H160604   3.438   0.351  13.425 -2.7411 -2.3643  2.5356
13063TIP3    H260605   3.342   0.467  13.439 -1.9868 -1.4327  0.3284
13064TIP3   OH260606   2.074   5.824  15.423  0.4599  0.2828 -0.4221
13064TIP3    H160607   2.020   5.881  15.478  1.4151  1.4802 -0.7063
13064TIP3    H260608   2.069   5.738  15.466 -2.8467 -0.0366 -1.2331
13065TIP3   OH260609   0.206   4.917   3.822 -0.8495  0.4469 -0.8655
13065TIP3    H160610   0.219   4.984   3.889  0.4443  0.1530 -0.8091
13065TIP3    H260611   0.249   4.839   3.857  0.0038  0.3479 -2.1073
13066TIP3   OH260612   6.534   5.201  16.768 -0.4047 -0.4733 -0.0082
13066TIP3    H160613   6.553   5.291  16.742  0.1324 -0.3793  0.6706
13066TIP3    H260614   6.457   5.177  16.717  0.1002 -0.0097 -1.0144
13067TIP3   OH260615   3.441   5.818  14.960 -0.2553  0.5231  0.2451
13067TIP3    H160616   3.476   5.838  14.873  1.4472  0.8203  0.9948
13067TIP3    H260617   3.448   5.900  15.008 -1.8035  0.5279  0.4772
13068TIP3   OH260618   0.456   0.252  15.991  0.4370 -0.0103  0.0141
13068TIP3    H160619   0.464   0.328  16.048  1.5479 -0.1794  0.0867
13068TIP3    H260620   0.479   0.284  15.904 -1.3743  0.2758 -0.3768
13069TIP3   OH260621   1.189   4.365   2.640  0.2632 -0.0356 -0.2812
13069TIP3    H160622   1.254   4.364   2.569 -1.3553  0.6070 -1.8344
13069TIP3    H260623   1.210   4.290   2.694  1.4544 -0.6281 -1.5512
13070TIP3   OH260624   3.414   4.213   4.664  0.0629  0.3708  0.2184
13070TIP3    H160625   3.455   4.167   4.737  2.9514  1.6213 -0.5509
13070TIP3    H260626   3.480   4.211   4.595 -2.1757  0.2405 -1.9849
13071TIP3   OH260627   4.770   2.298   1.692  0.0236  0.4941 -0.6122
13071TIP3    H160628   4.675   2.303   1.705 -0.1562  3.2082 -2.6131
13071TIP3    H260629   4.803   2.383   1.721  1.6593  0.1567 -1.4443
13072TIP3   OH260630   1.948   4.550  14.139  0.2434 -0.1572 -0.4402
13072TIP3    H160631   1.920   4.499  14.063 -0.1436 -0.0354 -0.3779
13072TIP3    H260632   2.044   4.547  14.135  0.2244 -0.0809 -0.9762
13073TIP3   OH260633   5.540   3.959   2.959 -0.3450 -0.7257  0.5677
13073TIP3    H160634   5.531   3.915   3.044 -1.6515  2.4659  2.1463
13073TIP3    H260635   5.451   3.977   2.931  0.1538  1.1690  0.1170
13074TIP3   OH260636   0.564   1.270  15.484  0.4218  0.5113  0.1951
13074TIP3    H160637   0.600   1.291  15.398 -1.2196 -0.1039 -0.6518
13074TIP3    H260638   0.602   1.186  15.507 -0.2213  0.0192 -0.5494
13075TIP3   OH260639   2.232   5.318  11.541  0.3367 -0.5042  0.8765
13075TIP3    H160640   2.237   5.224  11.559 -0.0271 -0.8305 -0.6163
13075TIP3    H260641   2.247   5.325  11.447  2.8264  1.1674  1.3509
13076TIP3   OH260642   3.357   6.574   4.201  0.2136  0.5022  0.0818
13076TIP3    H160643   3.303   6.553   4.125  0.9600 -0.8047 -0.1060
13076TIP3    H260644   3.447   6.560   4.171  0.4819 -0.8345  1.4447
13077TIP3   OH260645   6.007   2.431  10.884  0.1162  0.6355  0.0941
13077TIP3    H160646   6.032   2.408  10.795  1.3870  0.3024  0.5323
13077TIP3    H260647   5.952   2.508  10.874  0.7441  0.9571 -0.9325
13078TIP3   OH260648   0.881   3.030  16.239  0.2952 -0.0639 -0.1369
13078TIP3    H160649   0.868   3.124  16.248  0.1692 -0.0657 -0.2790
13078TIP3    H260650   0.808   2.991  16.288 -0.2231 -0.0750 -0.9074
13079TIP3   OH260651   0.788   1.378  13.311  0.4281 -0.1477 -0.4236
13079TIP3    H160652   0.856   1.442  13.332  1.4513 -1.2590 -0.2745
13079TIP3    H260653   0.753   1.352  13.396  1.4460 -1.3012 -0.3435
13080TIP3   OH260654   0.240   4.463  11.997  0.5360  0.1500 -0.0743
13080TIP3    H160655   0.203   4.379  11.969  2.1151 -1.4543  2.4322
13080TIP3    H260656   0.308   4.481  11.932  0.4578 -0.7157 -0.4071
13081TIP3   OH260657   0.780   1.867   1.461 -0.7230  0.1164 -0.6195
13081TIP3    H160658   0.718   1.898   1.395  0.5623  1.1668 -1.3545
13081TIP3    H260659   0.813   1.947   1.502  2.1524 -0.2518 -2.0804
13082TIP3   OH260660   1.951   1.627  14.796  0.0703 -0.5603  0.0725
13082TIP3    H160661   1.903   1.659  14.873  4.8614  0.2894  2.8935
13082TIP3    H260662   1.988   1.706  14.756 -0.5515 -1.2292 -1.9171
13083TIP3   OH260663   0.444   4.637  16.205  0.0959 -0.1603  1.0213
13083TIP3    H160664   0.429   4.687  16.286  1.4630  0.6007  0.8144
13083TIP3    H260665   0.431   4.546  16.231 -2.5240  0.2678  1.3908
13084TIP3   OH260666   1.375   1.533   4.391  0.5143  0.5629 -0.4922
13084TIP3    H160667   1.394   1.617   4.433  1.4559 -0.1601  0.5609
13084TIP3    H260668   1.297   1.550   4.338  1.9907  2.6805 -2.0596
13085TIP3   OH260669   2.237   0.694  12.765  0.0952  0.4053 -0.5544
13085TIP3    H160670   2.208   0.603  12.776 -1.4695  0.9498  0.0086
13085TIP3    H260671   2.183   0.743  12.827  2.6424  1.4052  0.8998
13086TIP3   OH260672   1.871   4.224   6.318 -0.2519  0.7774  0.4051
13086TIP3    H160673   1.918   4.308   6.316 -0.5023  0.9533  1.5001
13086TIP3    H260674   1.883   4.193   6.408  0.9636 -1.0015 -0.3483
13087TIP3   OH260675   4.265   5.753   0.265 -0.0640  0.7060 -0.9152
13087TIP3    H160676   4.217   5.787   0.189 -1.5014  1.5320  0.3313
13087TIP3    H260677   4.323   5.824   0.290 -0.9624  1.1668 -0.0977
13088TIP3   OH260678   3.813   1.720  16.534 -0.8267  0.0804 -0.3895
13088TIP3    H160679   3.724   1.753  16.518 -0.4390  1.0632 -0.5730
13088TIP3    H260680   3.822   1.721  16.629 -0.9530  0.1581 -0.3761
13089TIP3   OH260681   0.976   6.130   5.458  0.6450 -0.6294 -0.0758
13089TIP3    H160682   0.967   6.096   5.547  0.9939 -0.9071 -0.1438
13089TIP3    H260683   1.055   6.185   5.462  2.0118 -2.4899 -0.7631
13090TIP3   OH260684   5.794   2.856   3.286  0.1937  0.3035 -0.2726
13090TIP3    H160685   5.790   2.774   3.335  0.3206 -0.0070 -0.7674
13090TIP3    H260686   5.878   2.852   3.241  0.2273  0.7379 -0.2463
13091TIP3   OH260687   0.158   0.879  12.797 -0.3437  0.0056  0.0519
13091TIP3    H160688   0.250   0.857  12.808 -0.0238  1.8162  1.2114
13091TIP3    H260689   0.120   0.866  12.884 -1.0805 -0.2299 -0.3036
13092TIP3   OH260690   3.237   1.259  11.471 -0.2244  0.2845 -0.1056
13092TIP3    H160691   3.296   1.184  11.467 -1.1217 -0.4131 -0.2247
13092TIP3    H260692   3.234   1.283  11.564  0.2655  0.3481 -0.1034
13093TIP3   OH260693   0.443   0.539  16.039  0.0023 -0.1068  0.2505
13093TIP3    H160694   0.499   0.486  16.095  0.3438 -2.7055 -2.4569
13093TIP3    H260695   0.473   0.629  16.054  3.7002 -1.2610  0.2095
13094TIP3   OH260696   2.292   3.767  11.870  0.7355  0.1111  0.1973
13094TIP3    H160697   2.310   3.820  11.792  0.3933  0.6993  0.5118
13094TIP3    H260698   2.222   3.815  11.915  0.5930 -0.4861  0.6099
13095TIP3   OH260699   5.357   5.770   0.189 -0.2921 -0.2504 -0.4197
13095TIP3    H160700   5.317   5.798   0.272 -1.4659 -2.9153 -0.0370
13095TIP3    H260701   5.306   5.816   0.122 -3.1459 -2.4099  0.1349
13096TIP3   OH260702   0.470   3.376   6.010 -0.0538 -0.0343  0.3006
13096TIP3    H160703   0.381   3.407   6.022 -0.0830 -0.5551  1.4478
13096TIP3    H260704   0.464   3.281   6.020  0.8598  0.0553  1.8408
13097TIP3   OH260705   2.410   5.737   1.344 -0.6263  0.3593 -0.4732
13097TIP3    H160706   2.346   5.791   1.298 -2.8397 -0.7856  1.1695
13097TIP3    H260707   2.360   5.693   1.412  1.4760 -2.3439 -0.5794
13098TIP3   OH260708   5.793   5.627   6.200  0.2420 -0.4916  0.6027
13098TIP3    H160709   5.838   5.587   6.273 -1.1115 -1.1961  1.0665
13098TIP3    H260710   5.793   5.721   6.220 -0.0450 -0.6727  1.4508
13099TIP3   OH260711   1.611   5.845  14.902  0.4487 -0.1230 -0.6476
13099TIP3    H160712   1.592   5.762  14.945 -2.9125  0.8782 -0.0430
13099TIP3    H260713   1.609   5.825  14.808 -0.0135 -0.8156 -0.4945
13100TIP3   OH260714   6.338   3.394   5.161  0.2075  0.3349 -0.0343
13100TIP3    H160715   6.340   3.488   5.182  0.5782  0.0328  1.3038
13100TIP3    H260716   6.285   3.355   5.231 -0.3816 -0.3905 -0.8744
13101TIP3   OH260717   5.024   3.742   4.133  0.4907 -0.2491 -0.1865
13101TIP3    H160718   4.976   3.727   4.051  1.4584  0.7146 -0.9364
13101TIP3    H260719   4.983   3.819   4.171 -0.5399 -1.2191  0.6856
13102TIP3   OH260720   3.074   4.201   2.241  0.0760  0.4556  0.0964
13102TIP3    H160721   3.154   4.175   2.287  0.4046 -1.2885 -1.3925
13102TIP3    H260722   3.028   4.118   2.224 -1.0461  1.2550 -0.8540
13103TIP3   OH260723   4.912   5.167   3.728  0.1033  0.1156  0.1422
13103TIP3    H160724   4.892   5.184   3.820 -0.3679 -1.5949  0.3642
13103TIP3    H260725   4.940   5.075   3.726 -0.0817  0.0828 -1.4494
13104TIP3   OH260726   6.750   6.753  12.963  0.2426 -0.1773 -0.3914
13104TIP3    H160727   6.803   6.674  12.962  0.5867  0.0402  0.7878
13104TIP3    H260728   6.812   6.824  12.949  0.3781  0.1274  1.5906
13105TIP3   OH260729   0.590   4.442  15.432  0.5049 -0.2150 -0.3101
13105TIP3    H160730   0.590   4.410  15.522 -0.7020  1.5205  0.3196
13105TIP3    H260731   0.498   4.457  15.411  0.8234  0.0263 -1.6031
13106TIP3   OH260732   2.564   0.588   4.924  0.1716  0.3946  0.0671
13106TIP3    H160733   2.478   0.618   4.954 -0.5226 -1.2743 -0.2110
13106TIP3    H260734   2.551   0.563   4.833  0.6708 -0.9641  0.3579
13107TIP3   OH260735   3.179   2.591   5.396 -0.1820  1.0560 -0.3289
13107TIP3    H160736   3.212   2.595   5.306 -0.5218  0.2391 -0.4900
13107TIP3    H260737   3.203   2.504   5.427  0.1920  1.4410  0.4721
13108TIP3   OH260738   5.214   6.557   3.342  0.1252 -0.3808  0.2030
13108TIP3    H160739   5.138   6.498   3.342 -1.3649  1.4330 -1.7890
13108TIP3    H260740   5.212   6.599   3.428 -0.6746 -0.9449  0.4669
13109TIP3   OH260741   0.581   0.229   3.751  0.2949  0.1975 -0.5278
13109TIP3    H160742   0.512   0.192   3.696  0.9109  0.4438 -1.4844
13109TIP3    H260743   0.614   0.303   3.700  0.1702  1.0783  0.6434
13110TIP3   OH260744   4.381   2.522  10.838  0.0728 -0.2903  0.1750
13110TIP3    H160745   4.371   2.455  10.906  1.2676 -0.1670  0.4864
13110TIP3    H260746   4.293   2.557  10.826 -0.4442 -1.4539  0.4876
13111TIP3   OH260747   4.239   5.315   5.683  0.3746 -0.0039  0.3019
13111TIP3    H160748   4.158   5.265   5.695 -0.5555  1.7780  1.8452
13111TIP3    H260749   4.309   5.250   5.688 -0.8164 -1.2177  1.6560
13112TIP3   OH260750   3.685   3.111  15.464  0.4335  0.5288 -0.3114
13112TIP3    H160751   3.590   3.100  15.454  0.5414 -0.5188 -0.1256
13112TIP3    H260752   3.702   3.098  15.557  0.6972  1.2499 -0.2498
13113TIP3   OH260753   1.669   1.854  14.550  0.1872  0.0926 -0.0311
13113TIP3    H160754   1.683   1.896  14.635  1.6314 -1.1365  0.3698
13113TIP3    H260755   1.661   1.761  14.571  2.8960 -0.5104 -1.4277
13114TIP3   OH260756   0.573   6.428  15.495 -0.0936 -0.3007 -0.7797
13114TIP3    H160757   0.554   6.383  15.577 -0.6836  0.5180 -0.4658
13114TIP3    H260758   0.491   6.473  15.472  0.6082  0.9434 -0.8886
13115TIP3   OH260759   3.181   4.806   5.446  0.2094 -0.1980 -0.3431
13115TIP3    H160760   3.149   4.719   5.427 -0.4724  0.3912 -1.9397
13115TIP3    H260761   3.200   4.805   5.540  0.0187 -1.9826 -0.3192
13116TIP3   OH260762   1.438   2.645  13.424  0.2538 -0.8928  0.5868
13116TIP3    H160763   1.426   2.607  13.511 -0.2405 -1.2940  0.3469
13116TIP3    H260764   1.522   2.610  13.394  0.5130 -0.6117  0.9736
13117TIP3   OH260765   5.606   5.333   4.871  0.2720 -0.2912 -0.2917
13117TIP3    H160766   5.566   5.415   4.841 -2.0156 -1.5571 -0.7930
13117TIP3    H260767   5.611   5.342   4.966 -1.2001 -0.0916 -0.2198
13118TIP3   OH260768   1.419   5.097  14.282  0.3143 -0.3951 -0.5591
13118TIP3    H160769   1.454   5.010  14.302  3.2671  0.4373 -1.7834
13118TIP3    H260770   1.404   5.137  14.367 -2.0069 -2.4091  0.0373
13119TIP3   OH260771   6.718   6.221  14.537 -0.4021  0.4293 -0.1173
13119TIP3    H160772   6.625   6.239  14.525 -0.3069  1.2892  0.3725
13119TIP3    H260773   6.763   6.288  14.486 -0.0530  1.1091  1.0393
13120TIP3   OH260774   3.269   0.531   2.154 -0.4005  0.6442 -0.1622
13120TIP3    H160775   3.192   0.505   2.103 -0.3023  1.0717 -0.5341
13120TIP3    H260776   3.337   0.468   2.130 -1.1275 -0.8238  1.4990
13121TIP3   OH260777   6.432   2.013   5.387 -0.2009  0.0859  0.6776
13121TIP3    H160778   6.460   2.077   5.322  0.6652  0.9901  1.9198
13121TIP3    H260779   6.506   1.953   5.396 -1.2023 -1.4048 -0.8537
13122TIP3   OH260780   5.356   0.990  13.985 -0.4672 -0.0725 -0.8590
13122TIP3    H160781   5.343   0.932  14.059 -3.0717  0.5744 -0.7723
13122TIP3    H260782   5.418   1.056  14.016 -1.5702  0.2112  0.7588
13123TIP3   OH260783   4.361   3.030  14.140 -0.4454 -0.3308  0.1305
13123TIP3    H160784   4.349   2.956  14.199  2.2291  0.4112  1.7032
13123TIP3    H260785   4.326   3.105  14.188 -2.6354 -0.4536 -1.2284
13124TIP3   OH260786   0.086   5.290  13.528 -0.2274 -0.2075 -0.1791
13124TIP3    H160787   0.018   5.244  13.480 -0.6449 -1.8860  1.9492
13124TIP3    H260788   0.051   5.378  13.541 -0.2568  0.1604 -2.5566
13125TIP3   OH260789   1.193   4.048   1.105 -0.2106 -0.1903  0.3317
13125TIP3    H160790   1.257   4.116   1.121  0.0884 -0.3966  0.0163
13125TIP3    H260791   1.221   4.007   1.023  0.0591 -1.2088  0.9214
13126TIP3   OH260792   6.228   4.613  16.797  0.4462  0.3022  0.1561
13126TIP3    H160793   6.308   4.596  16.747  1.2625 -1.0920  1.8804
13126TIP3    H260794   6.259   4.634  16.885 -1.0200  1.7807  0.3469
13127TIP3   OH260795   0.265   0.046   0.288 -0.8395 -0.7583 -0.1541
13127TIP3    H160796   0.202   0.019   0.221 -0.2734 -2.4086 -0.0569
13127TIP3    H260797   0.270  -0.029   0.348 -0.5220  0.2697  1.1284
13128TIP3   OH260798   6.353   4.238   6.154  0.2768 -0.0682 -0.3427
13128TIP3    H160799   6.260   4.260   6.151  0.3914  0.3102 -1.2879
13128TIP3    H260800   6.388   4.269   6.070  0.9127 -1.7285 -0.7048
13129TIP3   OH260801   3.618   5.571   5.501 -0.7276  0.0459  0.0816
13129TIP3    H160802   3.621   5.613   5.416 -0.9361  0.9671  0.5313
13129TIP3    H260803   3.601   5.479   5.481  2.5676 -0.3882 -1.0787
13130TIP3   OH260804   3.441   1.653  12.550  0.1218  0.5870  0.1223
13130TIP3    H160805   3.454   1.616  12.463 -0.2867 -1.7601  1.0300
13130TIP3    H260806   3.520   1.629  12.598  0.1819  1.5554  0.5238
13131TIP3   OH260807   6.164   4.615   6.605  0.0191  0.4642 -0.2518
13131TIP3    H160808   6.161   4.711   6.599 -2.7747  0.5519  1.8784
13131TIP3    H260809   6.072   4.588   6.602  0.6494 -1.9934  1.4161
13132TIP3   OH260810   3.754   0.754   0.897  0.0421 -0.6640  0.7375
13132TIP3    H160811   3.726   0.842   0.871 -1.6438 -0.6051  2.5821
13132TIP3    H260812   3.834   0.738   0.847  0.0521  1.6811 -0.0586
13133TIP3   OH260813   6.102   4.330   6.110 -0.4485 -0.6724 -0.1908
13133TIP3    H160814   6.045   4.392   6.065 -0.6893 -1.6486 -1.2536
13133TIP3    H260815   6.057   4.313   6.193  0.4341  1.8013  0.8631
13134TIP3   OH260816   5.107   3.775  11.688 -0.6925 -0.5418 -0.2030
13134TIP3    H160817   5.052   3.709  11.647  1.3396 -2.6923  0.4935
13134TIP3    H260818   5.178   3.790  11.626 -0.7967  0.5474 -0.0720
13135TIP3   OH260819   0.113   2.351   0.672  0.2694 -0.4094  0.2183
13135TIP3    H160820   0.135   2.305   0.753  0.6990  0.1623  0.4267
13135TIP3    H260821   0.198   2.373   0.634  0.0661 -0.4401 -0.2515
13136TIP3   OH260822   3.556   4.507   2.258 -0.0169  0.1619  0.3687
13136TIP3    H160823   3.509   4.478   2.180  0.6947  0.7963 -0.3086
13136TIP3    H260824   3.645   4.525   2.226 -0.1855  2.1142  0.9721
13137TIP3   OH260825   1.048   5.772  13.771 -0.2698  0.7076  0.1357
13137TIP3    H160826   1.060   5.821  13.852  1.1460  0.1727  0.2540
13137TIP3    H260827   1.002   5.692  13.799 -0.4021  0.8435  0.3095
13138TIP3   OH260828   4.946   6.675   3.469 -0.2008 -0.0787  0.3154
13138TIP3    H160829   4.865   6.657   3.421 -1.2000 -1.3072  2.3846
13138TIP3    H260830   4.933   6.761   3.508  0.6792  0.9932 -1.7237
13139TIP3   OH260831   4.465   6.090  14.482  0.2659 -0.1120  0.4381
13139TIP3    H160832   4.434   6.066  14.395 -0.1345  1.1616  0.2138
13139TIP3    H260833   4.455   6.011  14.534 -0.6243 -0.5464 -0.3736
13140TIP3   OH260834   3.357   3.479  13.613  0.0033 -0.4402 -0.2285
13140TIP3    H160835   3.433   3.508  13.562  0.6008 -1.7970 -0.1219
13140TIP3    H260836   3.393   3.421  13.680 -0.9664  0.0944  0.7690
13141TIP3   OH260837   2.998   5.582   0.559 -0.7534 -0.1639 -0.3953
13141TIP3    H160838   3.084   5.589   0.518 -1.5870  0.2817 -2.1487
13141TIP3    H260839   3.000   5.500   0.607  1.2275  0.6610  1.0097
13142TIP3   OH260840   4.300   5.792  16.217  0.7585 -0.1898  0.5250
13142TIP3    H160841   4.258   5.774  16.302 -0.5948  1.4538  0.2090
13142TIP3    H260842   4.250   5.863  16.179  0.1903 -2.1115 -2.5351
13143TIP3   OH260843   3.595   2.789  15.780 -0.8601 -0.2244  0.0977
13143TIP3    H160844   3.651   2.769  15.856  0.5080  1.2043 -0.5167
13143TIP3    H260845   3.555   2.705  15.758  1.2254 -1.3508  0.4321
13144TIP3   OH260846   5.341   0.537  16.716  0.3057  0.3308  0.5710
13144TIP3    H160847   5.364   0.523  16.624 -0.4623  1.5086  0.1929
13144TIP3    H260848   5.371   0.626  16.735 -0.0651  0.3056  1.2901
13145TIP3   OH260849   0.448   4.039  16.272 -0.6082  0.2135  0.0457
13145TIP3    H160850   0.496   3.976  16.325  0.3919  1.3449  0.5084
13145TIP3    H260851   0.434   4.114  16.330 -0.1654  1.1535 -1.0427
13146TIP3   OH260852   4.265   5.282  11.255  0.8410 -0.5048 -0.4686
13146TIP3    H160853   4.286   5.255  11.166  1.8332 -0.9996 -0.0986
13146TIP3    H260854   4.225   5.205  11.295  2.2224 -0.9374  0.1088
13147TIP3   OH260855   1.071   4.526   1.957  0.4553  0.1300 -0.4465
13147TIP3    H160856   1.009   4.565   1.896 -0.3203 -1.3304 -0.6256
13147TIP3    H260857   1.083   4.436   1.925  1.0829 -0.2332  0.7572
13148TIP3   OH260858   0.833   6.599  14.371 -0.0312  0.1472 -0.0920
13148TIP3    H160859   0.887   6.626  14.297 -2.1343  0.3927 -1.5925
13148TIP3    H260860   0.862   6.510  14.391  2.5239  1.1221  0.6986
13149TIP3   OH260861   5.903   5.120   6.038  0.2882  0.0231  0.2602
13149TIP3    H160862   5.872   5.199   6.083 -1.5203 -1.6686  2.1076
13149TIP3    H260863   5.956   5.153   5.965  1.3915  2.9005  2.2581
13150TIP3   OH260864   4.873   1.050  15.558  0.7019 -0.0736  0.4032
13150TIP3    H160865   4.889   1.143  15.572  1.6067 -0.1731  0.0494
13150TIP3    H260866   4.850   1.043  15.465 -1.1887  0.0339  0.8374
13151TIP3   OH260867   5.672   5.917   1.196  0.0486  0.3532 -0.3302
13151TIP3    H160868   5.733   5.991   1.197  0.3124  0.1642 -1.5816
13151TIP3    H260869   5.726   5.841   1.178 -0.2446 -0.1287  0.8329
13152TIP3   OH260870   4.165   0.373   5.187  0.0586 -0.1593 -0.2758
13152TIP3    H160871   4.122   0.424   5.255  0.0765 -1.4037  0.6923
13152TIP3    H260872   4.114   0.292   5.181  1.8718 -1.3844  0.4553
13153TIP3   OH260873   4.599   3.694  10.813  0.7527 -0.1802 -0.5699
13153TIP3    H160874   4.629   3.686  10.723  0.3783 -0.5993 -0.6579
13153TIP3    H260875   4.628   3.782  10.840  1.6832 -0.4144 -0.7846
13154TIP3   OH260876   2.278   3.114   5.863  0.2047  0.3698 -0.0396
13154TIP3    H160877   2.276   3.109   5.958  1.3507 -1.6996 -0.1068
13154TIP3    H260878   2.341   3.047   5.836 -3.0503 -1.9071 -2.4292
13155TIP3   OH260879   5.258   1.373   4.752  0.3387 -0.1318 -0.1389
13155TIP3    H160880   5.181   1.387   4.697 -1.1415  0.1185  1.8879
13155TIP3    H260881   5.261   1.451   4.807  0.9635 -0.9637  1.0221
13156TIP3   OH260882   5.011   3.589  11.499 -0.1146  0.7752  0.2704
13156TIP3    H160883   5.063   3.521  11.457 -0.7057  0.4029  0.1386
13156TIP3    H260884   5.002   3.657  11.433 -0.5997  0.4199 -0.0311
13157TIP3   OH260885   4.409   6.113   0.678 -0.3990 -0.5607 -0.2716
13157TIP3    H160886   4.487   6.099   0.624 -0.3617  0.7814 -0.5702
13157TIP3    H260887   4.428   6.190   0.731 -0.3892 -1.9506  1.7966
13158TIP3   OH260888   3.041   6.215   2.096  0.1849  0.4887  0.3976
13158TIP3    H160889   3.128   6.242   2.066 -0.8784  3.2017 -0.4171
13158TIP3    H260890   2.981   6.254   2.032 -1.6801 -0.7507  1.3551
13159TIP3   OH260891   5.781   3.990   2.472 -0.0563 -0.2048  0.8224
13159TIP3    H160892   5.814   4.072   2.508 -3.5374  1.6794  0.0306
13159TIP3    H260893   5.710   3.965   2.532 -0.3060 -1.5701 -0.0249
13160TIP3   OH260894   2.704   2.761   3.823 -0.1863 -0.2017 -0.0179
13160TIP3    H160895   2.707   2.823   3.895  0.4870  0.3015 -0.4765
13160TIP3    H260896   2.731   2.678   3.862  0.8313  0.2088  0.1670
13161TIP3   OH260897   3.948   5.989  16.171  0.6082 -0.0027  0.4235
13161TIP3    H160898   3.958   5.901  16.207 -0.4019 -0.3191 -0.0579
13161TIP3    H260899   3.884   5.979  16.101 -0.4629  1.3524  1.2018
13162TIP3   OH260900   2.360   1.925   3.621  0.0646  0.3302 -0.2000
13162TIP3    H160901   2.337   1.992   3.557  0.3921  0.8814  0.2624
13162TIP3    H260902   2.456   1.921   3.619  0.0502 -0.0874 -0.1878
13163TIP3   OH260903   1.576   4.649   1.245 -0.1125  0.3110  0.4654
13163TIP3    H160904   1.661   4.605   1.255  0.2314  1.0796  1.0100
13163TIP3    H260905   1.559   4.645   1.151  0.7351  0.5015  0.2922
13164TIP3   OH260906   5.646   3.980  14.291 -0.4251 -0.9303  0.1176
13164TIP3    H160907   5.660   3.979  14.197  0.3766  0.5842  0.2014
13164TIP3    H260908   5.551   3.987  14.301 -0.3393  1.6726 -0.6287
13165TIP3   OH260909   2.437   6.373   1.696  0.3661 -0.2885  0.0703
13165TIP3    H160910   2.389   6.297   1.664 -0.8163  0.4392  0.0789
13165TIP3    H260911   2.404   6.446   1.644  0.7720  0.3782  0.7364
13166TIP3   OH260912   5.469   0.782   1.510 -0.1104 -0.3321  0.0108
13166TIP3    H160913   5.498   0.830   1.432 -0.3539  1.4445  1.0160
13166TIP3    H260914   5.548   0.736   1.540  0.2477 -0.1483 -0.6417
13167TIP3   OH260915   0.419   5.344   6.004  0.4019  0.1416  0.8470
13167TIP3    H160916   0.454   5.425   5.967 -0.6237  0.3889  0.3936
13167TIP3    H260917   0.324   5.358   6.006  0.2726 -0.7826  1.4099
13168TIP3   OH260918   6.579   6.037  16.332 -0.7683 -0.1655 -0.0126
13168TIP3    H160919   6.515   6.106  16.346  0.4710  1.2358 -1.1505
13168TIP3    H260920   6.563   5.974  16.403 -2.3101  0.9714  0.6559
13169TIP3   OH260921   4.645   2.910   5.391 -0.1325 -0.5297  0.1141
13169TIP3    H160922   4.576   2.977   5.401  0.2055  0.1828 -2.0979
13169TIP3    H260923   4.727   2.960   5.396  0.1915 -1.1600  1.1436
13170TIP3   OH260924   2.329   1.596   1.300 -0.0895 -0.6568  0.1497
13170TIP3    H160925   2.259   1.543   1.339  0.3768 -0.2325  1.5757
13170TIP3    H260926   2.373   1.637   1.375  0.7639  0.2340 -0.8264
13171TIP3   OH260927   2.482   0.171   3.579  0.4377  0.2616  0.1896
13171TIP3    H160928   2.423   0.204   3.510  0.9424  0.7583 -0.0041
13171TIP3    H260929   2.547   0.120   3.532 -1.3852 -2.6033  0.6457
13172TIP3   OH260930   1.289   0.786   0.920  0.0554 -0.1689 -0.0375
13172TIP3    H160931   1.223   0.840   0.877 -0.1093 -1.1224 -1.0094
13172TIP3    H260932   1.372   0.827   0.897 -0.0674 -0.3133 -0.7541
13173TIP3   OH260933   2.905   2.405  14.476 -1.0522 -0.6874  0.2711
13173TIP3    H160934   2.939   2.415  14.565 -1.2436  0.6909  0.2102
13173TIP3    H260935   2.844   2.478  14.466 -0.5115 -0.4226 -1.2263
13174TIP3   OH260936   5.773   5.315  14.693  0.2440 -0.7551  0.6321
13174TIP3    H160937   5.833   5.253  14.735  0.9925  0.5135  1.4629
13174TIP3    H260938   5.741   5.370  14.765  0.2092  0.3329 -0.2048
13175TIP3   OH260939   0.316   3.834  13.797  0.0242 -0.2783 -0.1743
13175TIP3    H160940   0.359   3.837  13.712 -0.3792 -0.4457 -0.3867
13175TIP3    H260941   0.332   3.745  13.829 -2.1882 -1.1419 -1.3284
13176TIP3   OH260942   0.039   3.974   0.364  0.0613  0.5106  0.3396
13176TIP3    H160943   0.115   3.932   0.324  1.1667  1.7038  1.1518
13176TIP3    H260944  -0.006   4.015   0.290  0.5411  0.3315 -0.0620
13177TIP3   OH260945   4.630   0.516   5.789 -0.2317 -0.1968  0.0506
13177TIP3    H160946   4.589   0.444   5.740 -0.5390  0.6306 -0.9053
13177TIP3    H260947   4.660   0.475   5.871  1.3478 -1.8671 -1.3087
13178TIP3   OH260948   2.194   4.440   1.835  0.0404 -0.3128 -0.5420
13178TIP3    H160949   2.277   4.427   1.789  0.0627  0.6624 -0.7764
13178TIP3    H260950   2.164   4.526   1.807  0.2802  0.4961  1.6286
13179TIP3   OH260951   3.638   1.057  14.852  0.0992  0.3488 -0.4733
13179TIP3    H160952   3.633   1.052  14.948 -1.2353  2.1092 -0.4006
13179TIP3    H260953   3.552   1.027  14.822 -1.0472  3.7435 -0.8542
13180TIP3   OH260954   5.077   2.283  14.524  0.5108 -0.2096  0.4282
13180TIP3    H160955   5.031   2.291  14.441 -0.2026 -0.2749  0.8208
13180TIP3    H260956   5.137   2.358  14.524 -0.1209  0.3025  0.2602
13181TIP3   OH260957   2.955   0.964  15.185 -0.3956 -0.4979 -0.2487
13181TIP3    H160958   3.025   0.963  15.120  0.4380 -0.1344  0.6272
13181TIP3    H260959   2.939   0.872  15.204 -0.3447 -0.5923 -0.6591
13182TIP3   OH260960   3.723   3.128  12.417  0.4518 -0.0441 -0.5239
13182TIP3    H160961   3.798   3.165  12.370  0.5015  0.5544  0.0105
13182TIP3    H260962   3.725   3.172  12.502  0.7194 -1.5433  0.2504
13183TIP3   OH260963   3.134   0.274   5.250 -1.5507 -0.5623 -0.1648
13183TIP3    H160964   3.217   0.300   5.289 -0.2619 -4.9470  0.3504
13183TIP3    H260965   3.139   0.304   5.160  1.7838 -2.9501 -0.8599
13184TIP3   OH260966   5.569   2.798  17.121 -0.8040 -0.4521  0.3410
13184TIP3    H160967   5.489   2.795  17.173 -1.9239 -0.1998 -1.3065
13184TIP3    H260968   5.543   2.842  17.040  0.4312 -2.4054 -1.1766
13185TIP3   OH260969   0.365   5.916   0.843  0.5757 -0.0302 -0.0805
13185TIP3    H160970   0.277   5.880   0.836 -0.3512  1.7395  1.8077
13185TIP3    H260971   0.352   6.011   0.848  2.5698  0.2507  0.3985
13186TIP3   OH260972   3.287   1.482  12.054 -0.0825 -0.7301  0.6724
13186TIP3    H160973   3.292   1.571  12.088  1.0486 -0.8740  0.9096
13186TIP3    H260974   3.215   1.484  11.991 -1.8293 -0.3022  2.5941
13187TIP3   OH260975   3.892   3.102   4.554  0.6662 -0.0624  0.4869
13187TIP3    H160976   3.812   3.073   4.509  0.2236 -0.6042  1.5778
13187TIP3    H260977   3.964   3.071   4.499  0.1906 -2.5701  1.1788
13188TIP3   OH260978   4.151   4.400   6.031 -0.1924 -0.3864  0.3595
13188TIP3    H160979   4.217   4.443   6.085 -0.7735  2.8114 -1.3768
13188TIP3    H260980   4.068   4.421   6.072 -0.5121  0.5254 -0.7475
13189TIP3   OH260981   5.385   1.672  15.347 -0.2176 -0.3127 -0.2303
13189TIP3    H160982   5.322   1.601  15.333 -0.6837  0.0429  0.0744
13189TIP3    H260983   5.434   1.677  15.265  0.8229 -1.9859  0.2544
13190TIP3   OH260984   6.287   6.339  15.809  0.1768  0.0944  0.1462
13190TIP3    H160985   6.222   6.285  15.853 -1.8271  1.7156 -0.7805
13190TIP3    H260986   6.280   6.425  15.849  1.2215  0.4985 -0.4873
13191TIP3   OH260987   3.973   2.446  14.431 -0.4124 -0.3887 -0.3463
13191TIP3    H160988   3.891   2.490  14.411 -0.5001 -0.6365 -0.5348
13191TIP3    H260989   4.026   2.456  14.352 -0.9543 -1.8198 -0.9123
13192TIP3   OH260990   2.216   6.526  12.441 -0.5514 -0.1234 -0.0834
13192TIP3    H160991   2.226   6.464  12.369 -0.7978  0.9532 -1.0513
13192TIP3    H260992   2.126   6.514  12.471 -0.7454  0.0930 -0.5748
13193TIP3   OH260993   0.513   4.067  14.586 -0.5568  0.5020  0.2613
13193TIP3    H160994   0.509   4.039  14.494  1.6347 -2.0433  0.8665
13193TIP3    H260995   0.515   4.163  14.582 -1.9948  0.4752 -2.2511
13194TIP3   OH260996   4.883   3.888   3.106  0.0604  0.6091  0.1024
13194TIP3    H160997   4.892   3.968   3.054  1.0169 -0.0557 -0.7472
13194TIP3    H260998   4.945   3.900   3.178 -1.5938  1.7377  1.4143
13195TIP3   OH260999   1.379   4.170   5.436 -0.1457  0.4163 -0.1915
13195TIP3    H161000   1.425   4.236   5.384 -1.0370  1.9349  0.9003
13195TIP3    H261001   1.307   4.141   5.380  1.7638 -1.5661 -1.6856
13196TIP3   OH261002   0.941   4.237   3.542 -0.7396  0.1621  0.4561
13196TIP3    H161003   0.867   4.295   3.562 -1.1237 -0.4827  0.9399
13196TIP3    H261004   0.964   4.257   3.452 -1.1095  0.8002  0.4960
13197TIP3   OH261005   0.542   4.176  12.913  0.6922 -0.1781  0.0858
13197TIP3    H161006   0.500   4.242  12.857  0.0996 -0.8752 -0.3001
13197TIP3    H261007   0.558   4.101  12.855 -0.0272 -0.9512  0.8693
13198TIP3   OH261008   1.710   5.909   1.700  0.3140  0.2487  0.2964
13198TIP3    H161009   1.713   5.947   1.788 -2.0904  2.3696 -0.4707
13198TIP3    H261010   1.780   5.952   1.652  1.1469 -0.3600  0.9489
13199TIP3   OH261011   0.634   4.602   2.643 -0.1165  0.3148 -0.3858
13199TIP3    H161012   0.581   4.667   2.687 -1.4260  0.6015 -2.3159
13199TIP3    H261013   0.586   4.520   2.653 -0.7704  0.5027 -1.8005
13200TIP3   OH261014   2.960   1.385  16.434  0.1424  0.1099  0.1734
13200TIP3    H161015   2.986   1.295  16.452  1.6652  0.7885  1.4621
13200TIP3    H261016   2.988   1.401  16.344  1.7069 -0.0435  0.6363
13201TIP3   OH261017   4.675   0.051  15.482  0.7178 -0.0328  0.2764
13201TIP3    H161018   4.668   0.123  15.545  0.2425  0.5675 -0.4556
13201TIP3    H261019   4.688  -0.027  15.536 -0.7220  0.3287  1.1774
13202TIP3   OH261020   2.783   2.952  15.160  0.1402 -0.0976 -0.4041
13202TIP3    H161021   2.840   2.986  15.229 -0.5887 -0.7264  0.5375
13202TIP3    H261022   2.699   2.996  15.175  0.3900  0.8451 -1.7915
13203TIP3   OH261023   6.052   4.437  12.289 -0.6304  0.2056  0.2744
13203TIP3    H161024   5.981   4.496  12.264 -1.9785 -1.4631  0.0425
13203TIP3    H261025   6.097   4.418  12.207 -1.7243 -1.0075 -0.0668
13204TIP3   OH261026   6.076   3.864   0.166 -0.5022  0.2128 -0.2089
13204TIP3    H161027   6.090   3.882   0.073 -0.7495  1.9006  0.0466
13204TIP3    H261028   6.109   3.943   0.210  0.6258 -1.0308  1.2041
13205TIP3   OH261029   3.983   2.832  13.805  0.6336 -0.1623 -0.3253
13205TIP3    H161030   4.009   2.903  13.864  0.3832  0.1382 -0.5747
13205TIP3    H261031   3.941   2.767  13.862 -0.4441  0.5477 -0.3095
13206TIP3   OH261032   6.017   5.433  16.238  0.0922 -0.3174 -0.3604
13206TIP3    H161033   5.948   5.458  16.176 -0.6061 -1.9864 -0.2920
13206TIP3    H261034   6.034   5.512  16.288 -1.2626  0.3250 -0.8860
13207TIP3   OH261035   0.550   1.776   1.103 -0.3255  0.1720  0.1869
13207TIP3    H161036   0.576   1.859   1.143  0.0160  0.5008 -0.7074
13207TIP3    H261037   0.632   1.740   1.068 -0.6751  0.0350 -0.4851
13208TIP3   OH261038   4.969   0.100   3.644  0.3933  0.0029 -0.0029
13208TIP3    H161039   4.941   0.025   3.697 -0.3602 -0.1422 -0.5990
13208TIP3    H261040   4.977   0.172   3.708 -0.9079 -0.0672  0.2687
13209TIP3   OH261041   5.110   6.085   0.983  0.2996 -0.2957  0.2243
13209TIP3    H161042   5.069   6.114   1.064 -0.7403 -1.5470  0.1725
13209TIP3    H261043   5.159   6.007   1.008  0.0950 -0.5981 -0.3071
13210TIP3   OH261044   2.276   0.210  16.382  0.5523  0.1909 -0.1565
13210TIP3    H161045   2.273   0.116  16.400 -1.3035  0.3723  0.5705
13210TIP3    H261046   2.185   0.239  16.388  1.0629  1.9873 -0.6728
13211TIP3   OH261047   1.517   0.445   2.655 -0.6044 -0.3352 -0.0430
13211TIP3    H161048   1.435   0.409   2.690 -0.5018  0.5050  1.0903
13211TIP3    H261049   1.522   0.533   2.691  0.6751 -0.2870 -0.3097
13212TIP3   OH261050   2.314   4.050  11.335  0.1366  0.4583  0.4217
13212TIP3    H161051   2.250   3.983  11.311 -1.2957  1.5904  1.0182
13212TIP3    H261052   2.330   4.036  11.428  2.0345 -0.8652 -0.0772
13213TIP3   OH261053   0.174   2.689   0.739  0.3754  0.0793 -0.1213
13213TIP3    H161054   0.123   2.668   0.817 -0.2224  2.5240  0.1991
13213TIP3    H261055   0.115   2.743   0.686  1.2920 -0.3039 -1.5570
13214TIP3   OH261056   3.359   2.640  15.524 -0.2500  0.1640 -0.2986
13214TIP3    H161057   3.384   2.605  15.439 -1.6387  0.6302 -0.9166
13214TIP3    H261058   3.323   2.566  15.572 -0.7754  0.1864 -0.6493
13215TIP3   OH261059   3.826   5.779   1.887 -0.8254  0.6198 -0.8417
13215TIP3    H161060   3.872   5.829   1.819  0.7132  2.9614  1.7996
13215TIP3    H261061   3.895   5.727   1.928 -1.3763  0.6689  0.1526
13216TIP3   OH261062   2.391   6.127  11.464 -0.8496 -0.0230 -0.1940
13216TIP3    H161063   2.414   6.068  11.536 -2.4456 -1.7787 -1.0686
13216TIP3    H261064   2.321   6.182  11.500 -0.3798  0.3488  0.1594
13217TIP3   OH261065   4.936   5.818   5.348  0.3148  0.7747 -0.0346
13217TIP3    H161066   5.015   5.783   5.390  0.6658  0.3686 -1.0146
13217TIP3    H261067   4.970   5.866   5.272 -0.3746  0.7307 -0.3663
13218TIP3   OH261068   3.556   0.955  15.691  0.5233  0.8259 -0.5030
13218TIP3    H161069   3.625   0.984  15.751  1.9224 -2.4633 -0.4402
13218TIP3    H261070   3.602   0.938  15.609 -0.3144 -0.8328 -0.6379
13219TIP3   OH261071   6.495   4.361  14.051 -0.2302 -0.1559 -0.2481
13219TIP3    H161072   6.492   4.457  14.043  1.0578 -0.0819 -0.0456
13219TIP3    H261073   6.404   4.334  14.049 -0.5496  0.9576 -1.8697
13220TIP3   OH261074   6.714   4.646   3.607 -0.3672 -0.3884 -0.1094
13220TIP3    H161075   6.743   4.632   3.517 -2.2822  1.4770 -1.0420
13220TIP3    H261076   6.786   4.612   3.661  1.3804 -0.2931 -2.3337
13221TIP3   OH261077   1.534   0.805   2.854 -0.4807 -0.0092 -0.2206
13221TIP3    H161078   1.557   0.820   2.946 -0.9172  3.4724 -0.5870
13221TIP3    H261079   1.582   0.873   2.806  0.0191 -1.9953 -2.6368
13222TIP3   OH261080   0.857   5.993  14.221 -0.2552  0.0524  0.2088
13222TIP3    H161081   0.944   5.966  14.192  0.0343  0.6404  0.5320
13222TIP3    H261082   0.797   5.930  14.179  0.3455 -0.5474  0.2402
13223TIP3   OH261083   4.899   3.850   1.121 -0.1341 -0.0478  0.0380
13223TIP3    H161084   4.946   3.847   1.038 -1.1889  0.3036 -0.5815
13223TIP3    H261085   4.836   3.921   1.112 -2.0934 -1.6912  0.1214
13224TIP3   OH261086   4.859   6.203   1.208  0.4224  0.4986  0.0915
13224TIP3    H161087   4.916   6.173   1.278  0.9901 -0.0933 -0.6255
13224TIP3    H261088   4.771   6.174   1.234  0.8707 -1.2223 -0.2897
13225TIP3   OH261089   1.029   6.687   1.107  0.0378 -0.3187  0.2040
13225TIP3    H161090   1.015   6.689   1.202 -0.4900  2.5218  0.1091
13225TIP3    H261091   1.090   6.615   1.093 -1.0080 -1.7258  2.5340
13226TIP3   OH261092   3.613   0.491  15.802  0.0613  0.1162 -0.0459
13226TIP3    H161093   3.679   0.554  15.830 -1.4667  0.9772  1.6138
13226TIP3    H261094   3.620   0.419  15.865 -1.0626  0.5329  0.5636
13227TIP3   OH261095   3.517   6.281  15.870 -0.1348  0.1545  0.1588
13227TIP3    H161096   3.494   6.227  15.945  0.5852 -0.2377  0.1048
13227TIP3    H261097   3.508   6.223  15.794  1.5531 -0.1902  0.1888
13228TIP3   OH261098   6.639   0.611  13.878  0.0808  0.4943  0.4013
13228TIP3    H161099   6.625   0.635  13.970 -1.3000  0.4935  0.1977
13228TIP3    H261100   6.714   0.664  13.851 -1.7220  3.1997  0.5183
13229TIP3   OH261101   1.763   4.586  12.244  0.1343 -0.6613 -0.5672
13229TIP3    H161102   1.785   4.598  12.151 -0.0246  1.3256 -0.3602
13229TIP3    H261103   1.843   4.549  12.282  0.8227  0.2304 -1.1322
13230TIP3   OH261104   6.451   1.297   3.158 -0.1158 -0.3557  0.3981
13230TIP3    H161105   6.528   1.299   3.101 -1.3521  0.5360 -1.2881
13230TIP3    H261106   6.419   1.207   3.152 -0.1030 -0.3265 -0.1456
13231TIP3   OH261107   5.382   3.977   4.140  0.8108  0.0277  0.1125
13231TIP3    H161108   5.394   4.040   4.211  0.7309  0.4419 -0.2398
13231TIP3    H261109   5.316   4.016   4.083 -1.1101 -1.5333  1.2317
13232TIP3   OH261110   3.600   2.776  16.998  0.3722 -0.6268  0.1088
13232TIP3    H161111   3.642   2.704  17.044  2.8770  0.6749 -0.0420
13232TIP3    H261112   3.609   2.851  17.056 -2.6921 -0.5021  0.5084
13233TIP3   OH261113   1.400   6.304  15.014  0.7263 -0.1338 -0.5669
13233TIP3    H161114   1.490   6.282  14.987  0.7389 -1.0449  0.1902
13233TIP3    H261115   1.381   6.242  15.084 -0.9596 -0.7778 -1.5770
13234TIP3   OH261116   3.428   6.326   6.637 -0.0452 -0.5233 -0.0413
13234TIP3    H161117   3.393   6.395   6.579  0.3105 -0.4203 -0.1345
13234TIP3    H261118   3.521   6.345   6.642  0.0124 -0.8619  0.1276
13235TIP3   OH261119   2.612   3.201   0.917  0.6518  0.0635  0.0980
13235TIP3    H161120   2.636   3.126   0.864  0.8731 -0.5342  1.0284
13235TIP3    H261121   2.695   3.246   0.935  0.5567  0.3656 -0.2083
13236TIP3   OH261122   4.517   5.168  14.678  0.4325  0.5796  0.8428
13236TIP3    H161123   4.498   5.098  14.616  2.0080 -0.8268  1.9205
13236TIP3    H261124   4.431   5.200  14.705 -0.2902 -0.4544 -0.2163
13237TIP3   OH261125   3.072   6.769   2.931 -0.8317  0.4528 -0.7695
13237TIP3    H161126   3.126   6.830   2.882 -0.6027  0.2463 -0.7753
13237TIP3    H261127   2.983   6.787   2.902 -0.7403  0.6233 -0.9433
13238TIP3   OH261128   4.774   1.059  11.561  0.3542 -0.1847  0.1098
13238TIP3    H161129   4.822   1.141  11.573  0.8780 -0.3215 -0.9425
13238TIP3    H261130   4.765   1.023  11.649  1.9406 -0.0119  0.3577
13239TIP3   OH261131   6.144   6.455  11.202 -0.1686 -0.1840 -0.5960
13239TIP3    H161132   6.173   6.431  11.114  1.2843 -1.6287  0.2541
13239TIP3    H261133   6.068   6.398  11.218  2.3520 -3.2657  0.8237
13240TIP3   OH261134   6.570   1.239  16.983 -0.5302 -0.2897 -0.0789
13240TIP3    H161135   6.581   1.144  16.986 -1.0982 -0.3868 -0.7990
13240TIP3    H261136   6.476   1.251  16.967 -0.7015  0.4172  1.3963
13241TIP3   OH261137   3.154   2.063  12.174  0.0696 -0.3026  0.1533
13241TIP3    H161138   3.240   2.044  12.136  0.2935  1.2589 -0.1347
13241TIP3    H261139   3.155   2.158  12.189 -1.2938 -0.4054  0.9112
13242TIP3   OH261140   6.724   0.363   0.963 -0.4695 -0.3902  0.4029
13242TIP3    H161141   6.711   0.426   0.892 -1.8261 -0.7399  0.3216
13242TIP3    H261142   6.644   0.311   0.964  0.5559 -2.0197  0.5735
13243TIP3   OH261143   6.221   6.145  10.215 -0.1996 -0.0483 -0.1941
13243TIP3    H161144   6.240   6.056  10.185  0.9503  0.3153 -0.5855
13243TIP3    H261145   6.161   6.134  10.288  0.7226 -1.1943  0.3988
13244TIP3   OH261146   3.672   2.226  15.194  0.2585  0.0937  0.3558
13244TIP3    H161147   3.577   2.215  15.192  0.5312 -2.9859  1.6351
13244TIP3    H261148   3.696   2.245  15.103 -1.3465 -1.7634 -0.5013
13245TIP3   OH261149   5.047   0.708   0.735 -0.1048  0.6003  0.3912
13245TIP3    H161150   5.020   0.618   0.753 -1.0809  0.8999  0.4861
13245TIP3    H261151   5.137   0.700   0.703 -0.6126 -0.5385 -0.8305
13246TIP3   OH261152   4.210   0.702   5.444 -0.0065  0.2755  0.0686
13246TIP3    H161153   4.205   0.644   5.519  0.0934  0.7096  0.4123
13246TIP3    H261154   4.275   0.768   5.468 -0.2073  0.6049 -0.2678
13247TIP3   OH261155   2.721   3.971  16.280  0.3511 -0.5793 -0.3668
13247TIP3    H161156   2.666   3.963  16.358  0.3784  1.7134 -0.1071
13247TIP3    H261157   2.755   3.882  16.266 -0.7646 -1.3044  1.4049
13248TIP3   OH261158   2.167   2.529   5.888  0.2178  0.2410 -0.6724
13248TIP3    H161159   2.145   2.622   5.888  2.6327  0.8480  0.8912
13248TIP3    H261160   2.219   2.517   5.967  0.8360 -2.2266 -1.4312
13249TIP3   OH261161   5.450   6.494  16.164  0.9539  0.4344 -0.2663
13249TIP3    H161162   5.390   6.567  16.182  0.9344  0.7721 -1.6095
13249TIP3    H261163   5.458   6.448  16.247  2.1818  2.8571  0.9985
13250TIP3   OH261164   6.782   2.561   5.134  0.6203 -0.0835  0.7018
13250TIP3    H161165   6.739   2.489   5.180  1.9979 -1.8975 -0.7622
13250TIP3    H261166   6.842   2.598   5.199 -2.5353  1.9998  2.5233
13251TIP3   OH261167   4.913   1.676   0.937  0.1691  0.0365  0.0304
13251TIP3    H161168   4.874   1.677   1.025  2.4714  0.9902  1.0842
13251TIP3    H261169   5.007   1.668   0.953  0.5270 -1.0089 -2.4154
13252TIP3   OH261170   2.613   2.883  17.199  0.1842  0.4839 -0.4253
13252TIP3    H161171   2.667   2.909  17.274 -0.4989  1.8361 -0.4022
13252TIP3    H261172   2.675   2.875  17.127  0.7229 -0.0028  0.0834
13253TIP3   OH261173   2.570   5.889   5.070 -0.4558 -0.5079 -0.0429
13253TIP3    H161174   2.533   5.948   5.004 -0.8211  1.8403  2.1646
13253TIP3    H261175   2.509   5.815   5.072 -1.5022  0.3034 -0.9898
13254TIP3   OH261176   1.553   6.287   0.287  0.6060 -0.1168 -0.2894
13254TIP3    H161177   1.633   6.293   0.236  0.3407  0.9495 -0.5874
13254TIP3    H261178   1.497   6.227   0.237  1.1147 -0.6602 -0.2086
13255TIP3   OH261179   0.204   0.511  15.909  0.6611 -0.4831 -0.0494
13255TIP3    H161180   0.151   0.476  15.980  0.6695 -1.5834 -0.5835
13255TIP3    H261181   0.294   0.507  15.942  0.7327 -1.6400 -0.3942
13256TIP3   OH261182   3.467   4.372  15.058  0.5923  0.2908 -0.0544
13256TIP3    H161183   3.385   4.340  15.019  1.1951 -0.3403 -0.8350
13256TIP3    H261184   3.486   4.452  15.010  1.4466 -0.6003 -1.2173
13257TIP3   OH261185   4.343   5.835  14.090  0.1956  0.3265  0.3690
13257TIP3    H161186   4.279   5.902  14.065 -0.6847 -0.4455  0.5252
13257TIP3    H261187   4.327   5.764  14.028 -0.1633 -0.5069  1.4116
13258TIP3   OH261188   3.774   0.763   2.940 -0.2593 -0.0645  0.3805
13258TIP3    H161189   3.852   0.802   2.979  0.5813  0.0361 -1.3113
13258TIP3    H261190   3.780   0.670   2.961 -0.5151  0.1882  1.5873
13259TIP3   OH261191   0.397   3.051  13.423 -0.1002  0.1467 -0.8388
13259TIP3    H161192   0.397   3.122  13.358  1.6623 -0.7098 -1.8006
13259TIP3    H261193   0.374   2.973  13.372  0.3272 -0.3716 -0.2432
13260TIP3   OH261194   2.357   6.002   2.110 -0.6977  0.1019  0.1058
13260TIP3    H161195   2.274   5.980   2.152 -0.7081  0.7671  0.4512
13260TIP3    H261196   2.332   6.028   2.021 -0.9505  1.0194  0.4353
13261TIP3   OH261197   0.319   3.164  14.863  0.2944 -0.3628  0.0109
13261TIP3    H161198   0.306   3.186  14.771  0.0538 -0.7948 -0.0608
13261TIP3    H261199   0.312   3.247  14.909  1.2312 -0.0310 -0.4509
13262TIP3   OH261200   0.248   3.254  14.618 -0.4223 -0.7044 -0.0117
13262TIP3    H161201   0.324   3.284  14.569  0.1979  0.7514  1.7931
13262TIP3    H261202   0.182   3.235  14.551  1.3248 -1.4371 -1.5467
13263TIP3   OH261203   2.206   2.865  16.645 -0.1340  0.1184  0.4361
13263TIP3    H161204   2.290   2.897  16.611 -0.2214 -0.7642 -0.6229
13263TIP3    H261205   2.142   2.928  16.613 -0.0711 -0.0891 -0.1110
13264TIP3   OH261206   6.419   2.775   3.701  0.2828  0.1703  0.0141
13264TIP3    H161207   6.466   2.858   3.693 -1.0229  0.9771  0.5905
13264TIP3    H261208   6.404   2.764   3.795  0.0218 -0.4755 -0.0969
13265TIP3   OH261209   4.889   2.848   3.689 -0.0395 -0.4417 -0.0944
13265TIP3    H161210   4.903   2.863   3.782 -0.1094 -1.9554  0.1733
13265TIP3    H261211   4.977   2.847   3.651  0.1930 -2.5130  0.4067
13266TIP3   OH261212   1.317   3.770  12.991  0.3722  0.2807 -0.1155
13266TIP3    H161213   1.339   3.717  12.915 -0.2234  0.8846 -0.7160
13266TIP3    H261214   1.259   3.715  13.043  1.9075 -0.6854  0.6417
13267TIP3   OH261215   5.749   2.082  14.590 -0.0945 -0.0744  0.4937
13267TIP3    H161216   5.762   2.147  14.659  0.7913  2.3897 -1.8987
13267TIP3    H261217   5.838   2.052  14.568 -0.1634  0.8281 -1.0850
13268TIP3   OH261218   0.984   0.992   0.190 -0.2318 -0.7581  0.2141
13268TIP3    H161219   1.043   0.988   0.266  1.5167 -1.4462 -1.1602
13268TIP3    H261220   0.909   1.042   0.222  0.0569 -1.7922  2.6771
13269TIP3   OH261221   3.724   5.137  13.336  0.2812 -0.4179 -0.4629
13269TIP3    H161222   3.771   5.089  13.267  0.3567  0.0040 -0.7102
13269TIP3    H261223   3.639   5.094  13.341  1.0923 -1.9348  0.7908
13270TIP3   OH261224   6.616   0.568   2.032 -1.1218 -0.3971 -0.1912
13270TIP3    H161225   6.681   0.533   2.093  0.3273  0.0260 -1.4658
13270TIP3    H261226   6.663   0.635   1.982 -2.4623 -0.2597 -1.3144
13271TIP3   OH261227   3.739   6.553  15.085  0.3024 -0.1524 -0.2922
13271TIP3    H161228   3.681   6.507  15.145 -0.0861  0.4937 -0.1700
13271TIP3    H261229   3.689   6.563  15.004  0.5419 -0.3311 -0.4655
13272TIP3   OH261230   1.359   4.157   3.492  0.0914 -0.5185 -0.0942
13272TIP3    H161231   1.427   4.094   3.515  1.3533  0.8320 -0.1052
13272TIP3    H261232   1.314   4.117   3.418  0.6925 -1.5451  0.0851
13273TIP3   OH261233   3.119   4.311  16.924  0.0062 -0.1851 -0.0641
13273TIP3    H161234   3.065   4.310  16.845  0.2900  0.7729 -0.2782
13273TIP3    H261235   3.119   4.220  16.955  0.8615 -0.8077 -1.8331
13274TIP3   OH261236   4.210   4.715   6.678  0.0708  0.0457 -0.1459
13274TIP3    H161237   4.290   4.760   6.704  0.1708  0.0983 -0.5476
13274TIP3    H261238   4.141   4.780   6.689  0.0871  0.0075  0.1745
13275TIP3   OH261239   1.573   4.044  13.200 -0.5499  0.5299 -0.3004
13275TIP3    H161240   1.665   4.020  13.213 -0.4614 -0.3218 -2.4258
13275TIP3    H261241   1.565   4.130  13.241  1.1571  0.5619  0.0014
13276TIP3   OH261242   4.177   4.001   1.812 -0.1337 -0.3533  0.6180
13276TIP3    H161243   4.261   3.955   1.812 -0.3441 -0.7500  1.1991
13276TIP3    H261244   4.112   3.932   1.827 -0.7391 -0.3330 -1.7270
13277TIP3   OH261245   2.358   6.171   1.549  0.4731 -0.0275  0.4202
13277TIP3    H161246   2.289   6.181   1.483  0.1669  1.1931  0.9062
13277TIP3    H261247   2.354   6.079   1.575  0.9593 -0.6705 -1.6475
13278TIP3   OH261248   2.359   4.485  16.626 -0.5009  0.0468 -0.3399
13278TIP3    H161249   2.268   4.486  16.595 -0.3971  0.0861 -0.6525
13278TIP3    H261250   2.396   4.567  16.593 -0.7850  0.7706  1.1116
13279TIP3   OH261251   0.162   3.414   3.695 -0.1873  0.0515 -0.5262
13279TIP3    H161252   0.178   3.503   3.727 -0.4027 -0.8631  2.2723
13279TIP3    H261253   0.094   3.380   3.753  0.4096 -2.1933 -1.1100
13280TIP3   OH261254   1.645   2.509   6.250  0.5590 -0.1646  0.0333
13280TIP3    H161255   1.613   2.593   6.217 -1.8791 -1.0350  0.0643
13280TIP3    H261256   1.633   2.514   6.345  2.1501  0.1407  0.2295
13281TIP3   OH261257   2.458   2.732   0.504  0.0859 -0.1104  0.0698
13281TIP3    H161258   2.440   2.647   0.545  0.3146  0.2743  0.9950
13281TIP3    H261259   2.382   2.749   0.449 -1.1444  0.2692  1.8602
13282TIP3   OH261260   3.002   3.418  14.612 -0.0668 -0.1913  0.5952
13282TIP3    H161261   3.058   3.415  14.689 -0.4719  2.4747  1.0301
13282TIP3    H261262   2.914   3.403  14.646 -0.1677  0.3513  0.5821
13283TIP3   OH261263   2.386   6.061  11.187 -0.2491  0.3376  0.2020
13283TIP3    H161264   2.452   6.130  11.180 -0.0956  0.1427 -0.2487
13283TIP3    H261265   2.355   6.068  11.277  0.8934 -0.0351  0.6303
13284TIP3   OH261266   5.803   0.156  13.909  0.1978 -0.2826  0.3209
13284TIP3    H161267   5.855   0.117  13.979 -0.9930 -1.9845  0.2624
13284TIP3    H261268   5.763   0.233  13.949  0.6039 -0.4766  1.1103
13285TIP3   OH261269   4.302   3.179  16.739  0.1133  0.4398  0.1025
13285TIP3    H161270   4.362   3.254  16.728 -1.5523  1.6651 -0.8762
13285TIP3    H261271   4.216   3.219  16.750 -1.0583 -1.3723 -2.0881
13286TIP3   OH261272   5.767   5.523   2.424  0.0079  0.6850 -0.4635
13286TIP3    H161273   5.774   5.447   2.481 -2.0082  0.8381 -0.0028
13286TIP3    H261274   5.855   5.534   2.388  0.9006 -0.3874  1.3474
13287TIP3   OH261275   5.179   0.090  11.461  0.1937 -0.5253  0.2039
13287TIP3    H161276   5.175   0.029  11.387  0.9206  0.5358 -0.7330
13287TIP3    H261277   5.094   0.135  11.459 -0.6888 -2.0611  1.4190
13288TIP3   OH261278   5.527   4.054   2.071  0.3553 -0.1288 -0.0686
13288TIP3    H161279   5.541   4.130   2.015  1.3555 -0.8323 -0.7891
13288TIP3    H261280   5.582   4.072   2.148  1.4379 -0.6250 -0.7237
13289TIP3   OH261281   4.061   0.378  12.785  0.2060  0.2270 -0.2927
13289TIP3    H161282   3.977   0.350  12.748  0.5949 -1.7362  0.2202
13289TIP3    H261283   4.094   0.444  12.724 -1.5558  0.7948 -0.6685
13290TIP3   OH261284   5.340   6.612  14.312  0.0952 -0.0021 -0.0543
13290TIP3    H161285   5.248   6.639  14.311 -0.4058 -1.6571 -1.0182
13290TIP3    H261286   5.388   6.692  14.332 -1.5496  0.9102  0.3758
13291TIP3   OH261287   0.874   1.392  14.963 -0.0782 -0.0017  0.0800
13291TIP3    H161288   0.845   1.301  14.954  2.4102 -0.7897 -0.4561
13291TIP3    H261289   0.968   1.385  14.982 -0.0044  2.4403  0.7360
13292TIP3   OH261290   2.360   6.706   6.027 -0.3536 -0.0833 -0.3157
13292TIP3    H161291   2.390   6.694   6.117 -0.8330  0.1919 -0.1197
13292TIP3    H261292   2.348   6.800   6.017  0.2529 -0.0594 -0.8483
13293TIP3   OH261293   0.992   4.316   5.182 -0.7082 -0.0772 -0.4404
13293TIP3    H161294   1.039   4.241   5.145 -0.7183 -0.5547  0.5005
13293TIP3    H261295   1.053   4.389   5.173 -0.2174 -0.4592 -0.2464
13294TIP3   OH261296   4.036   0.828  12.032  0.3217  0.3488  0.5252
13294TIP3    H161297   4.035   0.924  12.027  0.5146  0.3372  0.2185
13294TIP3    H261298   4.068   0.808  12.119 -1.1420  0.5716  1.1312
13295TIP3   OH261299   3.974   0.479   4.293  0.0221 -0.6679 -0.0342
13295TIP3    H161300   3.896   0.529   4.272  0.7693  0.5697  0.0736
13295TIP3    H261301   3.983   0.488   4.388 -0.3749 -1.7949  0.1066
13296TIP3   OH261302   5.154   2.019   2.412  0.4346 -0.0021 -0.0120
13296TIP3    H161303   5.142   2.062   2.497  1.0702 -0.1372  0.1492
13296TIP3    H261304   5.174   1.928   2.434  0.4607 -0.0688 -0.3130
13297TIP3   OH261305   0.632   3.547  12.164  0.6293  0.2360 -0.4016
13297TIP3    H161306   0.571   3.500  12.222 -0.4806  1.2202 -0.7403
13297TIP3    H261307   0.591   3.541  12.078  2.1384 -0.9730 -1.0485
13298TIP3   OH261308   3.139   4.215  11.676 -0.0070  0.1903 -0.2129
13298TIP3    H161309   3.213   4.164  11.643  1.5382  1.6120  0.9401
13298TIP3    H261310   3.152   4.303  11.639 -0.2472  0.8404  1.1879
13299TIP3   OH261311   0.698   3.666  15.692 -0.0773 -0.6785  0.0829
13299TIP3    H161312   0.706   3.726  15.766  1.4062  0.0460 -0.6360
13299TIP3    H261313   0.760   3.596  15.712  1.2619  0.1501 -1.0333
13300TIP3   OH261314   5.675   4.157   3.116  0.2995  0.2946  0.2850
13300TIP3    H161315   5.653   4.094   3.048 -0.8484  1.1409 -0.1520
13300TIP3    H261316   5.738   4.217   3.074  0.7855 -0.0908  0.4573
13301TIP3   OH261317   2.137   1.133  15.636  0.0138 -0.2358  0.1740
13301TIP3    H161318   2.182   1.217  15.648  0.7722 -0.8406  1.8514
13301TIP3    H261319   2.191   1.085  15.573  1.1861 -0.5386  1.3629
13302TIP3   OH261320   5.903   2.098   3.217  0.0021 -0.3908  0.0659
13302TIP3    H161321   5.832   2.097   3.281 -0.4770  0.9526 -0.4231
13302TIP3    H261322   5.944   2.184   3.228 -0.0584 -0.1650 -1.3991
13303TIP3   OH261323   1.581   4.018   4.757 -0.9071  0.2104 -0.3026
13303TIP3    H161324   1.537   4.001   4.841 -0.4526  0.9349  0.0857
13303TIP3    H261325   1.673   3.999   4.774 -0.9713 -0.6904 -0.9445
13304TIP3   OH261326   2.719   4.479   3.088 -0.1959  0.5473  0.1768
13304TIP3    H161327   2.775   4.435   3.152  2.1913  0.4054 -1.9430
13304TIP3    H261328   2.773   4.485   3.009 -3.2821  0.1603 -2.0310
13305TIP3   OH261329   2.806   1.062   3.558 -0.0346  0.2090 -0.4527
13305TIP3    H161330   2.801   1.069   3.463 -0.5165 -1.4543 -0.5750
13305TIP3    H261331   2.830   0.970   3.574 -0.4527  0.3335  1.0403
13306TIP3   OH261332   1.396   5.894   3.248 -0.1085  0.4843  0.0290
13306TIP3    H161333   1.373   5.976   3.206 -0.4321  1.6555  2.3665
13306TIP3    H261334   1.439   5.921   3.330  0.8570 -1.6654  0.2540
13307TIP3   OH261335   5.585   6.448   2.639  0.5407 -0.4425 -0.1468
13307TIP3    H161336   5.557   6.438   2.547 -1.9440  1.1023  0.3999
13307TIP3    H261337   5.635   6.529   2.640  0.1980 -0.2324 -0.0559
13308TIP3   OH261338   5.930   3.981   2.907  0.0311 -0.1637  0.2387
13308TIP3    H161339   5.927   3.933   2.989  1.4309 -0.5547  0.0617
13308TIP3    H261340   5.977   3.924   2.846 -1.5239 -0.1535 -1.0371
13309TIP3   OH261341   5.278   5.022   3.864  0.2838 -0.1356 -0.5091
13309TIP3    H161342   5.237   4.975   3.936  0.8893 -0.3527 -0.3079
13309TIP3    H261343   5.372   5.017   3.882  0.3206  2.1890  0.1888
13310TIP3   OH261344   1.401   4.980   6.465 -0.2898 -0.3789 -0.1403
13310TIP3    H161345   1.405   4.921   6.540 -1.2811  0.1470  0.3449
13310TIP3    H261346   1.364   4.928   6.395  2.6527 -1.5046 -0.9206
13311TIP3   OH261347   6.177   1.875   2.176 -0.1292 -0.8030  0.6914
13311TIP3    H161348   6.256   1.883   2.122 -0.6962 -0.5083 -0.0955
13311TIP3    H261349   6.115   1.936   2.138 -1.4298 -2.4419  0.0864
13312TIP3   OH261350   1.865   1.133  15.731  0.4018 -0.7155  0.1345
13312TIP3    H161351   1.844   1.133  15.824  0.3174  0.3778  0.1216
13312TIP3    H261352   1.961   1.132  15.729  0.4268  0.3745  0.2558
13313TIP3   OH261353   2.429   6.686   2.040  0.4963 -0.2291  0.3308
13313TIP3    H161354   2.339   6.653   2.031  0.3933  0.6564 -2.1866
13313TIP3    H261355   2.420   6.766   2.091 -0.3420  0.5844 -1.0569
13314TIP3   OH261356   4.815   2.687   2.074  0.2857  0.0333 -0.4088
13314TIP3    H161357   4.900   2.655   2.045  0.2194  1.1242 -1.8985
13314TIP3    H261358   4.756   2.614   2.058  1.3010 -1.5889  2.8737
13315TIP3   OH261359   0.788   1.534   2.481  0.0021 -0.0196  0.3495
13315TIP3    H161360   0.793   1.608   2.421 -0.1257 -1.8766 -2.0047
13315TIP3    H261361   0.727   1.563   2.550  0.6464  2.3607 -0.0313
13316TIP3   OH261362   2.206   5.562  13.665  0.2064 -0.5008 -0.0854
13316TIP3    H161363   2.230   5.540  13.576 -1.2556 -0.7988 -0.4265
13316TIP3    H261364   2.256   5.501  13.720  1.2028 -0.2248 -0.6918
13317TIP3   OH261365   2.100   5.072   0.986  0.4620  0.7647 -0.0187
13317TIP3    H161366   2.086   5.090   1.079  1.4735  0.3137  0.2264
13317TIP3    H261367   2.135   4.983   0.983 -2.3375 -0.3274 -1.0607
13318TIP3   OH261368   4.432   5.679  11.936  0.6036  0.2486  0.0016
13318TIP3    H161369   4.447   5.631  11.855 -0.2130  0.2891 -0.1735
13318TIP3    H261370   4.508   5.738  11.943 -0.0400  1.3004 -1.5028
13319TIP3   OH261371   1.626   3.443  12.688 -0.2767  0.3508 -0.2069
13319TIP3    H161372   1.574   3.448  12.608 -1.4613  3.7995  0.6945
13319TIP3    H261373   1.715   3.427  12.658 -0.9380  0.2071 -2.1346
13320TIP3   OH261374   2.197   1.180   1.172 -0.1378 -0.0395  0.5411
13320TIP3    H161375   2.292   1.165   1.169 -0.1650 -0.0217 -1.7231
13320TIP3    H261376   2.159   1.098   1.141 -0.8843 -0.0793  1.5414
13321TIP3   OH261377   2.570   5.032  15.683  0.4981 -0.1092 -0.1012
13321TIP3    H161378   2.640   4.967  15.687 -1.1015 -1.9431 -0.7492
13321TIP3    H261379   2.578   5.071  15.596  1.4027  0.5040  0.2537
13322TIP3   OH261380   2.367   2.116  16.004  0.4429  0.4329  0.3295
13322TIP3    H161381   2.343   2.209  16.006  1.3393  0.6979 -0.7760
13322TIP3    H261382   2.321   2.082  15.927  0.9779  0.2054  0.1107
13323TIP3   OH261383   2.930   4.487   0.315 -0.1205 -0.1864  0.1560
13323TIP3    H161384   3.001   4.461   0.374  0.5027 -0.7224 -0.8183
13323TIP3    H261385   2.968   4.480   0.228 -1.1867  0.1358 -0.3368
13324TIP3   OH261386   0.667   1.108  13.190 -0.4531  0.2801  0.2982
13324TIP3    H161387   0.758   1.122  13.163 -0.6172  0.2587 -0.2897
13324TIP3    H261388   0.634   1.196  13.211 -0.1669  0.2333  0.9395
13325TIP3   OH261389   2.960   0.099  11.921 -0.0026  0.1626  0.0608
13325TIP3    H161390   2.894   0.061  11.863 -0.4624  1.5624 -0.3751
13325TIP3    H261391   3.011   0.025  11.953 -0.3702 -0.7194 -1.3708
13326TIP3   OH261392   2.443   4.633   3.749 -0.9791 -0.1994  0.0342
13326TIP3    H161393   2.500   4.560   3.728  0.2127  0.2983  1.4832
13326TIP3    H261394   2.501   4.700   3.784 -2.3071  0.7295  0.5177
13327TIP3   OH261395   4.176   6.649  16.608  0.1537 -0.1013 -0.3458
13327TIP3    H161396   4.104   6.690  16.561  1.7175  0.8687 -1.9721
13327TIP3    H261397   4.158   6.555  16.602 -0.0941  0.0362 -2.2397
13328TIP3   OH261398   4.475   0.299   1.141 -0.2160 -0.4463 -0.4033
13328TIP3    H161399   4.536   0.225   1.152 -0.1677 -0.3706 -0.1438
13328TIP3    H261400   4.393   0.268   1.181 -0.2853 -0.4708 -0.5644
13329TIP3   OH261401   3.411   0.647  15.632  0.4510 -0.3473  0.1321
13329TIP3    H161402   3.499   0.623  15.660  1.3601  3.1890  0.5895
13329TIP3    H261403   3.354   0.619  15.703  1.2982 -1.8707  0.2206
13330TIP3   OH261404   2.653   5.206  12.191 -0.1077 -0.2961 -0.3604
13330TIP3    H161405   2.629   5.186  12.101 -0.5000 -1.1671 -0.0642
13330TIP3    H261406   2.716   5.137  12.215 -0.7035 -0.6024  0.3329
13331TIP3   OH261407   6.568   5.093   5.546 -0.6458  0.0855 -0.1450
13331TIP3    H161408   6.643   5.042   5.516 -1.2221 -1.6344  1.2498
13331TIP3    H261409   6.550   5.154   5.474  0.3564 -1.3494 -1.6522
13332TIP3   OH261410   5.818   2.523   0.874 -0.3014 -0.4336  0.1471
13332TIP3    H161411   5.796   2.589   0.940  0.6023 -2.0364  2.0876
13332TIP3    H261412   5.882   2.567   0.818  1.4761 -0.1466  2.3475
13333TIP3   OH261413   6.058   0.023  13.724  0.3019  0.3284 -0.2591
13333TIP3    H161414   5.979   0.019  13.778 -0.2612  0.4615 -1.0747
13333TIP3    H261415   6.105  -0.059  13.744 -0.0351  0.2555  0.2284
13334TIP3   OH261416   0.004   4.227  12.962 -0.2215  0.3190 -0.0480
13334TIP3    H161417   0.092   4.264  12.956  0.4437 -1.3539 -0.9391
13334TIP3    H261418   0.003   4.179  13.045 -0.6608  1.2446  0.4875
13335TIP3   OH261419   6.385   4.061   3.631  0.5193  0.0178 -0.3688
13335TIP3    H161420   6.392   3.966   3.633 -0.6786 -0.0668  1.1042
13335TIP3    H261421   6.292   4.078   3.611  0.5921  0.8576 -0.0271
13336TIP3   OH261422   1.182   1.993  13.778  0.0619  0.0972  0.6303
13336TIP3    H161423   1.178   1.928  13.708 -0.5168 -0.0193  0.7740
13336TIP3    H261424   1.258   1.968  13.830 -0.2603 -0.5542  0.7810
13337TIP3   OH261425   3.400   2.063   0.493 -0.5211  0.2583  0.4627
13337TIP3    H161426   3.347   2.082   0.570 -0.4998 -0.7092  0.7250
13337TIP3    H261427   3.407   1.968   0.491  1.4338  0.3775  0.5805
13338TIP3   OH261428   0.390   6.538   2.476 -0.0384 -0.0540  0.4446
13338TIP3    H161429   0.409   6.470   2.411 -0.9350 -0.0375  0.1561
13338TIP3    H261430   0.446   6.516   2.551  2.3665  0.9554 -0.9798
13339TIP3   OH261431   3.433   0.116   3.535 -0.2808  0.0753  0.0566
13339TIP3    H161432   3.440   0.211   3.526 -0.5202  0.3488  2.4519
13339TIP3    H261433   3.339   0.100   3.546 -0.2070 -0.4062 -0.0243
13340TIP3   OH261434   6.722   5.305  12.582  0.3103  0.2906 -0.1116
13340TIP3    H161435   6.688   5.254  12.508  2.3944 -0.1102 -0.8381
13340TIP3    H261436   6.801   5.258  12.609 -0.2995  0.5622  2.2555
13341TIP3   OH261437   2.575   6.233  15.080  0.1352  0.6601 -0.0766
13341TIP3    H161438   2.537   6.145  15.075  0.4218  0.6167 -2.3866
13341TIP3    H261439   2.628   6.233  15.159  2.1847 -2.1312 -1.3642
13342TIP3   OH261440   5.872   2.007   5.006  0.6594 -0.4757  0.5017
13342TIP3    H161441   5.785   1.996   4.968  0.7523 -2.0085  0.6938
13342TIP3    H261442   5.927   2.034   4.933 -0.4067  2.7744  0.8237
13343TIP3   OH261443   5.655   5.946  12.474 -0.5560 -0.4126  0.2578
13343TIP3    H161444   5.638   5.957  12.568  0.3438  0.9750  0.2639
13343TIP3    H261445   5.577   5.901  12.441 -0.9765 -0.7066  1.6234
13344TIP3   OH261446   0.103   1.693   1.910  0.8557 -0.0051  0.3653
13344TIP3    H161447   0.138   1.748   1.981 -0.5175  1.6058 -0.1571
13344TIP3    H261448   0.169   1.700   1.840  1.4311 -0.2648  0.8830
13345TIP3   OH261449   3.332   3.298  10.832 -0.1561 -0.0138 -0.3837
13345TIP3    H161450   3.378   3.379  10.854 -2.0020  0.7949  0.6024
13345TIP3    H261451   3.262   3.325  10.772 -0.1048 -1.0425 -0.9305
13346TIP3   OH261452   5.963   1.089  13.830 -0.5715 -0.8623 -0.0317
13346TIP3    H161453   5.982   1.095  13.737 -1.6624  0.1586 -0.1984
13346TIP3    H261454   6.048   1.098  13.873 -0.4051  1.7589 -0.8194
13347TIP3   OH261455   1.482   5.630   5.589 -0.1205  0.2169  0.3556
13347TIP3    H161456   1.467   5.611   5.682 -0.7321 -1.0777  0.0050
13347TIP3    H261457   1.543   5.562   5.560 -1.6877 -0.7600 -0.7197
13348TIP3   OH261458   5.147   3.615  12.106 -0.4139 -0.2689 -0.4048
13348TIP3    H161459   5.167   3.683  12.042  0.5112 -1.1253 -1.0275
13348TIP3    H261460   5.226   3.609  12.159 -1.0392  0.1751  0.5980
13349TIP3   OH261461   3.136   0.071   3.548 -0.3638 -0.5627  0.2261
13349TIP3    H161462   3.157  -0.014   3.511 -0.6541 -0.3926 -0.3340
13349TIP3    H261463   3.066   0.105   3.492  1.2637  1.0072 -0.9205
13350TIP3   OH261464   2.105   2.784   5.908  0.3948  0.1312  0.2825
13350TIP3    H161465   2.123   2.843   5.834 -1.0733 -0.7515 -0.8122
13350TIP3    H261466   2.119   2.838   5.985 -0.8536  1.9142 -0.6953
13351TIP3   OH261467   1.177   4.669   4.289  0.4276  0.0465  0.0399
13351TIP3    H161468   1.152   4.658   4.197  0.8733 -0.9129  0.0212
13351TIP3    H261469   1.223   4.752   4.292 -1.0700  0.9155 -0.2835
13352TIP3   OH261470   3.847   0.925  14.369 -0.0307 -0.2598  0.8514
13352TIP3    H161471   3.832   1.008  14.325 -0.2449 -1.2663 -1.0102
13352TIP3    H261472   3.811   0.937  14.457 -0.3373  1.4935  0.4884
13353TIP3   OH261473   3.551   3.367   4.483 -0.3823 -0.0478 -0.3206
13353TIP3    H161474   3.476   3.403   4.530 -0.1184 -0.0470  0.0990
13353TIP3    H261475   3.520   3.284   4.448 -0.8112  0.3066 -0.7877
13354TIP3   OH261476   5.808   6.383   2.129  0.2493 -0.3564 -0.6574
13354TIP3    H161477   5.726   6.371   2.080  0.9141 -0.2440 -1.8136
13354TIP3    H261478   5.847   6.462   2.091  1.1029 -0.6493 -0.4001
13355TIP3   OH261479   6.089   5.254   3.932 -0.4507  0.4766  0.2837
13355TIP3    H161480   6.054   5.328   3.882 -2.7580 -1.2488 -0.7182
13355TIP3    H261481   6.048   5.261   4.017 -1.9494 -0.5820 -0.3456
13356TIP3   OH261482   4.912   6.590  15.220  0.1054  0.3007  0.5471
13356TIP3    H161483   4.845   6.549  15.275 -0.6200 -1.3294 -1.5020
13356TIP3    H261484   4.863   6.646  15.160  0.5402 -1.0406 -1.0835
13357TIP3   OH261485   4.617   5.525  11.709 -0.4627 -0.3859 -0.2335
13357TIP3    H161486   4.546   5.466  11.735  0.2383 -1.5978 -1.0690
13357TIP3    H261487   4.697   5.483  11.740 -0.0688  0.8464  0.4619
13358TIP3   OH261488   3.021   3.622  12.515  0.1127 -0.3124 -0.1665
13358TIP3    H161489   2.968   3.608  12.437  0.3676  0.3437 -0.4640
13358TIP3    H261490   3.103   3.575  12.497  0.3128  0.1431 -0.4504
13359TIP3   OH261491   4.716   5.055  12.805  0.2138  0.0766  0.2879
13359TIP3    H161492   4.811   5.062  12.817 -0.0909  0.9883  2.5461
13359TIP3    H261493   4.698   5.104  12.725  1.8887 -1.9975 -1.4164
13360TIP3   OH261494   3.261   2.488   6.465 -0.2174  0.9042 -0.2230
13360TIP3    H161495   3.198   2.558   6.450  0.3791  1.4189 -0.3686
13360TIP3    H261496   3.325   2.525   6.526 -0.1956  0.3031  0.1287
13361TIP3   OH261497   1.148   0.323  15.494 -0.4101 -0.0921  0.1966
13361TIP3    H161498   1.233   0.332  15.535 -0.0769  1.0027 -0.6970
13361TIP3    H261499   1.168   0.311  15.401 -1.2414  1.1616 -0.1571
13362TIP3   OH261500   1.242   4.318   4.885  0.3618  0.1417 -0.4277
13362TIP3    H161501   1.309   4.348   4.945  0.2377 -3.1612  1.4764
13362TIP3    H261502   1.289   4.264   4.821 -0.0604  0.2955 -0.8715
13363TIP3   OH261503   0.362   1.679   5.267 -0.4114  0.5781  0.3659
13363TIP3    H161504   0.400   1.737   5.334  1.1579  0.6338 -0.5546
13363TIP3    H261505   0.434   1.621   5.242 -1.9278 -1.6690  1.1344
13364TIP3   OH261506   2.234   2.448  16.763  0.2662  0.0445  0.1326
13364TIP3    H161507   2.319   2.407  16.781 -0.2841 -1.2548 -0.1555
13364TIP3    H261508   2.242   2.480  16.673  1.0365  1.4517  0.6875
13365TIP3   OH261509   2.674   6.269  13.895  0.3853 -0.0447  0.2492
13365TIP3    H161510   2.731   6.222  13.834  0.0133  1.1013 -1.0159
13365TIP3    H261511   2.711   6.357  13.900 -0.0168  0.0783  1.1074
13366TIP3   OH261512   1.877   4.733  15.965 -0.5575  0.0059  0.4694
13366TIP3    H161513   1.960   4.764  15.928 -0.6511 -0.4178 -0.0975
13366TIP3    H261514   1.902   4.680  16.041 -0.3253  0.0456  0.4196
13367TIP3   OH261515   4.401   2.228   4.056 -0.2643  0.1952  0.1397
13367TIP3    H161516   4.423   2.151   4.110 -3.6330 -1.0827 -0.2161
13367TIP3    H261517   4.476   2.236   3.996  0.1733 -2.8663  0.1544
13368TIP3   OH261518   0.619   5.506   0.178  0.4560 -0.2444  0.2637
13368TIP3    H161519   0.559   5.580   0.171 -0.4519 -0.9534  0.5491
13368TIP3    H261520   0.563   5.429   0.175  1.5063 -0.9780 -1.4164
13369TIP3   OH261521   0.774   3.814  12.311 -0.0340 -0.2029  0.1803
13369TIP3    H161522   0.809   3.892  12.356  0.7034 -0.4939  0.1241
13369TIP3    H261523   0.796   3.828  12.219  3.0292 -1.9647  0.5587
13370TIP3   OH261524   1.848   2.963  14.779  0.4433 -0.2655  0.1993
13370TIP3    H161525   1.771   2.907  14.779 -0.6493  1.1986  1.3496
13370TIP3    H261526   1.900   2.933  14.704 -1.7189 -0.5939 -1.2120
13371TIP3   OH261527   5.195   1.396  10.530 -0.0751 -0.1360 -0.3137
13371TIP3    H161528   5.269   1.456  10.528 -0.6578  0.5990 -0.2715
13371TIP3    H261529   5.127   1.440  10.480 -0.7518 -0.4420  0.3187
13372TIP3   OH261530   1.095   3.343  13.285  0.6084  0.2097  0.0801
13372TIP3    H161531   1.077   3.297  13.203  0.8964  0.4545 -0.1212
13372TIP3    H261532   1.136   3.277  13.341  0.4139  0.0436  0.0295
13373TIP3   OH261533   5.333   2.086  14.497 -0.0666 -1.2854  0.1419
13373TIP3    H161534   5.254   2.140  14.496  0.7561 -0.0184  1.1663
13373TIP3    H261535   5.386   2.120  14.424  0.1896 -1.0954  0.4137
13374TIP3   OH261536   2.410   4.784  14.609  0.1540  0.0271  0.6744
13374TIP3    H161537   2.325   4.824  14.595  0.3081 -0.0357 -0.5212
13374TIP3    H261538   2.390   4.695  14.639 -0.1919  0.2574  1.1294
13375TIP3   OH261539   0.878   5.268   4.899 -0.2270  0.0550 -0.6085
13375TIP3    H161540   0.816   5.306   4.837 -0.0856  1.0791 -0.1243
13375TIP3    H261541   0.961   5.314   4.883  0.0081 -0.2101 -0.1884
13376TIP3   OH261542   6.659   4.581   5.729  0.2665 -0.3561 -0.4356
13376TIP3    H161543   6.639   4.608   5.819 -1.2648  0.0307 -0.8705
13376TIP3    H261544   6.752   4.600   5.718  0.0754  1.1987  0.5080
13377TIP3   OH261545   0.446   6.070  17.186 -0.7072  0.9272 -0.3045
13377TIP3    H161546   0.404   6.150  17.154  0.0655  1.3344 -0.3145
13377TIP3    H261547   0.416   6.063  17.277 -1.7929  0.5259 -0.6875
13378TIP3   OH261548   4.037   3.835  15.268  0.2104 -0.1616 -0.1237
13378TIP3    H161549   4.102   3.866  15.331  0.2534  0.2012 -0.3458
13378TIP3    H261550   3.953   3.852  15.309  0.2189  0.7722 -0.4828
13379TIP3   OH261551   1.853   4.858  12.204  0.5407  0.2585  0.3116
13379TIP3    H161552   1.909   4.819  12.137 -0.4201 -0.5081 -0.0417
13379TIP3    H261553   1.824   4.784  12.257 -2.1776  0.3371 -1.0173
13380TIP3   OH261554   1.324   4.758  14.320  0.5231  0.3903  0.0014
13380TIP3    H161555   1.286   4.772  14.407 -2.2362 -1.1655 -0.8744
13380TIP3    H261556   1.349   4.666  14.319 -0.5893  0.0795 -1.2335
13381TIP3   OH261557   0.232   3.731  14.833  0.2946 -0.0219 -0.2308
13381TIP3    H161558   0.275   3.814  14.816 -0.7711  0.0597 -2.7216
13381TIP3    H261559   0.252   3.677  14.757 -1.8517 -0.8478 -0.2489
13382TIP3   OH261560   3.070   3.679  11.942  0.1101 -0.1502 -0.2321
13382TIP3    H161561   3.154   3.649  11.976  0.2778 -0.1855 -0.6716
13382TIP3    H261562   3.005   3.634  11.996  0.3748  1.1566  1.2161
13383TIP3   OH261563   4.571   0.580   5.372 -0.1727 -0.1920 -0.1309
13383TIP3    H161564   4.594   0.622   5.455  1.5763 -1.7904  0.2228
13383TIP3    H261565   4.613   0.635   5.305  1.2420 -0.7872  0.2614
13384TIP3   OH261566   4.732   6.764  12.573  0.1350  0.7247  0.7214
13384TIP3    H161567   4.732   6.672  12.549 -0.7445  1.0017 -0.4226
13384TIP3    H261568   4.757   6.810  12.493  0.2954  1.4882  1.2021
13385TIP3   OH261569   1.208   0.411  11.319 -0.2035 -1.0963 -0.0135
13385TIP3    H161570   1.226   0.439  11.409  1.0457 -2.3738  0.1477
13385TIP3    H261571   1.124   0.451  11.298  0.7554  1.3984  0.7784
13386TIP3   OH261572   4.415   6.136  14.826  0.8012 -0.5249 -0.1418
13386TIP3    H161573   4.364   6.073  14.877  0.4526  1.1536  1.6664
13386TIP3    H261574   4.349   6.198  14.794  1.1113 -1.1769 -2.0814
13387TIP3   OH261575   5.860   5.325  14.285 -0.7988  0.2582 -0.7862
13387TIP3    H161576   5.766   5.339  14.302 -0.4422  1.1302  0.5746
13387TIP3    H261577   5.893   5.410  14.258 -0.2617  0.1115 -0.5945
13388TIP3   OH261578   3.230   3.932  15.391 -0.2159 -0.0755  0.2834
13388TIP3    H161579   3.289   3.983  15.447 -1.6122  2.1018 -0.1817
13388TIP3    H261580   3.157   3.909  15.448  0.8170 -2.3965  0.7353
13389TIP3   OH261581   2.192   3.024  11.578 -0.2200 -0.1018 -0.3873
13389TIP3    H161582   2.156   2.966  11.511 -0.4007 -0.6786  0.2160
13389TIP3    H261583   2.133   3.015  11.652  0.9032 -0.7018  0.4436
13390TIP3   OH261584   1.731   3.191  16.028  0.5427 -0.2594  0.0906
13390TIP3    H161585   1.718   3.189  16.123 -0.4965 -1.6383 -0.0671
13390TIP3    H261586   1.658   3.244  15.995 -0.2715 -1.5054 -0.1181
13391TIP3   OH261587   0.749   3.226   1.688  0.2360  0.5019  0.1370
13391TIP3    H161588   0.723   3.239   1.780 -2.1828 -0.8379 -0.3202
13391TIP3    H261589   0.827   3.172   1.693 -0.4008 -0.3383  1.3930
13392TIP3   OH261590   3.322   4.546   5.545  0.4447 -0.4278  0.0628
13392TIP3    H161591   3.239   4.563   5.500  0.1825 -2.4545 -0.2558
13392TIP3    H261592   3.323   4.451   5.560  2.6968 -0.4289  0.0886
13393TIP3   OH261593   6.691   4.406  15.465 -0.2502  0.4430  0.6698
13393TIP3    H161594   6.683   4.386  15.372  0.7812  1.5099  0.3302
13393TIP3    H261595   6.644   4.336  15.509 -0.3267 -0.3470 -0.6350
13394TIP3   OH261596   0.165   4.233  13.547 -0.6831  0.5444  0.0623
13394TIP3    H161597   0.125   4.261  13.629  0.8691  0.2372  0.9526
13394TIP3    H261598   0.235   4.173  13.574 -1.2983 -0.9396 -1.5872
13395TIP3   OH261599   2.404   6.498  17.063  0.2224  0.2238  0.3710
13395TIP3    H161600   2.337   6.535  17.120  1.5337  1.2052  1.3112
13395TIP3    H261601   2.358   6.430  17.013 -1.0002 -0.5200  2.4323
13396TIP3   OH261602   1.388   0.130   0.620  0.5953  0.1520  0.1628
13396TIP3    H161603   1.425   0.193   0.681 -0.1550  1.3131 -0.5682
13396TIP3    H261604   1.464   0.084   0.583  1.2793  2.0595 -0.8438
13397TIP3   OH261605   5.889   6.248  16.287 -0.1633 -0.5248 -0.0358
13397TIP3    H161606   5.876   6.208  16.372  0.0996 -0.0846  0.2116
13397TIP3    H261607   5.947   6.188  16.240 -1.9901 -1.8455 -0.6864
13398TIP3   OH261608   2.102   3.308  14.171  0.3013 -0.4400  0.0483
13398TIP3    H161609   2.010   3.332  14.179  1.0827  2.6368  0.5836
13398TIP3    H261610   2.123   3.264  14.253  0.0886  1.7759  1.3328
13399TIP3   OH261611   1.119   4.023   0.263  0.2024  0.2342  0.0378
13399TIP3    H161612   1.163   4.011   0.179 -1.1826  0.9274 -0.7886
13399TIP3    H261613   1.170   4.091   0.308  0.9936 -0.2052 -0.1875
13400TIP3   OH261614   0.545   2.078   2.634  0.2356  0.4266  0.0993
13400TIP3    H161615   0.599   2.116   2.703  0.2094 -0.1952  0.4588
13400TIP3    H261616   0.469   2.041   2.680  1.6846 -2.6940  0.0817
13401TIP3   OH261617   1.866   1.764   6.130 -0.0234 -0.0664 -0.2528
13401TIP3    H161618   1.821   1.800   6.054  1.0455 -0.2966 -1.0158
13401TIP3    H261619   1.916   1.838   6.167  1.2639 -0.4681 -1.1425
13402TIP3   OH261620   4.366   5.481  13.642  0.1558 -0.2489  0.0735
13402TIP3    H161621   4.346   5.387  13.649  1.6512 -0.5102  1.0752
13402TIP3    H261622   4.281   5.522  13.625 -0.8480 -1.5717  1.7345
13403TIP3   OH261623   6.047   5.218  15.160 -0.0710  0.1561  0.8279
13403TIP3    H161624   6.089   5.132  15.165 -0.4536 -0.0646  0.1896
13403TIP3    H261625   5.964   5.207  15.205 -0.8337 -0.2370 -0.6538
13404TIP3   OH261626   4.059   2.911  11.788  0.1449  1.2775  0.0118
13404TIP3    H161627   4.082   2.860  11.866 -1.9393 -0.7035 -0.6263
13404TIP3    H261628   3.976   2.874  11.759  0.4603  2.5824 -2.6669
13405TIP3   OH261629   5.163   5.301   3.883 -0.1236 -0.3905 -0.1333
13405TIP3    H161630   5.193   5.210   3.878  0.0909 -0.3542  0.4282
13405TIP3    H261631   5.243   5.353   3.873 -0.5864 -0.1872 -3.3959
13406TIP3   OH261632   4.173   1.817   4.281 -0.0609  0.0967  0.5804
13406TIP3    H161633   4.116   1.862   4.343  0.2279 -0.2550  1.1077
13406TIP3    H261634   4.187   1.731   4.321 -1.6328 -0.9401 -1.0016
13407TIP3   OH261635   6.369   3.030  16.228 -0.0002  0.7997 -0.1148
13407TIP3    H161636   6.338   3.094  16.293  1.2660 -0.3580  1.6923
13407TIP3    H261637   6.464   3.024  16.244  0.3095  0.4039 -2.0129
13408TIP3   OH261638   4.974   1.838  14.825 -0.5474  0.3371  0.4534
13408TIP3    H161639   4.914   1.793  14.765  0.3711  0.8190 -0.8555
13408TIP3    H261640   4.934   1.923  14.839 -1.5640 -0.3479  1.7945
13409TIP3   OH261641   5.590   1.243   0.249 -0.6848  0.2377  0.0716
13409TIP3    H161642   5.582   1.336   0.227 -1.9450  0.1250  0.0124
13409TIP3    H261643   5.549   1.235   0.335 -1.8103 -0.4977 -0.5255
13410TIP3   OH261644   4.848   4.060  16.791  0.3339 -0.3021 -0.2188
13410TIP3    H161645   4.863   4.109  16.872 -0.4027  2.6087 -1.7955
13410TIP3    H261646   4.763   4.018  16.803 -0.3936  1.2105  0.0059
13411TIP3   OH261647   4.460   3.941   0.182  1.0140  0.7188  0.5427
13411TIP3    H161648   4.488   4.032   0.192  1.5805  0.7307 -1.0708
13411TIP3    H261649   4.375   3.947   0.137 -0.2940  0.5549  2.8965
13412TIP3   OH261650   3.145   4.442  12.892  0.4556 -0.2694 -0.0514
13412TIP3    H161651   3.159   4.410  12.803  0.9272 -0.6131  0.1426
13412TIP3    H261652   3.158   4.537  12.885  1.4416 -0.4019 -0.1727
13413TIP3   OH261653   2.311   0.832  15.484 -0.2159  0.1854  0.3812
13413TIP3    H161654   2.357   0.915  15.476 -0.2834  0.1448 -0.4058
13413TIP3    H261655   2.341   0.780  15.410  0.7685 -0.9543  1.5397
13414TIP3   OH261656   2.297   5.960   2.766 -0.1709 -0.2848  0.0532
13414TIP3    H161657   2.297   6.044   2.721 -0.1631  0.7551  1.9859
13414TIP3    H261658   2.275   5.980   2.857 -1.4395 -2.5052  0.2944
13415TIP3   OH261659   3.352   1.261   2.773  0.2856 -0.3845 -0.1245
13415TIP3    H161660   3.382   1.345   2.738  0.0478  0.2684  1.2061
13415TIP3    H261661   3.395   1.196   2.718 -0.4351  0.6132 -1.9121
13416TIP3   OH261662   1.259   1.713  13.271  0.2056 -0.2342 -0.1609
13416TIP3    H161663   1.344   1.684  13.304 -0.2983 -0.7989  0.6451
13416TIP3    H261664   1.276   1.802  13.238  1.1718 -0.4614 -0.3046
13417TIP3   OH261665   1.292   4.799  15.430 -1.0834 -0.7971  0.2045
13417TIP3    H161666   1.366   4.854  15.458 -2.0937  0.0536  1.2592
13417TIP3    H261667   1.302   4.793  15.335 -0.2762  0.2239  0.2112
13418TIP3   OH261668   1.812   1.785   0.965 -0.0807  0.8261  0.3530
13418TIP3    H161669   1.890   1.755   1.012 -0.2941  2.5357  1.8846
13418TIP3    H261670   1.753   1.710   0.965  1.8416 -0.7258 -1.4919
13419TIP3   OH261671   0.667   3.753   5.272 -0.1143 -0.5059  0.2326
13419TIP3    H161672   0.668   3.677   5.213  2.1281 -0.3022 -0.0222
13419TIP3    H261673   0.684   3.827   5.214 -1.5757  0.1299  0.6010
13420TIP3   OH261674   1.256   5.163   0.541  0.0407  0.4170 -0.5651
13420TIP3    H161675   1.278   5.192   0.453 -0.0409  0.3346 -0.6127
13420TIP3    H261676   1.330   5.191   0.595 -0.1060  0.8442 -0.5861
13421TIP3   OH261677   6.655   5.644   4.700 -0.5214  0.1600  0.5614
13421TIP3    H161678   6.710   5.697   4.758 -0.4871 -0.7500  1.3898
13421TIP3    H261679   6.641   5.562   4.749  0.3050 -1.0137 -1.1317
13422TIP3   OH261680   0.178   2.474  13.472  0.0990 -0.4837  0.3195
13422TIP3    H161681   0.171   2.379  13.462  0.0705 -0.8713  3.3705
13422TIP3    H261682   0.105   2.509  13.420 -1.6134 -2.3399  1.3766
13423TIP3   OH261683   6.468   1.197  12.100  0.2373 -0.0111  0.2858
13423TIP3    H161684   6.468   1.235  12.012 -2.0952 -0.7000 -0.0430
13423TIP3    H261685   6.406   1.124  12.095 -1.5280  1.2132  3.0186
13424TIP3   OH261686   5.349   2.549  11.388 -0.3094 -0.0778  0.0199
13424TIP3    H161687   5.325   2.461  11.416 -0.1177 -0.4530 -0.9947
13424TIP3    H261688   5.430   2.537  11.339  0.1326  0.7617  0.5291
13425TIP3   OH261689   1.082   3.718  14.924  0.2413 -0.3678 -0.2535
13425TIP3    H161690   0.998   3.673  14.928  1.6020 -3.0791 -0.7325
13425TIP3    H261691   1.112   3.720  15.015 -0.0776  0.1021 -0.1565
13426TIP3   OH261692   6.699   3.903   1.663 -0.2329  0.1828  0.5388
13426TIP3    H161693   6.758   3.910   1.587 -0.6856 -1.7933 -0.0092
13426TIP3    H261694   6.644   3.828   1.644  0.1123 -0.7832  3.1663
13427TIP3   OH261695   2.388   1.365  15.204  0.1463 -0.5509  0.8374
13427TIP3    H161696   2.453   1.355  15.135 -0.6107 -2.1201  0.3129
13427TIP3    H261697   2.344   1.448  15.186  1.1271 -0.1217  0.4434
13428TIP3   OH261698   5.754   0.512   4.315 -0.1033  0.1679 -0.1540
13428TIP3    H161699   5.840   0.497   4.276  0.5676  0.3021  1.2615
13428TIP3    H261700   5.729   0.599   4.285 -0.6079 -0.6144 -2.1121
13429TIP3   OH261701   0.705   2.710  12.343 -0.3052  0.6515  0.3101
13429TIP3    H161702   0.643   2.777  12.374 -0.4566  1.0164 -0.7595
13429TIP3    H261703   0.786   2.759  12.327 -0.3412  0.5324 -0.2299
13430TIP3   OH261704   3.996   6.283   4.596  0.5307  0.5282  0.0515
13430TIP3    H161705   3.998   6.339   4.519  1.9109  0.0032 -0.3049
13430TIP3    H261706   4.079   6.299   4.641  0.2708 -0.0799  0.7703
13431TIP3   OH261707   3.907   3.426  11.425 -0.4044 -0.4735  0.3591
13431TIP3    H161708   3.996   3.394  11.442 -0.0662  1.3750  2.3243
13431TIP3    H261709   3.874   3.451  11.512 -2.0824  0.7773 -0.6172
13432TIP3   OH261710   4.702   1.158   1.651 -0.2018  0.5455 -0.3417
13432TIP3    H161711   4.722   1.095   1.583  1.0430 -0.0766  0.5786
13432TIP3    H261712   4.607   1.164   1.652 -0.2599 -0.2326 -1.4037
13433TIP3   OH261713   5.142   6.276  12.620  0.4098  0.1383  0.1278
13433TIP3    H161714   5.099   6.232  12.693  1.5949  1.7671  1.8233
13433TIP3    H261715   5.194   6.207  12.579 -0.3610 -0.8137  0.7149
13434TIP3   OH261716   0.285   4.936   4.952  0.0117  0.2844  0.5069
13434TIP3    H161717   0.259   4.901   4.867  0.7304  0.5463  0.1809
13434TIP3    H261718   0.266   4.865   5.014 -0.3232  0.0214  0.1009
13435TIP3   OH261719   2.956   0.018   2.537 -0.1545  0.8468 -0.7533
13435TIP3    H161720   2.998   0.014   2.623  1.7205 -0.2804 -1.6802
13435TIP3    H261721   2.948   0.111   2.519  0.6001  1.0884  0.0960
13436TIP3   OH261722   0.393   4.398   0.534 -0.0971 -0.3040 -0.0515
13436TIP3    H161723   0.432   4.329   0.481 -1.2177  0.9127 -2.5176
13436TIP3    H261724   0.464   4.461   0.548 -0.0265 -0.2125 -0.8292
13437TIP3   OH261725   5.099   3.387  14.833 -0.1179 -0.3160 -0.3627
13437TIP3    H161726   5.035   3.319  14.855  0.8499 -1.1313  0.0008
13437TIP3    H261727   5.082   3.408  14.741 -0.7078 -0.7412 -0.3511
13438TIP3   OH261728   5.797   4.922  17.096  0.7136 -0.3029 -0.3185
13438TIP3    H161729   5.873   4.978  17.105  0.2917  0.1758  0.2940
13438TIP3    H261730   5.745   4.962  17.026  0.8028 -0.3852 -0.4347
13439TIP3   OH261731   3.069   1.523   1.822  0.0321  0.1297  0.5109
13439TIP3    H161732   3.082   1.489   1.733  2.3159 -0.3321  1.0017
13439TIP3    H261733   3.031   1.449   1.870 -1.9782  0.6302 -0.2429
13440TIP3   OH261734   0.062   0.970   1.390  0.2314 -0.2900 -0.0821
13440TIP3    H161735   0.085   0.919   1.312  0.1584 -1.0527  0.3849
13440TIP3    H261736   0.145   0.983   1.436  0.2750  0.1620 -0.2866
13441TIP3   OH261737   3.705   5.366  11.448 -0.1253 -0.1777  0.1122
13441TIP3    H161738   3.735   5.368  11.538  1.2168 -2.6974 -0.2520
13441TIP3    H261739   3.761   5.429  11.402 -0.2230  0.4517  0.8593
13442TIP3   OH261740   4.770   2.580  14.466 -0.2225  0.0341 -0.6086
13442TIP3    H161741   4.793   2.612  14.553  0.4156  0.2237 -0.8419
13442TIP3    H261742   4.852   2.583  14.417 -0.1478 -1.9453 -0.6504
13443TIP3   OH261743   1.998   3.508  12.245  0.1867  0.0036 -0.3725
13443TIP3    H161744   2.043   3.515  12.161  0.1753 -0.9359 -0.4630
13443TIP3    H261745   1.918   3.460  12.225 -0.3379  0.7307 -0.0175
13444TIP3   OH261746   1.244   4.787  15.695 -0.0457 -0.1319  0.8295
13444TIP3    H161747   1.249   4.820  15.605  1.0050 -4.2909 -0.7707
13444TIP3    H261748   1.326   4.814  15.735 -0.1381  1.0162  0.2721
13445TIP3   OH261749   2.120   6.715   1.797 -0.3988 -0.7878  0.0868
13445TIP3    H161750   2.111   6.797   1.845  2.1602  0.5271 -1.5920
13445TIP3    H261751   2.072   6.729   1.716  0.8221 -0.6038 -0.6090
13446TIP3   OH261752   4.148   5.123  16.337  0.3218  0.1384 -0.6657
13446TIP3    H161753   4.079   5.092  16.277 -1.6683  1.6262  0.7857
13446TIP3    H261754   4.165   5.048  16.394 -1.3377  0.2806  0.0482
13447TIP3   OH261755   2.382   5.406   2.039 -0.1062 -0.2048 -0.0549
13447TIP3    H161756   2.357   5.380   1.951 -1.0321 -1.1225  0.4719
13447TIP3    H261757   2.353   5.497   2.046 -1.4376 -0.6073 -0.1731
13448TIP3   OH261758   5.491   0.591  11.107  0.0985  0.0571  0.3942
13448TIP3    H161759   5.470   0.683  11.122 -0.3176 -0.1974  1.4212
13448TIP3    H261760   5.427   0.562  11.043 -1.1298 -0.0667  1.6598
13449TIP3   OH261761   0.323   3.962   2.542 -0.4891 -0.4374  0.4057
13449TIP3    H161762   0.327   3.939   2.449 -1.2387 -1.4264  0.6126
13449TIP3    H261763   0.321   4.058   2.542 -0.4388 -0.4262 -0.6012
13450TIP3   OH261764   2.811   4.664   5.458  0.1745  0.0910 -0.5968
13450TIP3    H161765   2.754   4.647   5.533  0.9015 -1.3766 -0.3605
13450TIP3    H261766   2.852   4.748   5.478  0.7367 -0.5139  0.9102
13451TIP3   OH261767   3.393   5.771  16.489  0.0918 -0.1486  0.0634
13451TIP3    H161768   3.314   5.722  16.512 -0.6553  0.6563 -0.6824
13451TIP3    H261769   3.430   5.723  16.415 -0.0443 -0.1949  0.0225
13452TIP3   OH261770   5.855   2.598   2.362  0.1646 -0.4697 -0.0934
13452TIP3    H161771   5.779   2.589   2.304  0.5974  0.8477 -0.8820
13452TIP3    H261772   5.836   2.540   2.436 -3.0184  1.9945  1.1644
13453TIP3   OH261773   3.273   6.483   6.399  0.2095  0.4942 -0.0935
13453TIP3    H161774   3.202   6.545   6.379  0.0175  0.6791  1.1146
13453TIP3    H261775   3.352   6.536   6.404  0.1636  0.5393  0.1896
13454TIP3   OH261776   6.216   2.469  13.652  0.3358  0.2083  0.1207
13454TIP3    H161777   6.131   2.507  13.630 -0.3362 -1.0191  0.5265
13454TIP3    H261778   6.255   2.447  13.567 -0.1912 -0.1547 -0.0303
13455TIP3   OH261779   4.176   5.091   6.057 -0.3249 -0.0310 -0.2667
13455TIP3    H161780   4.108   5.030   6.085  0.7626  0.0527  2.7551
13455TIP3    H261781   4.233   5.038   6.001 -2.4730 -0.2509 -2.3318
13456TIP3   OH261782   1.090   3.297  16.351 -0.0511  0.2920 -0.0363
13456TIP3    H161783   1.114   3.326  16.263  0.5980 -1.6212 -0.5155
13456TIP3    H261784   1.167   3.315  16.405  0.4657 -0.7797 -0.4007
13457TIP3   OH261785   6.181   0.810  15.336 -0.0566 -0.6639  0.2848
13457TIP3    H161786   6.137   0.889  15.366  0.9980  0.1076 -0.1665
13457TIP3    H261787   6.272   0.837  15.321  0.0653 -1.6734 -0.9336
13458TIP3   OH261788   0.713   3.057  11.708  0.2655  0.2244 -0.1338
13458TIP3    H161789   0.672   2.973  11.728  0.2198  0.1865 -0.3856
13458TIP3    H261790   0.678   3.117  11.773  0.6427 -0.0515  0.3297
13459TIP3   OH261791   6.197   3.130  13.229 -0.3561 -0.0610 -0.4772
13459TIP3    H161792   6.280   3.171  13.204 -1.6104  2.1611 -1.0694
13459TIP3    H261793   6.139   3.144  13.155 -1.3540 -1.4324  0.0148
13460TIP3   OH261794   5.989   3.296  13.382  0.1708 -0.0024  0.5036
13460TIP3    H161795   5.991   3.340  13.467  0.6659  1.3189 -0.1838
13460TIP3    H261796   6.081   3.289  13.357  0.0142 -0.2202 -0.0057
13461TIP3   OH261797   1.413   3.882   5.275 -0.3467  0.0887 -0.1290
13461TIP3    H161798   1.436   3.789   5.273  0.7005  0.3552 -0.6887
13461TIP3    H261799   1.318   3.884   5.270 -0.4889 -1.0274  1.7198
13462TIP3   OH261800   3.810   0.515   3.713 -0.1196  0.5182 -0.0310
13462TIP3    H161801   3.881   0.571   3.744  1.3234 -0.2669 -1.8142
13462TIP3    H261802   3.853   0.433   3.688 -1.4810  0.3882 -2.0614
13463TIP3   OH261803   5.515   2.090   1.910  0.4630 -0.0552  0.2138
13463TIP3    H161804   5.520   1.995   1.925 -1.6859 -0.2457 -0.1424
13463TIP3    H261805   5.475   2.124   1.990  0.2991  0.4461 -0.0873
13464TIP3   OH261806   1.954   4.382   4.561 -0.2353 -0.5864 -0.2702
13464TIP3    H161807   1.913   4.346   4.639  0.6221  0.1565  0.5264
13464TIP3    H261808   2.035   4.332   4.550 -0.7618 -1.2615 -1.1732
13465TIP3   OH261809   1.741   2.768  17.018 -0.6921  0.2826  0.1282
13465TIP3    H161810   1.800   2.791  16.945 -0.5358  0.6450  0.3696
13465TIP3    H261811   1.798   2.765  17.095 -0.8066 -0.4016  0.1871
13466TIP3   OH261812   6.384   0.407  13.538  0.1036  0.0832  0.4379
13466TIP3    H161813   6.305   0.354  13.528 -0.7360  0.8964  2.4469
13466TIP3    H261814   6.432   0.394  13.457 -1.6730 -1.1261 -0.4558
13467TIP3   OH261815   5.071   2.698   0.274 -0.0424 -0.5867 -0.2463
13467TIP3    H161816   4.995   2.756   0.267 -0.0576 -0.5182  0.4469
13467TIP3    H261817   5.060   2.635   0.203  0.1713  0.4928 -1.2446
13468TIP3   OH261818   2.371   4.842  15.226  0.7402  0.4188 -0.5000
13468TIP3    H161819   2.452   4.875  15.187  2.2421 -0.7405  1.5302
13468TIP3    H261820   2.318   4.920  15.241  2.1205  1.3675 -0.4658
13469TIP3   OH261821   3.779   5.262   2.502  0.0503  0.0303 -0.1128
13469TIP3    H161822   3.846   5.195   2.492 -0.1880  0.0419 -2.0393
13469TIP3    H261823   3.817   5.339   2.459 -0.2559  0.7089  0.8310
13470TIP3   OH261824   1.550   1.357  17.008  0.1524 -0.4114  0.2968
13470TIP3    H161825   1.632   1.313  16.985 -0.4135 -1.5269  0.3253
13470TIP3    H261826   1.522   1.313  17.088 -0.6922 -0.3612  0.0370
13471TIP3   OH261827   1.318   4.503   5.625  0.5483 -1.0190  0.1992
13471TIP3    H161828   1.413   4.500   5.624  0.6174  0.6807 -0.7517
13471TIP3    H261829   1.293   4.491   5.533 -0.0701  0.5146  0.1575
13472TIP3   OH261830   2.770   2.640  14.467  0.2047  0.2200  0.4199
13472TIP3    H161831   2.738   2.636  14.557 -0.9288  0.1421  0.0177
13472TIP3    H261832   2.691   2.646  14.413  0.8840  0.6882 -0.5502
13473TIP3   OH261833   4.140   3.957  12.080  0.2900  0.2520  0.0733
13473TIP3    H161834   4.062   3.939  12.133  0.5941 -0.4121  0.2944
13473TIP3    H261835   4.152   3.879  12.027  0.2525  0.7350 -0.6559
13474TIP3   OH261836   3.416   5.888  14.113  0.6526 -0.1140 -0.1503
13474TIP3    H161837   3.398   5.883  14.206  1.3915 -0.2484 -0.0086
13474TIP3    H261838   3.388   5.803  14.078 -0.6833  0.3543 -0.2522
13475TIP3   OH261839   4.264   1.707  12.624 -0.1485 -0.6824 -0.3785
13475TIP3    H161840   4.224   1.790  12.650  2.5079  0.8045 -0.8351
13475TIP3    H261841   4.209   1.676  12.552 -0.1306  1.6762 -1.4807
13476TIP3   OH261842   1.294   6.357   5.039 -0.0779 -0.0693  0.1000
13476TIP3    H161843   1.307   6.292   5.108  1.5524  0.6863  0.5250
13476TIP3    H261844   1.301   6.441   5.084  0.4265  0.4245 -0.9066
13477TIP3   OH261845   1.179   3.825  14.707  0.1647  0.4985  0.5827
13477TIP3    H161846   1.139   3.787  14.785  1.8099 -2.0216  0.2603
13477TIP3    H261847   1.264   3.859  14.737 -0.2285  1.7301  0.3509
13478TIP3   OH261848   0.202   4.756   2.294 -0.5251  0.1647 -0.2788
13478TIP3    H161849   0.155   4.827   2.338  0.4760  0.8833 -0.3363
13478TIP3    H261850   0.268   4.801   2.240  0.2850 -0.8142 -0.1160
13479TIP3   OH261851   1.194   1.682   0.811  0.2375 -0.1273 -0.3197
13479TIP3    H161852   1.235   1.641   0.735  2.4703 -1.4851  1.5571
13479TIP3    H261853   1.251   1.755   0.833 -1.2339  1.2077 -0.8444
13480TIP3   OH261854   2.108   0.227   3.531 -0.0666 -0.0345  0.4925
13480TIP3    H161855   2.129   0.320   3.529  1.0667 -0.2808 -2.3019
13480TIP3    H261856   2.056   0.213   3.451  1.5685 -2.1451 -0.2569
13481TIP3   OH261857   0.018   0.662   1.675 -0.1005 -0.3275  0.0195
13481TIP3    H161858   0.053   0.648   1.763  0.5583 -0.7944 -0.3137
13481TIP3    H261859   0.031   0.755   1.659 -0.1439 -0.2570  0.3790
13482TIP3   OH261860   6.097   1.200   2.532  0.4737  0.6416  0.2441
13482TIP3    H161861   6.095   1.290   2.501  1.4611  0.4202 -0.5062
13482TIP3    H261862   6.174   1.196   2.589  1.2608 -0.0780 -0.8621
13483TIP3   OH261863   6.215   1.615   5.311 -0.2411 -0.4976  0.2818
13483TIP3    H161864   6.233   1.657   5.226  0.4169  0.6774  0.9923
13483TIP3    H261865   6.196   1.687   5.370 -0.6956 -1.3194  1.1486
13484TIP3   OH261866   0.261   0.435  12.413  0.1593 -0.4478  0.0593
13484TIP3    H161867   0.278   0.484  12.493 -0.0102 -0.5460  0.1567
13484TIP3    H261868   0.341   0.443  12.362  0.3760 -0.6323  0.3677
13485TIP3   OH261869   1.716   6.562   0.990  0.1048  0.1140  0.2570
13485TIP3    H161870   1.642   6.580   1.048  1.3168  0.1192  1.8674
13485TIP3    H261871   1.732   6.468   1.001 -0.4895 -0.1489 -1.0969
13486TIP3   OH261872   3.327   4.109  15.744  0.6104 -0.4070 -0.3200
13486TIP3    H161873   3.342   4.067  15.829 -1.8191  1.6837  1.2092
13486TIP3    H261874   3.377   4.056  15.682  2.0114 -2.2921  2.3275
13487TIP3   OH261875   1.050   4.265   6.046  0.4440 -0.0927 -0.1991
13487TIP3    H161876   1.100   4.346   6.051  0.3327  0.0390 -1.1606
13487TIP3    H261877   1.019   4.251   6.136  3.5252 -1.0297  0.7941
13488TIP3   OH261878   0.291   5.624  12.110  0.7537  0.3181  0.3571
13488TIP3    H161879   0.312   5.717  12.104  1.5799  0.0427 -1.1757
13488TIP3    H261880   0.358   5.588  12.168  1.2139  0.4429 -0.0983
13489TIP3   OH261881   3.724   1.308   1.217  0.2667 -0.0423 -0.5098
13489TIP3    H161882   3.636   1.278   1.239  0.9911 -1.7242  0.1524
13489TIP3    H261883   3.749   1.366   1.289  0.1709 -0.5424 -0.0696
13490TIP3   OH261884   5.139   5.313  13.336 -0.2548  0.3698 -0.2328
13490TIP3    H161885   5.224   5.344  13.304 -0.2513 -1.8625 -2.6182
13490TIP3    H261886   5.078   5.336  13.266 -0.6347 -2.6896 -1.0063
13491TIP3   OH261887   0.606   5.906   5.868  0.5055  0.1340  0.2073
13491TIP3    H161888   0.623   6.000   5.871  2.0376 -0.1187 -0.2747
13491TIP3    H261889   0.630   5.875   5.955  1.3098 -0.0216 -0.0675
13492TIP3   OH261890   6.362   4.854   4.271 -0.5314 -0.7660  0.2483
13492TIP3    H161891   6.391   4.767   4.297 -0.0383 -0.3664  1.0399
13492TIP3    H261892   6.441   4.908   4.273 -1.3608  0.4037  2.7250
13493TIP3   OH261893   1.834   3.552  16.076  0.2836  0.3285  0.1113
13493TIP3    H161894   1.783   3.477  16.107  0.1406  1.1910  2.0655
13493TIP3    H261895   1.778   3.593  16.009 -0.3780 -0.3253  0.2555
13494TIP3   OH261896   1.216   6.587  17.048 -0.7032 -0.1049 -0.1840
13494TIP3    H161897   1.189   6.577  16.957 -0.4881 -2.1763 -0.0473
13494TIP3    H261898   1.135   6.580  17.098 -0.8921  1.5789 -0.2358
13495TIP3   OH261899   0.892   4.057  17.134 -0.0168  0.5250  0.4510
13495TIP3    H161900   0.837   4.000  17.188 -0.0346  1.4707  1.4564
13495TIP3    H261901   0.890   4.017  17.047  0.6884 -1.4881  1.3382
13496TIP3   OH261902   6.512   3.295  11.702 -0.0384 -0.1106  0.0346
13496TIP3    H161903   6.477   3.219  11.656  0.0276 -0.2078  0.1446
13496TIP3    H261904   6.451   3.310  11.774 -0.9138  0.8988 -0.9109
13497TIP3   OH261905   5.185   6.471  13.217  0.6517 -0.0047  0.0563
13497TIP3    H161906   5.230   6.506  13.140  0.5121  0.9216  0.3941
13497TIP3    H261907   5.138   6.546  13.254 -1.9255 -1.1599 -0.8144
13498TIP3   OH261908   6.720   0.593  12.603  0.3957  0.3763 -0.2341
13498TIP3    H161909   6.759   0.544  12.531 -2.1325  0.0456 -1.4388
13498TIP3    H261910   6.680   0.525  12.658 -0.6600  0.8706 -0.3839
13499TIP3   OH261911   0.220   5.035   1.116  0.1234 -0.2771 -0.2033
13499TIP3    H161912   0.162   4.984   1.173 -0.3731  0.7918  0.2469
13499TIP3    H261913   0.182   5.123   1.115  0.4935 -0.1206 -1.6693
13500TIP3   OH261914   3.260   3.369  14.826  0.4985  0.2928 -0.0817
13500TIP3    H161915   3.290   3.322  14.904  1.0700 -0.4170 -0.7299
13500TIP3    H261916   3.340   3.400  14.784  0.3031 -0.9739 -1.4252
13501TIP3   OH261917   1.124   3.505   4.479 -0.0639 -0.4889 -0.2730
13501TIP3    H161918   1.071   3.510   4.399 -0.6692  1.5420  0.2158
13501TIP3    H261919   1.187   3.576   4.470 -0.6274  0.2431  1.3840
13502TIP3   OH261920   3.889   1.664  14.299  0.0184  0.4281  0.3466
13502TIP3    H161921   3.948   1.693  14.229 -0.4411  0.7784  0.0992
13502TIP3    H261922   3.935   1.685  14.380  0.7294 -0.3558  0.1468
13503TIP3   OH261923   0.620   5.325   0.499 -0.1674 -0.4358 -0.5440
13503TIP3    H161924   0.548   5.385   0.477 -0.6040 -0.9150 -0.4412
13503TIP3    H261925   0.633   5.338   0.593  0.6906  0.5245 -0.7956
13504TIP3   OH261926   3.903   5.777   4.324 -0.3210  0.2447  0.1371
13504TIP3    H161927   3.986   5.746   4.359 -0.0801  0.1547 -0.5141
13504TIP3    H261928   3.880   5.715   4.255 -0.5185  0.7307 -0.2398
13505TIP3   OH261929   2.517   4.786   4.666 -0.0178 -0.1057 -0.0172
13505TIP3    H161930   2.453   4.722   4.696 -0.1768 -0.2697 -0.7022
13505TIP3    H261931   2.507   4.860   4.726 -0.5397 -0.3099  0.1499
13506TIP3   OH261932   4.829   3.413   5.228  0.1622 -0.2802 -0.1274
13506TIP3    H161933   4.788   3.424   5.314  0.9647 -1.5001  0.4456
13506TIP3    H261934   4.775   3.347   5.184  1.3401 -1.7454  0.5553
13507TIP3   OH261935   6.356   4.493   3.516  0.3843  0.6501 -0.0516
13507TIP3    H161936   6.292   4.559   3.542 -0.0982 -0.0461  0.5286
13507TIP3    H261937   6.380   4.449   3.597 -2.2303 -2.5151 -0.8719
13508TIP3   OH261938   0.328   0.996   1.488  0.3798  0.2935  0.1948
13508TIP3    H161939   0.343   0.948   1.569  0.5916  1.3367  0.7858
13508TIP3    H261940   0.414   1.004   1.448  0.4596  0.7999  0.4588
13509TIP3   OH261941   0.273   3.929   0.240  0.3785  0.1284  0.3457
13509TIP3    H161942   0.312   3.953   0.156 -1.7764  1.8765 -0.2222
13509TIP3    H261943   0.285   3.834   0.246 -0.9744 -0.3074 -2.7930
13510TIP3   OH261944   5.753   1.420   2.948  0.6924  0.2184 -0.7950
13510TIP3    H161945   5.798   1.344   2.911 -0.1190 -0.1629 -1.0105
13510TIP3    H261946   5.660   1.404   2.930  0.2962  0.1508  1.2048
13511TIP3   OH261947   3.422   4.737   5.723  0.0519  0.4178  0.1507
13511TIP3    H161948   3.383   4.677   5.660 -1.4793  0.0305  1.4341
13511TIP3    H261949   3.510   4.701   5.740 -0.6621 -1.1930  0.5356
13512TIP3   OH261950   0.903   4.570  14.522 -0.0203  0.6968  0.1058
13512TIP3    H161951   0.943   4.631  14.584  1.1896  0.5688 -0.5303
13512TIP3    H261952   0.902   4.486  14.568  0.1104  0.7808  0.2627
13513TIP3   OH261953   5.635   4.223   5.472  0.6415  0.1585  0.2512
13513TIP3    H161954   5.625   4.286   5.543 -2.0942 -2.3793  2.2349
13513TIP3    H261955   5.593   4.143   5.504  2.0039 -2.0112 -3.0524
13514TIP3   OH261956   4.203   2.765  11.107 -0.3287  0.4585 -0.6561
13514TIP3    H161957   4.130   2.822  11.131 -1.1860 -0.9122  0.0807
13514TIP3    H261958   4.183   2.736  11.018  0.3719  1.6965 -1.2283
13515TIP3   OH261959   0.717   2.834  11.166 -0.3985 -0.3799 -0.1934
13515TIP3    H161960   0.757   2.920  11.161  1.0881 -1.1245 -1.5109
13515TIP3    H261961   0.635   2.843  11.117 -0.8097  0.5596  0.6410
13516TIP3   OH261962   1.299   3.853   4.814  0.4395  0.8056 -0.0174
13516TIP3    H161963   1.227   3.915   4.828  0.1988  1.1782 -2.6608
13516TIP3    H261964   1.336   3.878   4.729  0.8974 -2.1410 -0.7358
13517TIP3   OH261965   6.651   3.725  14.212  0.3432  0.4177  0.4852
13517TIP3    H161966   6.630   3.769  14.295 -0.3649  0.4014  0.3240
13517TIP3    H261967   6.566   3.714  14.169  0.5858 -0.5227  0.2295
13518TIP3   OH261968   3.956   2.672   0.157 -0.0163 -0.2736  0.0170
13518TIP3    H161969   4.040   2.702   0.124  0.3932  0.0501  1.3113
13518TIP3    H261970   3.937   2.593   0.107  1.0587 -0.3428 -0.2932
13519TIP3   OH261971   3.503   2.560   0.809 -0.5030 -0.4355  0.2721
13519TIP3    H161972   3.534   2.516   0.730 -0.4874  0.3527 -0.1700
13519TIP3    H261973   3.565   2.535   0.877 -1.5932 -2.6563  0.4761
13520TIP3   OH261974   2.144   5.481  16.961  0.2751  0.3912 -0.5415
13520TIP3    H161975   2.142   5.576  16.960  1.2278  0.4148 -0.4142
13520TIP3    H261976   2.099   5.455  16.881  2.0860  0.9789 -1.7797
13521TIP3   OH261977   5.756   4.803   1.051  0.3663 -0.1040  0.0862
13521TIP3    H161978   5.794   4.884   1.015  0.5172 -0.6924 -1.1103
13521TIP3    H261979   5.822   4.771   1.112  0.2257  0.7683  0.7142
13522TIP3   OH261980   3.195   1.854   0.627  0.3275 -0.1429  0.6417
13522TIP3    H161981   3.209   1.762   0.646  0.5869 -0.1491  0.4193
13522TIP3    H261982   3.113   1.875   0.671 -1.0806 -1.1215 -1.4760
13523TIP3   OH261983   3.936   4.148  14.455  0.1164  0.2103  0.2016
13523TIP3    H161984   4.012   4.109  14.413 -0.9556 -3.1573  1.2378
13523TIP3    H261985   3.966   4.175  14.542 -0.0434 -2.0236  0.9863
13524TIP3   OH261986   6.460   4.909   0.951 -0.2004  0.1412 -0.5823
13524TIP3    H161987   6.550   4.932   0.925 -0.5933  0.2683 -1.8391
13524TIP3    H261988   6.471   4.832   1.006  0.9310  1.8553  1.6973
13525TIP3   OH261989   5.839   0.764   4.477 -0.3020  0.4050  0.7130
13525TIP3    H161990   5.843   0.702   4.550  0.3561 -0.2178  0.1565
13525TIP3    H261991   5.930   0.792   4.465  0.2550 -2.2346 -2.1760
13526TIP3   OH261992   3.096   0.906  16.240  0.4147 -0.7525  0.0094
13526TIP3    H161993   3.162   0.898  16.171  1.4562  0.0393  0.8907
13526TIP3    H261994   3.014   0.920  16.193  1.2063  0.4508 -1.0525
13527TIP3   OH261995   2.086   5.441  14.123 -0.1077  0.5852  0.1571
13527TIP3    H161996   2.079   5.446  14.218  0.3816 -0.5336  0.2510
13527TIP3    H261997   2.151   5.373  14.106  1.6672  2.4872 -0.9451
13528TIP3   OH261998   0.275   4.696   1.688 -0.5798  0.0465  0.5451
13528TIP3    H161999   0.290   4.607   1.658  0.1826  0.4004 -0.1346
13528TIP3    H262000   0.242   4.686   1.778  0.5602 -0.8767  0.8686
13529TIP3   OH262001   4.246   0.306   6.265 -0.0901  0.2748  0.3856
13529TIP3    H162002   4.317   0.269   6.318  0.4164 -1.1684 -1.2540
13529TIP3    H262003   4.190   0.231   6.245 -0.4475  0.8578 -0.8411
13530TIP3   OH262004   5.241   4.129   5.165  0.3081  0.0501  0.8936
13530TIP3    H162005   5.146   4.133   5.178  0.4899 -1.7400  2.9463
13530TIP3    H262006   5.269   4.220   5.160 -1.9105  0.6326 -2.9842
13531TIP3   OH262007   1.791   4.355   1.873 -0.4426  0.2022  0.3131
13531TIP3    H162008   1.722   4.289   1.869 -1.5273  1.3801 -0.8510
13531TIP3    H262009   1.812   4.375   1.782 -0.2869  1.6068  0.6397
13532TIP3   OH262010   5.217   5.681   6.443  0.1267 -0.0832  0.4860
13532TIP3    H162011   5.262   5.728   6.514 -0.0368 -0.6915  0.9959
13532TIP3    H262012   5.204   5.593   6.477  2.6584 -1.2528 -1.3964
13533TIP3   OH262013   1.345   4.894   0.710  0.1281  0.0892  0.4486
13533TIP3    H162014   1.277   4.921   0.772  0.3120 -0.0078  0.6963
13533TIP3    H262015   1.408   4.967   0.711  0.6882 -0.3953  1.2110
13534TIP3   OH262016   0.947   1.156  13.119  0.3424  0.1579  0.1608
13534TIP3    H162017   1.003   1.083  13.095  0.4206 -0.2665  1.5922
13534TIP3    H262018   0.991   1.198  13.193 -0.0434  1.2363 -0.2050
13535TIP3   OH262019   5.492   4.724  12.527 -0.0814 -0.0169  0.2883
13535TIP3    H162020   5.570   4.682  12.491 -0.0799 -0.2617  0.5810
13535TIP3    H262021   5.524   4.774  12.602 -0.5674 -1.9828  1.8263
13536TIP3   OH262022   4.065   4.805   2.618  0.3249 -0.6125  0.5799
13536TIP3    H162023   4.009   4.739   2.579 -0.1440 -0.3396  0.7882
13536TIP3    H262024   4.026   4.823   2.704 -0.2179  0.7625  0.0567
13537TIP3   OH262025   5.575   5.287  11.678 -0.5415 -0.0410  0.0607
13537TIP3    H162026   5.645   5.289  11.743 -0.5897  0.0799  0.1110
13537TIP3    H262027   5.620   5.282  11.594 -0.4630  0.2726  0.0811
13538TIP3   OH262028   3.032   2.335  13.033 -0.0542 -0.1759  1.0171
13538TIP3    H162029   2.960   2.316  12.973  0.0274 -0.4300  0.9963
13538TIP3    H262030   3.047   2.429  13.024  0.6876 -0.3879 -0.1936
13539TIP3   OH262031   4.788   6.631   0.257 -0.1208  0.4421  0.1553
13539TIP3    H162032   4.865   6.597   0.303 -0.1659  0.3414  0.1557
13539TIP3    H262033   4.823   6.673   0.179 -0.1638 -0.6383 -0.4527
13540TIP3   OH262034   1.401   4.319  13.363 -0.0309 -0.0462  0.0913
13540TIP3    H162035   1.491   4.338  13.389 -0.3400  0.2102  0.9939
13540TIP3    H262036   1.352   4.320  13.445 -0.9924  0.6239 -0.4886
13541TIP3   OH262037   4.019   0.338  15.940  0.1336 -0.5828 -0.5422
13541TIP3    H162038   3.991   0.291  16.018 -2.0196 -0.5110 -1.2614
13541TIP3    H262039   4.111   0.359  15.958 -0.1868 -0.9509  1.7678
13542TIP3   OH262040   5.465   2.461  14.584 -0.1989  0.0510 -0.1702
13542TIP3    H162041   5.527   2.496  14.648  0.6406 -1.4554 -0.1481
13542TIP3    H262042   5.504   2.479  14.499 -1.3905  2.1938 -0.2944
13543TIP3   OH262043   3.010   4.898   4.393  0.1702  0.4537 -0.1391
13543TIP3    H162044   2.937   4.935   4.342 -0.1610  1.7464  1.2402
13543TIP3    H262045   3.088   4.937   4.354  0.1004 -0.5041 -1.2646
13544TIP3   OH262046   5.810   3.787   0.375  0.1611 -0.2487 -0.4241
13544TIP3    H162047   5.885   3.734   0.347  1.9458  1.7931  0.4373
13544TIP3    H262048   5.802   3.769   0.468  0.9069  1.1772 -0.0879
13545TIP3   OH262049   5.897   5.311   2.104  0.1349  0.2414  1.0464
13545TIP3    H162050   5.868   5.400   2.085  1.3643  0.2509 -0.9880
13545TIP3    H262051   5.969   5.296   2.043 -0.6685 -2.4948  0.7083
13546TIP3   OH262052   5.593   2.013  16.940 -0.0133  0.3774 -0.4841
13546TIP3    H162053   5.596   2.106  16.959  0.0698 -0.0109  1.5022
13546TIP3    H262054   5.664   1.999  16.877 -0.7598  1.8286 -1.6879
13547TIP3   OH262055   3.936   2.989  15.011  0.8678 -0.2706 -0.5733
13547TIP3    H162056   3.932   3.062  14.948 -2.4015 -0.1730 -0.3501
13547TIP3    H262057   3.981   3.025  15.087  1.1457  0.8942 -1.2742
13548TIP3   OH262058   6.192   2.016  14.175  0.7104  0.3973  0.1244
13548TIP3    H162059   6.211   1.922  14.172  1.1468  0.3803  2.3906
13548TIP3    H262060   6.220   2.049  14.090  1.2229 -1.3971 -0.4272
13549TIP3   OH262061   5.585   4.288   2.276  0.0506  0.7332  0.0697
13549TIP3    H162062   5.599   4.280   2.371 -1.2560  0.8314  0.2831
13549TIP3    H262063   5.621   4.374   2.255  1.9480 -0.0145  0.1493
13550TIP3   OH262064   0.109   4.457  16.200  0.5563  0.1059  0.7064
13550TIP3    H162065   0.156   4.413  16.129  0.0994  2.2331 -0.9653
13550TIP3    H262066   0.095   4.388  16.266  3.8889 -1.1367  0.2236
13551TIP3   OH262067   5.912   4.213   3.562  0.2787 -0.1817  0.3425
13551TIP3    H162068   5.927   4.119   3.555 -0.9181 -0.3476 -0.1968
13551TIP3    H262069   5.865   4.225   3.644  0.2627 -0.0825  0.3197
13552TIP3   OH262070   6.727   2.313  10.810 -0.2976 -0.0038  0.0339
13552TIP3    H162071   6.745   2.369  10.734  2.1974  0.7445  1.1207
13552TIP3    H262072   6.745   2.224  10.779  3.6702  0.5349  0.4908
13553TIP3   OH262073   2.179   0.665   3.794 -0.4489  0.7874 -0.7840
13553TIP3    H162074   2.253   0.643   3.850 -1.8649  0.1232  0.8908
13553TIP3    H262075   2.155   0.754   3.819 -1.9164  0.0247  0.7024
13554TIP3   OH262076   1.941   6.055   3.149  0.6979  0.0928  0.1132
13554TIP3    H162077   1.986   5.991   3.205 -0.8407 -1.6004 -0.5363
13554TIP3    H262078   1.997   6.060   3.071  0.5034 -0.9721 -0.1081
13555TIP3   OH262079   2.640   2.220   4.367 -0.0601  1.0166 -0.0645
13555TIP3    H162080   2.584   2.152   4.404 -0.0687  0.6317 -0.7834
13555TIP3    H262081   2.729   2.187   4.381  0.0013  1.6885  1.1961
13556TIP3   OH262082   5.610   6.497  11.109 -0.1410  0.4676 -0.4853
13556TIP3    H162083   5.692   6.470  11.067 -0.5001  0.3086 -1.0951
13556TIP3    H262084   5.541   6.467  11.049 -0.5761  2.0920 -0.8152
13557TIP3   OH262085   2.299   1.988   4.651  0.1015 -0.3769 -0.4639
13557TIP3    H162086   2.349   2.070   4.651 -1.0869  0.3636 -1.0148
13557TIP3    H262087   2.295   1.962   4.743  0.4394  0.2203 -0.2777
13558TIP3   OH262088   2.417   4.524   3.472 -0.0028 -0.1289  0.4289
13558TIP3    H162089   2.424   4.593   3.537 -0.7818 -0.8371  1.2847
13558TIP3    H262090   2.461   4.448   3.511 -0.9971 -0.7350  0.4018
13559TIP3   OH262091   0.625   3.849   3.910 -0.5742 -0.1426 -0.5379
13559TIP3    H162092   0.537   3.823   3.882 -0.7810 -1.1140  0.9814
13559TIP3    H262093   0.611   3.931   3.957 -0.3409  1.0010 -2.4105
13560TIP3   OH262094   0.923   4.850   1.089 -0.2073 -0.0108 -0.6496
13560TIP3    H162095   1.017   4.838   1.100 -0.6063 -1.9013  0.9774
13560TIP3    H262096   0.900   4.798   1.012 -0.3977 -2.0411  0.7609
13561TIP3   OH262097   4.273   4.044   5.604 -0.0733 -0.4899  0.2003
13561TIP3    H162098   4.271   3.964   5.657  0.6641  0.5666  1.8571
13561TIP3    H262099   4.262   4.115   5.666 -0.9392  0.7116 -1.2908
13562TIP3   OH262100   3.421   0.612  10.794 -0.5955 -0.3992 -0.2241
13562TIP3    H162101   3.488   0.643  10.855 -1.0040  0.6859 -0.3172
13562TIP3    H262102   3.365   0.555  10.847 -0.4927 -0.0852  0.2230
13563TIP3   OH262103   4.127   2.579  11.324 -0.2545  0.2188 -0.0864
13563TIP3    H162104   4.206   2.557  11.373 -0.4371 -0.9616 -0.3007
13563TIP3    H262105   4.158   2.638  11.255  0.8013 -1.7785 -1.3846
13564TIP3   OH262106   4.582   4.348   2.550  0.1491  0.5433 -0.1640
13564TIP3    H162107   4.493   4.335   2.518  0.5491 -0.0456 -1.0759
13564TIP3    H262108   4.631   4.273   2.515  0.5784 -0.2472  2.0152
13565TIP3   OH262109   3.602   2.538   3.314  0.1316 -0.2543 -0.0982
13565TIP3    H162110   3.619   2.485   3.392  2.6111 -0.1866 -0.5471
13565TIP3    H262111   3.551   2.481   3.257  0.5662 -1.2431  0.4860
13566TIP3   OH262112   3.319   2.839  10.579 -0.8649  0.1614  0.1239
13566TIP3    H162113   3.275   2.905  10.632  0.4770  1.3958 -0.2542
13566TIP3    H262114   3.403   2.824  10.623 -1.6700 -2.2791  0.9343
13567TIP3   OH262115   4.644   1.789  14.029  0.0647  0.2426 -0.3545
13567TIP3    H162116   4.603   1.864  14.071  2.0570  0.5113  1.1535
13567TIP3    H262117   4.726   1.823  13.993  0.8080 -1.1186  0.0091
13568TIP3   OH262118   2.300   5.267   1.779  0.1782  0.1573  0.3676
13568TIP3    H162119   2.240   5.204   1.740 -0.4150 -0.1424  1.7405
13568TIP3    H262120   2.382   5.219   1.791  0.0057 -0.0883  0.5631
13569TIP3   OH262121   0.666   3.258   1.962 -0.2048 -0.3589  0.1740
13569TIP3    H162122   0.622   3.206   2.029  0.9693  0.9469  2.0095
13569TIP3    H262123   0.754   3.272   1.997 -0.6990  3.4716  0.1054
13570TIP3   OH262124   3.979   6.282  13.954 -0.5699  0.2552 -0.2783
13570TIP3    H162125   4.017   6.194  13.950 -1.9604 -0.3120 -1.2138
13570TIP3    H262126   4.045   6.334  14.000 -0.2349 -1.5190  1.3202
13571TIP3   OH262127   1.796   6.491   6.129  0.5984 -0.0598 -0.0115
13571TIP3    H162128   1.836   6.576   6.147  1.2895 -0.6265  1.2350
13571TIP3    H262129   1.732   6.480   6.199  1.0287 -0.8812  0.2553
13572TIP3   OH262130   4.215   4.395   6.444 -0.0643 -0.0827  0.0679
13572TIP3    H162131   4.206   4.490   6.437 -0.2203 -0.3029 -3.2503
13572TIP3    H262132   4.126   4.362   6.456 -0.4519 -0.0210 -2.3437
13573TIP3   OH262133   2.783   2.722  13.452  0.3009  0.1786  0.0263
13573TIP3    H162134   2.829   2.646  13.416  0.6640  0.0443  0.7649
13573TIP3    H262135   2.796   2.791  13.387  1.7492  0.2102  0.3374
13574TIP3   OH262136   4.030   6.562  13.928  0.5229  0.2406 -0.1143
13574TIP3    H162137   4.087   6.637  13.913 -0.1882  0.9237  0.5913
13574TIP3    H262138   3.946   6.586  13.887  1.2087 -1.4388 -2.6367
13575TIP3   OH262139   0.539   4.390   2.820  0.5563  0.2682  0.2649
13575TIP3    H162140   0.612   4.432   2.867  0.0128 -1.8594  3.1433
13575TIP3    H262141   0.582   4.327   2.761  1.1517  0.9103  0.0092
13576TIP3   OH262142   3.402   3.640   3.593  0.7081 -0.3272  0.2684
13576TIP3    H162143   3.349   3.590   3.656 -3.0154  0.9327 -1.7068
13576TIP3    H262144   3.391   3.731   3.620  3.3551 -0.1573  0.8517
13577TIP3   OH262145   2.172   5.308   4.430 -0.6544  0.5739 -0.1281
13577TIP3    H162146   2.142   5.378   4.372 -1.0812 -0.1687 -0.8254
13577TIP3    H262147   2.202   5.239   4.370 -0.0077  0.2559  0.5499
13578TIP3   OH262148   1.413   3.301  12.535 -0.2560 -0.3931  0.3382
13578TIP3    H162149   1.442   3.263  12.452 -0.3518 -0.6424  0.4200
13578TIP3    H262150   1.471   3.262  12.601  1.2951  1.4798  0.1236
13579TIP3   OH262151   0.511   5.692   3.644  0.2069  0.0982 -0.3433
13579TIP3    H162152   0.577   5.659   3.582 -0.9958 -1.0598 -1.0219
13579TIP3    H262153   0.543   5.663   3.729  1.0772  0.3937 -0.5534
13580TIP3   OH262154   5.460   0.935  11.999 -0.0661  0.5876 -0.1971
13580TIP3    H162155   5.535   0.882  11.973  0.0832  0.6567  0.0978
13580TIP3    H262156   5.393   0.872  12.025  0.5373  0.5728  1.3413
13581TIP3   OH262157   4.108   2.724  11.981 -0.0187 -0.1935 -0.0007
13581TIP3    H162158   4.089   2.729  12.075 -0.4077 -1.9704  0.0447
13581TIP3    H262159   4.085   2.634  11.957 -1.3721  0.6642 -2.1237
13582TIP3   OH262160   0.493   0.736   5.183 -0.9386 -0.3331 -0.1286
13582TIP3    H162161   0.545   0.812   5.158 -0.8075 -0.2128  0.5025
13582TIP3    H262162   0.417   0.738   5.123 -0.7877  0.1217 -0.3062
13583TIP3   OH262163   3.924   0.531  14.960  0.2766 -0.1147  0.4131
13583TIP3    H162164   3.899   0.530  15.053  2.6046  1.7434  1.0962
13583TIP3    H262165   4.017   0.508  14.960  0.2420 -0.2811 -1.4834
13584TIP3   OH262166   0.795   5.683   5.176  0.0739 -0.1381  0.4771
13584TIP3    H162167   0.847   5.613   5.214 -2.5528 -2.7167 -0.5019
13584TIP3    H262168   0.836   5.701   5.091  0.1955 -1.1254  0.3303
13585TIP3   OH262169   1.441   6.783   6.280 -0.0282  0.0340 -0.3282
13585TIP3    H162170   1.493   6.779   6.200  0.1900  1.5155 -0.2669
13585TIP3    H262171   1.484   6.722   6.340  0.6488 -0.0057 -0.8530
13586TIP3   OH262172   0.750   2.003  17.050  0.5530 -0.5748 -0.1336
13586TIP3    H162173   0.780   1.919  17.085 -2.6263 -1.3290  0.9492
13586TIP3    H262174   0.711   2.047  17.125 -0.8680  0.4058 -1.4198
13587TIP3   OH262175   0.839   6.182   1.829 -0.2859 -0.2558 -0.1325
13587TIP3    H162176   0.839   6.152   1.738  4.0225 -1.3100  0.1056
13587TIP3    H262177   0.913   6.242   1.834 -1.6802  1.3087  2.2461
13588TIP3   OH262178   4.497   5.317  13.047  0.1083 -0.4483 -0.1013
13588TIP3    H162179   4.465   5.299  13.135 -1.4227  0.1827 -0.5104
13588TIP3    H262180   4.561   5.387  13.059 -0.0477 -0.4111  0.5275
13589TIP3   OH262181   6.607   1.987  15.411  0.3386  0.5448 -0.0730
13589TIP3    H162182   6.604   2.029  15.497 -2.3061 -0.7216  0.5072
13589TIP3    H262183   6.564   2.050  15.352 -1.1291 -0.1000  0.2704
13590TIP3   OH262184   1.995   2.070   2.849 -0.0403 -0.8647 -0.0480
13590TIP3    H162185   2.025   2.140   2.790  1.3684 -0.6525  0.9048
13590TIP3    H262186   1.946   2.116   2.918  1.3033 -0.7508  0.8457
13591TIP3   OH262187   0.005   4.652  15.546 -0.2071 -0.0532 -0.5678
13591TIP3    H162188  -0.022   4.561  15.540  0.2082 -0.3695  1.8312
13591TIP3    H262189   0.089   4.655  15.499 -1.5890 -0.2585 -3.1278
13592TIP3   OH262190   4.632   2.294  11.761 -0.7649  0.3309 -0.2608
13592TIP3    H162191   4.599   2.383  11.771 -1.8647 -0.1850  0.6937
13592TIP3    H262192   4.708   2.291  11.819 -1.4286  0.2904  0.6140
13593TIP3   OH262193   3.898   5.002   1.742  0.6652  0.1371  0.8133
13593TIP3    H162194   3.833   4.934   1.721 -0.5118  0.8706  1.9533
13593TIP3    H262195   3.962   4.957   1.797  1.6528 -0.8202 -1.0715
13594TIP3   OH262196   0.692   6.050   6.235 -0.2505  0.2628  0.7372
13594TIP3    H162197   0.671   5.969   6.189 -0.0136  0.2584  0.6394
13594TIP3    H262198   0.781   6.070   6.208 -0.8821  1.4485 -0.5427
13595TIP3   OH262199   0.101   0.217  16.858  0.2698  0.2940 -0.2233
13595TIP3    H162200   0.194   0.201  16.875  0.1874  1.0959  1.0554
13595TIP3    H262201   0.089   0.193  16.766  1.8654  0.7026 -0.5558
13596TIP3   OH262202   3.392   5.509  16.826 -0.6269 -0.1204 -0.5417
13596TIP3    H162203   3.433   5.423  16.836 -0.0262  0.1065 -1.0384
13596TIP3    H262204   3.335   5.518  16.902 -1.1039 -1.1954 -0.7586
13597TIP3   OH262205   3.438   5.168   1.207 -0.3092 -0.1254  0.0405
13597TIP3    H162206   3.369   5.233   1.197 -0.4934 -0.6699 -2.5238
13597TIP3    H262207   3.395   5.084   1.187  0.7236 -0.6496  0.0037
13598TIP3   OH262208   6.450   4.533  16.591 -0.5387 -0.2473 -0.1178
13598TIP3    H162209   6.524   4.590  16.613 -0.7079 -0.2363  0.4298
13598TIP3    H262210   6.415   4.569  16.509 -0.6738  0.4659  0.2482
13599TIP3   OH262211   5.710   1.137   2.684  0.0686  0.4576 -0.3096
13599TIP3    H162212   5.741   1.112   2.770 -1.3697  1.4278  0.5261
13599TIP3    H262213   5.690   1.055   2.640 -2.3342 -0.0008  1.5179
13600TIP3   OH262214   0.886   0.466  17.139 -0.1613  0.0915  0.4302
13600TIP3    H162215   0.838   0.394  17.179  0.2462 -0.7708 -0.6235
13600TIP3    H262216   0.855   0.469  17.048  1.0788  0.1434  0.0058
13601TIP3   OH262217   2.268   5.997  15.544 -0.2397 -0.4764 -0.0717
13601TIP3    H162218   2.214   5.964  15.473 -0.8206  0.2477  0.0324
13601TIP3    H262219   2.326   6.061  15.502 -0.1202 -0.5430 -0.0105
13602TIP3   OH262220   4.886   3.606  17.116 -0.2864 -0.4137 -0.2898
13602TIP3    H162221   4.842   3.621  17.199 -1.0751  1.9321 -1.0843
13602TIP3    H262222   4.970   3.651  17.125  0.2985 -1.5053 -0.2081
13603TIP3   OH262223   5.697   3.119  16.369  0.0401 -0.0766 -0.3213
13603TIP3    H162224   5.633   3.185  16.341 -0.0832  0.3849  1.0288
13603TIP3    H262225   5.779   3.149  16.331 -0.2001  0.3376 -0.5246
13604TIP3   OH262226   2.185   0.396   0.152  0.2525 -0.1505 -0.2507
13604TIP3    H162227   2.215   0.373   0.240  1.7568  0.7134 -0.5236
13604TIP3    H262228   2.157   0.313   0.113  0.5021 -0.6779  0.6909
13605TIP3   OH262229   5.480   4.849   2.457  0.1787  0.0135  0.3845
13605TIP3    H162230   5.558   4.869   2.508 -1.0964 -1.0990  2.8608
13605TIP3    H262231   5.476   4.916   2.389  2.5663  0.8139  1.0271
13606TIP3   OH262232   1.876   0.014  15.526 -0.1835  0.5614  0.4614
13606TIP3    H162233   1.871  -0.000  15.431 -1.2046 -0.5882  0.6690
13606TIP3    H262234   1.827  -0.060  15.563 -0.6614  1.5660  1.8473
13607TIP3   OH262235   1.642   4.303   4.482 -0.3555 -0.5619  0.0752
13607TIP3    H162236   1.711   4.250   4.442  0.1039  0.7316 -0.8789
13607TIP3    H262237   1.683   4.388   4.498 -2.1866  0.7688 -2.0624
13608TIP3   OH262238   3.335   2.443   3.256  0.2996  0.3556  0.5249
13608TIP3    H162239   3.326   2.537   3.272 -0.7349  0.4777 -0.6336
13608TIP3    H262240   3.270   2.403   3.313 -0.4140  0.4712 -0.2016
13609TIP3   OH262241   5.615   1.955  14.877 -0.5807 -0.3551  0.0846
13609TIP3    H162242   5.680   1.916  14.935 -0.1607  0.8826  0.4683
13609TIP3    H262243   5.667   1.993  14.806 -0.8402  1.0991  0.6613
13610TIP3   OH262244   5.613   3.423   0.540  0.6877 -0.2460  0.1690
13610TIP3    H162245   5.580   3.364   0.607 -3.2800  0.6501 -0.8601
13610TIP3    H262246   5.643   3.366   0.469 -1.9890 -1.0960 -0.3146
13611TIP3   OH262247   3.506   3.283  14.126 -0.2801 -0.1851 -0.3250
13611TIP3    H162248   3.470   3.364  14.090 -1.7441 -0.1993  1.0861
13611TIP3    H262249   3.431   3.236  14.162  0.5638 -2.1488 -1.0529
13612TIP3   OH262250   0.977   2.324  12.836  0.2599  0.3217  0.2199
13612TIP3    H162251   0.975   2.259  12.906 -2.0477 -1.2939 -1.3057
13612TIP3    H262252   0.885   2.350  12.824  0.4784 -0.1601 -2.8638
13613TIP3   OH262253   1.800   3.885   4.896 -0.6700 -0.3491  0.0445
13613TIP3    H162254   1.819   3.846   4.811  1.9346 -3.4857  1.9439
13613TIP3    H262255   1.773   3.811   4.951  1.3785  0.9550  2.9397
13614TIP3   OH262256   1.018   3.124   1.386 -0.4473 -0.4220  0.1975
13614TIP3    H162257   1.084   3.188   1.359  0.3317 -1.5888 -0.7279
13614TIP3    H262258   0.988   3.155   1.471  0.5205  0.7264  0.1341
13615TIP3   OH262259   4.585   2.183  12.282  0.3037  0.4158  0.0230
13615TIP3    H162260   4.653   2.131  12.325  2.0711  0.6488 -2.3827
13615TIP3    H262261   4.566   2.253  12.344  0.6184 -0.9348  1.6823
13616TIP3   OH262262   4.735   5.303  16.860  0.3254  0.0147 -0.8557
13616TIP3    H162263   4.642   5.308  16.839  0.0963 -0.4201  0.0380
13616TIP3    H262264   4.759   5.211  16.846  0.1363 -0.3150  0.8649
13617TIP3   OH262265   6.044   3.935   1.584 -0.1017 -0.3413 -0.4604
13617TIP3    H162266   6.025   4.026   1.561 -0.5879 -0.2720  0.1906
13617TIP3    H262267   6.055   3.891   1.500 -0.2922  0.2228 -0.7889
13618TIP3   OH262268   1.533   3.147   4.033  0.0217  0.7538  0.4378
13618TIP3    H162269   1.612   3.201   4.033  1.6291 -1.5386  0.6454
13618TIP3    H262270   1.565   3.057   4.034 -2.5875 -0.2478 -1.1627
13619TIP3   OH262271   2.796   2.554  16.269  0.6119  0.1385  0.4683
13619TIP3    H162272   2.833   2.500  16.199 -0.0257 -0.8826  0.8995
13619TIP3    H262273   2.716   2.591  16.231  0.7509  0.3246  0.3567
13620TIP3   OH262274   5.074   4.456   5.106 -0.3225 -0.0843  0.3084
13620TIP3    H162275   5.122   4.479   5.185  1.6126  2.0696 -1.4009
13620TIP3    H262276   5.015   4.530   5.090 -1.5137 -1.0090  0.3357
13621TIP3   OH262277   0.684   2.361   1.378 -0.3043 -0.2563  0.1983
13621TIP3    H162278   0.592   2.387   1.381 -0.3109 -0.2321 -0.1838
13621TIP3    H262279   0.716   2.397   1.295  0.2351  0.3393  0.6646
13622TIP3   OH262280   2.513   2.377  16.145 -0.1044  0.6460  0.5402
13622TIP3    H162281   2.434   2.378  16.091 -0.9762  0.1980  1.8113
13622TIP3    H262282   2.508   2.456  16.198 -0.6977 -0.3882  2.0504
13623TIP3   OH262283   5.945   3.028  13.457 -0.2402 -0.2617 -0.3053
13623TIP3    H162284   5.963   3.115  13.420 -0.0598  0.2650  1.0026
13623TIP3    H262285   6.026   2.979  13.442  0.6678  0.6760  1.4480
13624TIP3   OH262286   4.250   6.774  11.783  0.1572  0.4959 -0.7378
13624TIP3    H162287   4.207   6.845  11.735 -1.5131 -1.8265 -2.7962
13624TIP3    H262288   4.184   6.744  11.846  0.7243  0.4924 -0.1340
13625TIP3   OH262289   3.861   6.304   2.690 -0.5131  0.1687  0.5993
13625TIP3    H162290   3.938   6.259   2.655  0.0455 -0.1308  2.1613
13625TIP3    H262291   3.787   6.250   2.661  0.0971 -1.3802  1.8559
13626TIP3   OH262292   3.752   4.990  13.130 -0.3240  0.2867 -0.1068
13626TIP3    H162293   3.662   4.985  13.099 -0.4776  0.0353  0.3776
13626TIP3    H262294   3.790   4.905  13.105 -0.6583 -0.2067  1.0449
13627TIP3   OH262295   4.781   0.685  11.721 -0.3142  0.1869  0.3612
13627TIP3    H162296   4.805   0.606  11.673 -0.0938  1.0473 -0.9893
13627TIP3    H262297   4.690   0.672  11.747 -0.2195 -0.5866  0.2917
13628TIP3   OH262298   1.520   0.318   4.323 -0.0978  0.1111  0.4068
13628TIP3    H162299   1.455   0.346   4.388 -0.8659 -0.2092 -0.2183
13628TIP3    H262300   1.475   0.251   4.271  1.0926 -0.9459  0.6893
13629TIP3   OH262301   3.175   2.341   6.244 -0.3255  0.3457  0.0665
13629TIP3    H162302   3.224   2.384   6.314  1.4242 -0.2599 -0.7331
13629TIP3    H262303   3.181   2.248   6.264 -1.7007  0.3086  0.2964
13630TIP3   OH262304   5.850   5.346   4.675 -1.0288 -0.4337  0.4693
13630TIP3    H162305   5.756   5.361   4.680 -1.0725 -0.5402  0.0229
13630TIP3    H262306   5.859   5.265   4.625 -0.6910 -0.1952  0.1388
13631TIP3   OH262307   1.254   6.400  15.676 -0.0548  0.1629  0.4723
13631TIP3    H162308   1.227   6.474  15.730 -0.7195 -0.3477  0.8502
13631TIP3    H262309   1.349   6.405  15.673 -0.1854  2.1386 -1.0758
13632TIP3   OH262310   4.577   3.621   5.727  0.0719  0.1087 -0.4101
13632TIP3    H162311   4.499   3.577   5.760  0.2809  0.0582  0.0170
13632TIP3    H262312   4.543   3.699   5.683 -0.1680  0.4658  0.4041
13633TIP3   OH262313   0.298   4.335  12.832 -0.3555 -0.0351  0.3282
13633TIP3    H162314   0.272   4.393  12.903 -0.5622  2.1255 -1.4414
13633TIP3    H262315   0.230   4.347  12.765 -1.3694 -3.6804  0.6031
13634TIP3   OH262316   2.284   3.662  16.246  0.3527  0.4345  0.1845
13634TIP3    H162317   2.242   3.585  16.207 -1.5860  0.6199  1.7888
13634TIP3    H262318   2.347   3.626  16.308  0.9170  0.1467 -0.5487
13635TIP3   OH262319   0.553   2.525  13.008  0.3345  0.0299  0.1040
13635TIP3    H162320   0.504   2.471  13.070  0.0605  0.0853 -0.0631
13635TIP3    H262321   0.643   2.521  13.039  0.3186 -0.5498  0.0684
13636TIP3   OH262322   2.623   3.342   4.780 -0.0708  0.1382 -0.8871
13636TIP3    H162323   2.702   3.371   4.827 -0.0121  1.2837 -1.6814
13636TIP3    H262324   2.657   3.301   4.701 -0.2675  0.6671 -1.2486
13637TIP3   OH262325   2.054   2.104  15.438 -0.6427  0.7053 -0.0270
13637TIP3    H162326   2.085   2.013  15.438 -1.4399  0.4331 -0.4784
13637TIP3    H262327   1.967   2.100  15.477 -1.3147  1.0624 -1.4742
13638TIP3   OH262328   3.052   5.880   1.898 -0.1964 -0.1642  0.0623
13638TIP3    H162329   3.000   5.803   1.924  1.7636 -1.5776 -0.1066
13638TIP3    H262330   3.077   5.921   1.980 -1.7223  0.6314  0.1413
13639TIP3   OH262331   0.164   6.273   1.000  0.1763 -0.5477 -0.1502
13639TIP3    H162332   0.255   6.287   0.975  0.1140 -1.9140 -1.1647
13639TIP3    H262333   0.128   6.361   1.011  0.9564  0.0322 -2.1445
13640TIP3   OH262334   5.962   6.760  14.797 -0.3939 -0.6235  0.4631
13640TIP3    H162335   6.054   6.756  14.824 -0.3890 -0.6937  0.4382
13640TIP3    H262336   5.949   6.850  14.768  0.1527 -1.0967 -1.2874
13641TIP3   OH262337   5.375   5.723  12.555 -0.3813 -0.0053  0.0620
13641TIP3    H162338   5.388   5.695  12.464  2.2190  0.6229  0.1890
13641TIP3    H262339   5.369   5.642  12.604 -0.4601 -0.3444 -0.4970
13642TIP3   OH262340   1.823   2.071  12.053  0.5173 -0.0794 -0.4841
13642TIP3    H162341   1.852   2.148  12.004  1.7114 -0.4446 -0.3523
13642TIP3    H262342   1.900   2.043  12.102  0.0453 -1.2788 -0.4181
13643TIP3   OH262343   0.673   2.000   1.162  0.3649 -0.3890 -0.2606
13643TIP3    H162344   0.714   2.045   1.236  0.9054 -2.2909  0.6297
13643TIP3    H262345   0.722   2.030   1.085  0.3102  0.9879  0.2280
13644TIP3   OH262346   2.494   3.281   3.713  0.8055  0.3776  0.3638
13644TIP3    H162347   2.487   3.253   3.622  0.4991  0.0659  0.4844
13644TIP3    H262348   2.555   3.355   3.711  2.5213 -0.9940  0.1943
13645TIP3   OH262349   3.602   4.125  12.188  0.1045  0.3051  0.1346
13645TIP3    H162350   3.629   4.185  12.118  2.8173  0.4846  1.2824
13645TIP3    H262351   3.604   4.039  12.147 -0.1128  0.5987 -0.5034
13646TIP3   OH262352   0.917   3.704   6.181 -0.2046 -0.5850  0.4923
13646TIP3    H162353   0.951   3.758   6.110 -0.3563  0.1523  0.9736
13646TIP3    H262354   0.944   3.749   6.261 -1.4806 -0.4895  0.8869
13647TIP3   OH262355   4.157   2.784   3.676  0.1703  0.3978  0.1103
13647TIP3    H162356   4.233   2.840   3.692  0.0498  0.3293  0.9078
13647TIP3    H262357   4.082   2.843   3.686  0.0687  0.2145  0.4213
13648TIP3   OH262358   0.387   0.091   6.142 -0.7873 -0.2248  0.4880
13648TIP3    H162359   0.396   0.143   6.062  2.2275 -1.7575 -0.2699
13648TIP3    H262360   0.304   0.044   6.131 -0.6969  0.0224 -1.4808
13649TIP3   OH262361   2.882   6.629  12.401 -0.1052  0.0133  0.0360
13649TIP3    H162362   2.828   6.557  12.366  0.5527 -0.1525 -0.6411
13649TIP3    H262363   2.848   6.643  12.490  1.7181 -3.1610  1.3221
13650TIP3   OH262364   5.224   6.468   3.614  0.7559 -0.8214  0.8273
13650TIP3    H162365   5.146   6.464   3.670  0.1163 -1.4907 -0.1063
13650TIP3    H262366   5.207   6.405   3.545  1.1215  0.7050 -0.6888
13651TIP3   OH262367   5.360   2.652  15.393  0.2988 -0.5574 -0.0328
13651TIP3    H162368   5.307   2.624  15.467  1.5176  1.4501  1.6557
13651TIP3    H262369   5.298   2.667  15.322 -0.8757 -2.5538  0.5438
13652TIP3   OH262370   1.387   1.265   6.678  0.5671  0.6875  0.5803
13652TIP3    H162371   1.305   1.280   6.631  0.1543  1.1323  1.4334
13652TIP3    H262372   1.448   1.328   6.640  0.5979  0.1823 -0.2345
13653TIP3   OH262373   1.168   2.248   2.508 -0.5477  0.7688  0.0504
13653TIP3    H162374   1.111   2.171   2.503 -1.9107  1.8473 -1.8767
13653TIP3    H262375   1.172   2.269   2.601 -1.4515 -0.6725  0.4376
13654TIP3   OH262376   2.666   0.349  14.974 -0.2228  0.5583 -0.2375
13654TIP3    H162377   2.723   0.381  15.044 -0.3784  0.4132 -0.0419
13654TIP3    H262378   2.690   0.400  14.897 -0.7663  1.4335  0.1746
13655TIP3   OH262379   4.597   0.220   5.658  0.1337  0.0045  0.3158
13655TIP3    H162380   4.555   0.209   5.744  1.5771 -1.0671  0.9195
13655TIP3    H262381   4.591   0.134   5.617  0.1181  0.3179 -0.3434
13656TIP3   OH262382   0.280   0.991  10.656 -0.3251  0.0176 -0.3598
13656TIP3    H162383   0.299   0.904  10.689 -0.2013  0.1392 -0.1050
13656TIP3    H262384   0.349   1.010  10.593 -1.0501 -0.5631 -1.3330
13657TIP3   OH262385   0.557   0.325  15.731 -0.3990 -0.4131  0.5468
13657TIP3    H162386   0.640   0.349  15.772  0.6227 -2.8561  0.0260
13657TIP3    H262387   0.514   0.408  15.711  1.8105  0.8726  1.0486
13658TIP3   OH262388   3.984   4.155  11.179  0.1810 -0.0502 -0.3302
13658TIP3    H162389   3.916   4.207  11.222 -0.4606  0.4609 -1.9526
13658TIP3    H262390   3.984   4.185  11.088  1.3453 -1.3141 -0.7619
13659TIP3   OH262391   3.684   2.405   4.573 -0.4339 -0.1566  0.3237
13659TIP3    H162392   3.771   2.400   4.534  0.2540 -0.1484  1.8146
13659TIP3    H262393   3.686   2.484   4.627 -0.9525 -0.8119  1.3220
13660TIP3   OH262394   4.019   4.625  17.089  0.0166 -0.4202 -0.0238
13660TIP3    H162395   3.992   4.542  17.126  0.6558 -1.0721 -1.0011
13660TIP3    H262396   4.081   4.602  17.020  0.6467  0.8875  0.0864
13661TIP3   OH262397   6.714   3.567  10.868 -0.2285 -0.1500  1.0652
13661TIP3    H162398   6.738   3.518  10.790 -0.3203 -0.7835  1.4285
13661TIP3    H262399   6.624   3.597  10.850 -0.0761  0.1133  0.7337
13662TIP3   OH262400   6.012   3.408   5.589  0.4443  0.2394  0.1381
13662TIP3    H162401   5.986   3.473   5.655 -0.0712  1.0739 -0.8813
13662TIP3    H262402   5.957   3.332   5.607  2.1451 -0.5288  2.3436
13663TIP3   OH262403   1.714   2.209  13.561 -0.0425  0.1759 -0.0950
13663TIP3    H162404   1.659   2.175  13.490 -0.4929 -1.8199  1.1536
13663TIP3    H262405   1.658   2.273  13.606 -0.0665  0.7943 -0.9968
13664TIP3   OH262406   6.754   0.825  13.197  0.1153 -0.4996  0.6993
13664TIP3    H162407   6.714   0.772  13.129 -0.3493  1.2826 -0.4608
13664TIP3    H262408   6.694   0.817  13.272 -0.8438 -0.2466 -0.0362
13665TIP3   OH262409   1.125   6.762   2.992 -0.3812 -0.1640 -0.1329
13665TIP3    H162410   1.106   6.855   2.997 -2.0934 -0.5173  0.1675
13665TIP3    H262411   1.130   6.742   2.899  0.5231  0.3194 -0.1947
13666TIP3   OH262412   4.261   2.225  10.364  0.0633 -0.0204 -0.2653
13666TIP3    H162413   4.174   2.202  10.396 -0.4553  1.2294 -0.7563
13666TIP3    H262414   4.320   2.167  10.411 -0.7881  0.9998  2.0923
13667TIP3   OH262415   3.139   2.879   0.262 -0.3828 -0.2780  0.0805
13667TIP3    H162416   3.182   2.812   0.316  0.1338  0.7574  0.9604
13667TIP3    H262417   3.046   2.858   0.269 -0.0838 -2.2406 -1.4454
13668TIP3   OH262418   3.958   0.394  12.270 -0.0657 -0.0007 -0.5110
13668TIP3    H162419   3.906   0.475  12.274  0.6661  0.4073  0.7144
13668TIP3    H262420   3.913   0.334  12.330 -0.2182 -0.2922 -0.9099
13669TIP3   OH262421   6.575   6.068  12.613 -0.3509  0.5449  0.0342
13669TIP3    H162422   6.481   6.056  12.620 -0.3320  1.4301  2.4211
13669TIP3    H262423   6.611   6.007  12.678  0.6378  1.0829 -0.0017
13670TIP3   OH262424   2.650   3.548  15.429  0.2619  0.4664  0.1454
13670TIP3    H162425   2.607   3.627  15.394 -0.3216 -0.8055 -2.1037
13670TIP3    H262426   2.648   3.486  15.356  2.7106 -0.8796  1.1829
13671TIP3   OH262427   5.176   6.755  16.492  0.3657  0.2917 -0.3364
13671TIP3    H162428   5.142   6.819  16.555 -0.9150 -1.5672  0.9014
13671TIP3    H262429   5.099   6.727  16.442  0.5720 -1.6256  0.3703
13672TIP3   OH262430   5.059   4.558   0.685  0.2295  0.5339  0.3373
13672TIP3    H162431   5.077   4.561   0.779  1.1398  0.8976  0.1548
13672TIP3    H262432   5.129   4.504   0.648 -0.2375  0.2283 -0.1066
13673TIP3   OH262433   5.118   4.298  11.627  0.1159  0.0449 -0.0127
13673TIP3    H162434   5.137   4.391  11.636 -0.0631 -0.0248  1.1876
13673TIP3    H262435   5.120   4.282  11.533  2.9817  0.6768 -0.1232
13674TIP3   OH262436   0.587   3.093   2.822 -0.2096 -0.2262  0.1696
13674TIP3    H162437   0.526   3.065   2.891 -0.6294 -0.1765 -0.1830
13674TIP3    H262438   0.545   3.067   2.740 -0.6713  1.5754 -0.1659
13675TIP3   OH262439   0.631   4.065   4.106 -0.2516  0.1237  0.2573
13675TIP3    H162440   0.687   4.108   4.170 -0.5687  1.6274 -0.4690
13675TIP3    H262441   0.669   4.086   4.021 -0.9003 -0.3121 -0.1565
13676TIP3   OH262442   0.109   2.488  14.714 -0.3356  0.0935 -0.3259
13676TIP3    H162443   0.026   2.536  14.707 -0.0093  0.6285 -0.5691
13676TIP3    H262444   0.163   2.541  14.772 -0.7738 -1.1349  1.2184
13677TIP3   OH262445   1.653   3.691  15.892 -0.1750  0.0295 -0.3865
13677TIP3    H162446   1.595   3.654  15.825  0.9636 -0.5523 -1.0682
13677TIP3    H262447   1.640   3.786  15.885 -1.0955 -0.0992 -0.4791
13678TIP3   OH262448   5.470   2.245  14.318 -0.3146 -0.4332  0.0197
13678TIP3    H162449   5.498   2.331  14.349  2.5584 -1.8027  1.4339
13678TIP3    H262450   5.450   2.258  14.226 -0.9015  1.9342  0.4396
13679TIP3   OH262451   4.424   0.119   4.800  0.2645 -0.3837  0.3481
13679TIP3    H162452   4.494   0.095   4.739  1.3591  1.7417  0.7249
13679TIP3    H262453   4.467   0.120   4.886 -0.6960 -0.9893  0.8424
13680TIP3   OH262454   0.722   0.153   1.102  0.5313 -0.0990 -0.3079
13680TIP3    H162455   0.696   0.170   1.011 -0.7331 -0.8062 -0.0941
13680TIP3    H262456   0.689   0.228   1.151 -0.6116 -0.7150 -0.1253
13681TIP3   OH262457   5.757   5.912  14.443  0.4683 -0.4651 -0.0138
13681TIP3    H162458   5.735   5.950  14.528 -0.3460 -0.1596 -0.3598
13681TIP3    H262459   5.674   5.880  14.408  0.7496 -0.3505 -0.8119
13682TIP3   OH262460   3.715   6.243  12.689 -0.0651  0.3166  0.0527
13682TIP3    H162461   3.746   6.175  12.630 -0.3964  0.5586 -0.4093
13682TIP3    H262462   3.782   6.312  12.684  0.5983 -0.2395  1.0179
13683TIP3   OH262463   0.891   3.689  13.246  0.2339  0.4105 -0.1522
13683TIP3    H162464   0.820   3.666  13.185 -0.3054  0.4073  0.4694
13683TIP3    H262465   0.881   3.627  13.318  0.1999  1.1137  0.4511
13684TIP3   OH262466   5.582   5.088   4.715 -0.2250 -0.3354  0.2201
13684TIP3    H162467   5.666   5.043   4.713 -0.5095 -0.8883  0.7497
13684TIP3    H262468   5.590   5.152   4.786 -0.9953 -1.8483  1.6909
13685TIP3   OH262469   3.820   6.528   4.240 -0.4915 -0.1293  0.2239
13685TIP3    H162470   3.794   6.584   4.313  1.2089 -0.1940  0.8843
13685TIP3    H262471   3.737   6.495   4.205 -1.3938  1.0222  1.2191
13686TIP3   OH262472   3.566   5.908   2.504 -0.2462 -0.6565  0.5557
13686TIP3    H162473   3.566   5.813   2.499 -2.6858 -0.6801  0.4328
13686TIP3    H262474   3.493   5.936   2.449 -0.6799  1.1790  1.9839
13687TIP3   OH262475   1.086   6.140  15.485 -0.5398  0.2699 -0.4815
13687TIP3    H162476   1.181   6.154  15.490 -0.6905  0.5529  2.5745
13687TIP3    H262477   1.077   6.053  15.447  1.0394 -0.6550  1.1788
13688TIP3   OH262478   4.556   3.042   2.586 -0.0780  0.1041 -0.2326
13688TIP3    H162479   4.477   3.095   2.577  0.9039  2.0531  2.1431
13688TIP3    H262480   4.560   2.992   2.504 -2.4126  1.8015 -1.4558
13689TIP3   OH262481   5.073   5.830   1.529  0.4386  0.1721 -0.2581
13689TIP3    H162482   5.139   5.807   1.464 -1.9877  0.5912 -2.9855
13689TIP3    H262483   5.000   5.770   1.513 -0.1942  0.2254  2.1497
13690TIP3   OH262484   6.144   3.192  10.825  0.7918  0.6732 -0.0203
13690TIP3    H162485   6.141   3.155  10.737  1.6424  0.4270  0.0499
13690TIP3    H262486   6.055   3.221  10.842  0.4607  0.0606 -0.6829
13691TIP3   OH262487   0.651   4.768   5.547 -0.1934 -0.5520  0.6038
13691TIP3    H162488   0.619   4.844   5.596 -3.3967 -1.3991 -0.0033
13691TIP3    H262489   0.699   4.716   5.612  0.6868  1.2102  1.3833
13692TIP3   OH262490   6.676   0.885   4.420  0.2010  0.6718  0.9843
13692TIP3    H162491   6.655   0.966   4.374 -0.7401 -0.2470 -0.2277
13692TIP3    H262492   6.623   0.889   4.500 -0.4278  0.8930  0.5631
13693TIP3   OH262493   4.152   4.708   4.690  0.0303 -0.4437 -0.2720
13693TIP3    H162494   4.187   4.780   4.742  1.7213 -0.2050 -1.6912
13693TIP3    H262495   4.150   4.741   4.601 -0.1516 -1.7978 -0.7885
13694TIP3   OH262496   6.711   5.504   4.376 -0.2676  0.5261 -0.0219
13694TIP3    H162497   6.790   5.451   4.376 -0.6250 -0.0062  0.2174
13694TIP3    H262498   6.742   5.593   4.357  0.1021 -0.0790 -2.4650
13695TIP3   OH262499   5.478   4.416  14.948 -0.4053  0.0934  0.2510
13695TIP3    H162500   5.474   4.469  14.868 -2.4518  0.2945  0.4606
13695TIP3    H262501   5.566   4.432  14.982 -0.4510  2.1547 -0.5188
13696TIP3   OH262502   6.490   2.474  14.430  0.2156  0.8926 -0.5378
13696TIP3    H162503   6.489   2.484  14.525  0.2112  0.8787 -0.5368
13696TIP3    H262504   6.431   2.400  14.412  0.6950  0.4954 -0.5014
13697TIP3   OH262505   4.986   2.950  16.603 -0.3129  0.3862  0.4877
13697TIP3    H162506   4.913   2.888  16.605  0.3198 -0.3548  1.3773
13697TIP3    H262507   5.056   2.903  16.557 -0.2353  0.8975  0.0811
13698TIP3   OH262508   0.243   4.663  11.437 -0.0383 -0.4640  0.2021
13698TIP3    H162509   0.161   4.622  11.464  0.0211 -0.4536  0.4000
13698TIP3    H262510   0.240   4.662  11.342 -1.3653  1.7266  0.1934
13699TIP3   OH262511   2.671   1.265  17.013 -0.6015 -1.0666  0.5185
13699TIP3    H162512   2.651   1.357  16.994  1.2714 -0.6246  0.6285
13699TIP3    H262513   2.585   1.222  17.015 -1.4897  0.6552  0.3746
13700TIP3   OH262514   2.539   4.394   3.668  0.5510  0.4466 -0.0414
13700TIP3    H162515   2.524   4.309   3.626  1.5900  0.9758 -1.5264
13700TIP3    H262516   2.571   4.372   3.756  2.3739 -0.7300 -0.9724
13701TIP3   OH262517   5.573   4.332  11.878 -0.3531 -0.2928  0.1439
13701TIP3    H162518   5.613   4.364  11.798  1.8571 -1.0494  0.8911
13701TIP3    H262519   5.617   4.249  11.895  0.5496  0.7273  3.1086
13702TIP3   OH262520   1.998   6.594   2.791  0.1090  0.2916 -0.2754
13702TIP3    H162521   1.916   6.620   2.748  0.8995  0.5283 -1.6743
13702TIP3    H262522   2.014   6.505   2.759 -0.6550 -0.5442  1.5998
13703TIP3   OH262523   2.423   1.042   2.740 -0.0366 -0.1723 -0.1546
13703TIP3    H162524   2.475   1.078   2.667 -0.6752 -2.1562 -1.6332
13703TIP3    H262525   2.383   0.963   2.704 -1.8716 -0.1790  1.8118
13704TIP3   OH262526   2.402   4.098  11.963 -0.0857  0.3171 -0.4438
13704TIP3    H162527   2.403   4.088  11.867 -1.6729  1.3125 -0.5890
13704TIP3    H262528   2.309   4.092  11.987  0.3608 -0.5361  1.1155
13705TIP3   OH262529   2.081   4.001  16.705  0.3981 -0.3718  0.1838
13705TIP3    H162530   2.163   4.009  16.657  0.4042 -2.0580 -0.1324
13705TIP3    H262531   2.108   3.986  16.796  0.4576 -1.3246  0.0142
13706TIP3   OH262532   3.857   6.026   1.783  0.4674  0.1213  1.0995
13706TIP3    H162533   3.873   6.072   1.866  1.7969  0.1187  0.8535
13706TIP3    H262534   3.944   6.015   1.745 -0.1866  0.6372 -0.5807
13707TIP3   OH262535   1.285   1.523  16.008 -0.1366 -0.4765 -0.0733
13707TIP3    H162536   1.211   1.493  15.954  0.1668  0.8522 -1.2458
13707TIP3    H262537   1.321   1.597  15.959  0.2890  0.6040  1.8606
13708TIP3   OH262538   1.157   4.820  14.108 -0.1175  0.5314  0.2127
13708TIP3    H162539   1.181   4.760  14.178 -3.4302  1.1469  1.9914
13708TIP3    H262540   1.166   4.907  14.146  1.2105  1.0430 -1.2113
13709TIP3   OH262541   0.637   0.059   5.930  0.3719 -0.0287  0.1462
13709TIP3    H162542   0.676   0.146   5.925 -0.0679  0.1216 -0.9059
13709TIP3    H262543   0.547   0.071   5.899 -0.1235 -0.5995  1.3308
13710TIP3   OH262544   5.455   3.286  11.069 -0.3788  0.4602  0.3193
13710TIP3    H162545   5.409   3.365  11.041  0.2805  0.6246 -0.2891
13710TIP3    H262546   5.393   3.215  11.052 -0.8143  0.7976  0.4835
13711TIP3   OH262547   6.307   3.727  11.932 -0.2680 -0.3124 -0.3651
13711TIP3    H162548   6.227   3.730  11.880 -0.8001  1.3071  0.5152
13711TIP3    H262549   6.377   3.714  11.868 -1.0182  0.5008 -1.3623
13712TIP3   OH262550   4.229   3.700   3.187 -0.5393 -0.3382 -0.2220
13712TIP3    H162551   4.145   3.689   3.142 -0.2628 -0.0425 -0.8289
13712TIP3    H262552   4.268   3.777   3.144  0.4542 -1.0468 -0.6054
13713TIP3   OH262553   5.146   4.250  12.325 -0.6914  0.3258  0.1330
13713TIP3    H162554   5.205   4.176  12.308 -1.9247 -0.3774 -1.2359
13713TIP3    H262555   5.104   4.230  12.408  1.0710  0.9029  1.1982
13714TIP3   OH262556   4.236   2.342   0.996  0.1393 -0.4455  0.3366
13714TIP3    H162557   4.245   2.418   0.938 -0.1468 -0.0728  0.7732
13714TIP3    H262558   4.147   2.350   1.032 -1.8296 -3.6981 -3.4057
13715TIP3   OH262559   1.173   4.909   3.972 -0.0966  0.2681 -0.5568
13715TIP3    H162560   1.110   4.840   3.995 -0.4287  0.8713  0.3882
13715TIP3    H262561   1.249   4.862   3.938 -0.9804 -0.4815 -1.5298
13716TIP3   OH262562   5.660   0.770   1.891 -0.0916  0.1088  0.0038
13716TIP3    H162563   5.638   0.677   1.888  0.9890 -0.0969 -2.5383
13716TIP3    H262564   5.747   0.773   1.929 -0.0353  0.0686 -0.1226
13717TIP3   OH262565   2.607   2.513  15.510 -0.4512 -0.3373  0.3159
13717TIP3    H162566   2.676   2.542  15.569 -2.8122 -1.0170  3.5888
13717TIP3    H262567   2.566   2.439  15.556 -3.5089  0.2246 -1.3495
13718TIP3   OH262568   0.359   0.744   4.631 -0.2576  0.0536  0.3447
13718TIP3    H162569   0.270   0.768   4.605  0.0718  0.4952 -0.3709
13718TIP3    H262570   0.415   0.811   4.592  0.5570 -1.2438 -0.7427
13719TIP3   OH262571   6.044   4.267  14.623 -0.0743 -0.2666  0.0103
13719TIP3    H162572   6.036   4.201  14.693  1.3620  1.0200  1.4130
13719TIP3    H262573   5.956   4.303  14.615  0.0079  0.5171  2.1443
13720TIP3   OH262574   2.376   4.183   5.986  0.6165 -0.2545 -0.7803
13720TIP3    H162575   2.446   4.188   5.920  0.8959 -0.4795 -0.5068
13720TIP3    H262576   2.378   4.269   6.029  0.5526 -0.1693 -0.9449
13721TIP3   OH262577   0.507   1.243  12.368 -0.1947  0.3560 -0.3727
13721TIP3    H162578   0.476   1.330  12.393 -0.4221  0.7012 -1.8518
13721TIP3    H262579   0.511   1.194  12.451 -0.8631  1.5098  0.3436
13722TIP3   OH262580   4.029   3.182   1.314 -0.6624  0.4262 -0.1298
13722TIP3    H162581   3.937   3.180   1.340 -0.4423  1.1033  0.7170
13722TIP3    H262582   4.027   3.204   1.220 -1.3779 -0.1350 -0.2505
13723TIP3   OH262583   1.500   4.937  14.893 -0.4287 -0.1231 -0.4694
13723TIP3    H162584   1.576   4.995  14.894 -0.4391 -0.1369  0.8357
13723TIP3    H262585   1.522   4.871  14.826  0.9462 -0.4539  0.2892
13724TIP3   OH262586   0.100   0.695  15.172  0.4694  0.4696  0.4783
13724TIP3    H162587   0.076   0.731  15.257 -0.3521  0.7281  0.1386
13724TIP3    H262588   0.058   0.753  15.109  2.6796  1.4601 -0.1544
13725TIP3   OH262589   0.905   1.554   3.945 -0.0920  0.2199 -0.2552
13725TIP3    H162590   0.920   1.628   3.887  1.7261  1.0263  1.1832
13725TIP3    H262591   0.971   1.489   3.920 -1.7598 -1.0008 -1.5959
13726TIP3   OH262592   4.417   2.245  11.591 -0.1169 -0.0964  0.2839
13726TIP3    H162593   4.498   2.248  11.642  0.7308  1.0431 -1.1103
13726TIP3    H262594   4.350   2.220  11.654  1.0987  0.2465  1.7308
13727TIP3   OH262595   2.793   1.817   1.990 -0.2633  0.4714  0.7437
13727TIP3    H162596   2.818   1.738   2.038 -1.2102 -1.0659 -1.2093
13727TIP3    H262597   2.869   1.838   1.935 -0.7276 -0.2676 -0.2028
13728TIP3   OH262598   1.534   0.960  11.878  0.3852  0.2386  0.5851
13728TIP3    H162599   1.606   0.918  11.830  1.9064  1.8743  1.3512
13728TIP3    H262600   1.506   0.894  11.941  0.8585 -0.6132 -0.0694
13729TIP3   OH262601   2.919   2.237  11.958  0.0805 -0.0800  0.2610
13729TIP3    H162602   2.978   2.171  11.922 -1.1186 -0.6948 -0.6108
13729TIP3    H262603   2.912   2.215  12.051 -2.8861 -3.2329 -0.6044
13730TIP3   OH262604   5.275   0.629   5.861 -0.4337 -0.1607  0.2699
13730TIP3    H162605   5.300   0.566   5.929 -1.9667 -0.4305  0.6039
13730TIP3    H262606   5.226   0.578   5.797 -2.0829  0.7577  0.7705
13731TIP3   OH262607   4.879   1.349   0.095  0.4296 -0.0901 -0.2654
13731TIP3    H162608   4.788   1.336   0.067  0.4515 -1.8944  0.4165
13731TIP3    H262609   4.932   1.312   0.024  0.6139  0.1847 -0.2730
13732TIP3   OH262610   0.989   2.698  13.319  0.4648 -0.2598  0.4265
13732TIP3    H162611   0.911   2.691  13.375  0.9653 -1.8546  0.9399
13732TIP3    H262612   1.058   2.730  13.377 -0.2144  2.9177 -0.4353
13733TIP3   OH262613   3.451   3.118  14.458 -0.2167 -0.3118  0.3067
13733TIP3    H162614   3.434   3.059  14.532 -0.3049  1.2332  1.5550
13733TIP3    H262615   3.384   3.186  14.466  0.2864  0.3172 -0.7133
13734TIP3   OH262616   2.403   2.433   3.247 -0.0325 -0.5762  0.6647
13734TIP3    H162617   2.454   2.355   3.230  0.4171 -0.6022  2.0722
13734TIP3    H262618   2.403   2.441   3.342  2.5640  2.8847  0.4547
13735TIP3   OH262619   3.446   3.452  12.241 -0.5308  1.0238  0.2351
13735TIP3    H162620   3.538   3.454  12.216 -0.5190  0.9888  0.2784
13735TIP3    H262621   3.424   3.359  12.248 -0.2699  1.0416  1.3512
13736TIP3   OH262622   5.879   1.650   0.088  0.2212 -0.2615  0.0537
13736TIP3    H162623   5.915   1.735   0.116  1.8591 -1.4952  1.8087
13736TIP3    H262624   5.819   1.672   0.017  0.7886  2.3564  0.3283
13737TIP3   OH262625   4.633   3.713   3.765  0.2885  0.1589  0.4737
13737TIP3    H162626   4.618   3.644   3.700  2.2103  0.4814 -0.3452
13737TIP3    H262627   4.585   3.789   3.732 -4.7374 -1.6340  3.0943
13738TIP3   OH262628   0.293   2.911  16.773 -0.6851  0.2667  0.0867
13738TIP3    H162629   0.206   2.952  16.770 -0.3350  1.0693  0.6198
13738TIP3    H262630   0.336   2.940  16.692 -0.2429  1.4119  0.7213
13739TIP3   OH262631   5.460   0.752   3.731 -0.9708 -0.2598 -0.3523
13739TIP3    H162632   5.471   0.774   3.824 -0.1853 -1.7914 -0.0674
13739TIP3    H262633   5.474   0.657   3.727  0.8945  0.0426 -2.3001
13740TIP3   OH262634   2.339   3.408  14.528 -0.0706  0.4087  0.1816
13740TIP3    H162635   2.293   3.331  14.494 -0.5428  0.8165 -0.1050
13740TIP3    H262636   2.278   3.448  14.589  0.4808  0.1134  0.9373
13741TIP3   OH262637   3.747   4.309  13.023  0.2635 -0.4516  0.1633
13741TIP3    H162638   3.689   4.383  13.006  0.4841 -0.2108  0.4589
13741TIP3    H262639   3.774   4.278  12.936  0.1955 -0.1655  0.0432
13742TIP3   OH262640   6.456   2.763   4.585  0.5271 -0.5154 -0.1038
13742TIP3    H162641   6.516   2.727   4.649 -0.8083 -2.3576  0.1797
13742TIP3    H262642   6.461   2.702   4.511 -1.3329 -0.9760  0.1294
13743TIP3   OH262643   5.697   5.560  14.175 -0.4183 -0.2406 -0.3469
13743TIP3    H162644   5.753   5.586  14.102  0.3021 -2.5278 -0.6679
13743TIP3    H262645   5.643   5.637  14.194  0.0642  0.6960 -2.6548
13744TIP3   OH262646   3.054   0.809   6.110  1.0155 -0.1956 -0.2428
13744TIP3    H162647   3.106   0.888   6.126  3.6063 -1.2989 -2.7630
13744TIP3    H262648   3.054   0.763   6.194  4.1650 -0.1552 -0.1653
13745TIP3   OH262649   0.557   4.859  11.993 -1.0094  0.5370  0.0566
13745TIP3    H162650   0.607   4.927  11.949  0.5686 -0.7861 -0.2338
13745TIP3    H262651   0.547   4.790  11.927 -2.7011  0.5283  0.3016
13746TIP3   OH262652   0.469   1.945  14.020  0.0354 -0.2403 -0.0956
13746TIP3    H162653   0.502   1.914  13.936  0.8003  1.6529 -0.5174
13746TIP3    H262654   0.374   1.947  14.009  0.1893  1.0999 -1.3255
13747TIP3   OH262655   6.615   4.480  12.753 -0.0470  0.2241  0.6016
13747TIP3    H162656   6.554   4.409  12.730  0.6660 -0.4899  0.9067
13747TIP3    H262657   6.609   4.488  12.848  0.5078  0.0012  0.6548
13748TIP3   OH262658   3.252   4.783  15.500  0.0440  0.3474  0.3845
13748TIP3    H162659   3.323   4.780  15.435  1.9870 -1.1783  2.4753
13748TIP3    H262660   3.190   4.847  15.465  2.1291  1.2473 -1.8391
13749TIP3   OH262661   6.401   5.870   1.154  0.2798  0.0831  0.1218
13749TIP3    H162662   6.428   5.808   1.221  2.0056 -0.3844 -0.9946
13749TIP3    H262663   6.481   5.914   1.126 -0.2126 -0.5447 -2.4478
13750TIP3   OH262664   2.859   1.031  12.411  0.4422  0.3683  0.3825
13750TIP3    H162665   2.773   0.989  12.401  0.7170  0.3809 -2.4446
13750TIP3    H262666   2.911   0.969  12.462 -0.3993 -0.8808 -0.2675
13751TIP3   OH262667   3.200   5.852  16.953  0.3356  0.1503  0.1456
13751TIP3    H162668   3.210   5.757  16.959  0.5672  0.2033  0.6516
13751TIP3    H262669   3.209   5.883  17.044 -0.3622  0.5948  0.0636
13752TIP3   OH262670   6.336   1.497  11.457 -0.1544 -0.7175  0.0001
13752TIP3    H162671   6.260   1.488  11.514 -1.3255  1.5692 -1.1496
13752TIP3    H262672   6.399   1.548  11.509 -0.0968 -1.0881  0.2947
13753TIP3   OH262673   5.993   0.752  14.927  0.6324  0.2115  0.0664
13753TIP3    H162674   5.975   0.757  15.021  1.3222  1.5382  0.1472
13753TIP3    H262675   5.908   0.764  14.885  0.4808  0.7221  0.5174
13754TIP3   OH262676   0.292   6.291  15.138 -0.0025  0.4302  0.4125
13754TIP3    H162677   0.268   6.276  15.047  0.9365  1.1980  0.0271
13754TIP3    H262678   0.214   6.267  15.188  0.3848 -2.7073 -0.3597
13755TIP3   OH262679   1.027   5.432   1.307 -0.6432 -0.2857 -0.2430
13755TIP3    H162680   1.036   5.521   1.273 -0.5537 -0.6374 -1.1380
13755TIP3    H262681   1.107   5.417   1.357 -2.4400  1.6504  3.4329
13756TIP3   OH262682   2.427   2.259  16.875 -0.1725  0.3454 -0.0329
13756TIP3    H162683   2.521   2.261  16.893 -0.2876 -0.6423  0.7364
13756TIP3    H262684   2.417   2.194  16.806 -0.1618  1.3587 -1.0030
13757TIP3   OH262685   0.349   6.354  12.378 -0.0552 -0.5450 -0.0249
13757TIP3    H162686   0.299   6.406  12.315 -1.3543 -0.3887  1.1003
13757TIP3    H262687   0.433   6.338  12.335 -0.2467  1.0872 -1.0597
13758TIP3   OH262688   1.540   5.059  12.288  0.1162 -0.7280 -0.1164
13758TIP3    H162689   1.497   5.020  12.364 -2.4152  1.5684 -0.2923
13758TIP3    H262690   1.533   4.992  12.219  0.5539 -1.9840  1.0336
13759TIP3   OH262691   4.685   5.712   0.568 -0.4022  0.0173  0.1250
13759TIP3    H162692   4.594   5.733   0.589 -0.2369  0.3235  0.5553
13759TIP3    H262693   4.681   5.627   0.524 -0.8222 -0.3058  0.7847
13760TIP3   OH262694   2.657   6.681   6.121 -0.1164  0.1210  0.0297
13760TIP3    H162695   2.585   6.664   6.182 -0.3114  1.6679  0.2633
13760TIP3    H262696   2.736   6.672   6.174 -0.1923 -0.3654  0.0638
13761TIP3   OH262697   1.416   5.052   0.228  0.0994 -0.1466 -0.6717
13761TIP3    H162698   1.345   5.007   0.182 -0.8283  1.1462 -0.5265
13761TIP3    H262699   1.495   5.004   0.203 -0.3460  0.6893 -3.8431
13762TIP3   OH262700   0.011   3.999   2.533 -0.6756 -0.0178  0.1061
13762TIP3    H162701   0.018   3.972   2.442 -0.9391  1.6339 -0.4184
13762TIP3    H262702  -0.043   4.078   2.531 -1.8888 -0.7481  1.8416
13763TIP3   OH262703   1.612   1.616   0.926  0.1429 -0.2523 -0.3021
13763TIP3    H162704   1.584   1.580   1.010 -0.2066 -0.6801 -0.6017
13763TIP3    H262705   1.677   1.554   0.893 -0.0264 -0.3028 -0.5408
13764TIP3   OH262706   5.409   1.492   3.130  0.0163  0.0685 -0.3895
13764TIP3    H162707   5.355   1.479   3.051  0.0437 -1.3950 -0.1972
13764TIP3    H262708   5.471   1.560   3.106 -0.4974  0.2109 -1.3666
13765TIP3   OH262709   4.437   5.955  12.044 -0.0329 -0.2546  0.0361
13765TIP3    H162710   4.492   6.001  11.981  0.3527 -2.4204 -1.2560
13765TIP3    H262711   4.465   5.989  12.129  2.4616 -0.4447 -0.6762
13766TIP3   OH262712   2.354   2.654   4.713 -0.2592  0.1335 -0.5221
13766TIP3    H162713   2.356   2.730   4.655  0.5105  0.4427 -0.0913
13766TIP3    H262714   2.377   2.689   4.799 -0.8613 -0.4188 -0.1315
13767TIP3   OH262715   2.695   2.325  16.881  0.2994 -0.7868 -0.3085
13767TIP3    H162716   2.718   2.291  16.967 -1.6754  0.5248  0.7707
13767TIP3    H262717   2.717   2.418  16.885 -0.1098 -0.6487 -1.1055
13768TIP3   OH262718   0.074   3.047  14.827 -0.4442 -0.4358  0.0920
13768TIP3    H162719   0.059   3.139  14.847 -0.9490 -0.1300 -1.6173
13768TIP3    H262720   0.167   3.033  14.846 -0.6311  0.1041  1.4781
13769TIP3   OH262721   5.512   3.100  14.309 -0.4574  0.3985 -0.2460
13769TIP3    H162722   5.456   3.134  14.379 -0.1673 -0.8154  0.5924
13769TIP3    H262723   5.599   3.136  14.328 -0.6203  1.0449 -0.6842
13770TIP3   OH262724   6.144   4.897   3.598 -0.4212 -0.5157  0.1391
13770TIP3    H162725   6.122   4.965   3.533  0.1110 -0.0779  0.4162
13770TIP3    H262726   6.074   4.903   3.663 -0.5654 -0.4730 -0.0179
13771TIP3   OH262727   3.866   2.487   3.887  0.0304 -0.1812 -0.1186
13771TIP3    H162728   3.847   2.511   3.797  1.4840  2.8426  0.2908
13771TIP3    H262729   3.958   2.511   3.899 -0.2429 -0.1921  2.2417
13772TIP3   OH262730   1.956   4.108  15.484 -0.1662  0.8019 -0.0671
13772TIP3    H162731   1.891   4.125  15.552 -0.7240  1.2298 -0.7145
13772TIP3    H262732   2.040   4.127  15.527 -0.4042 -0.5816  1.0202
13773TIP3   OH262733   1.996   0.143   3.086  0.6281 -0.1295  0.2898
13773TIP3    H162734   1.960   0.148   3.174  1.3780 -1.4228  0.6798
13773TIP3    H262735   1.950   0.213   3.038 -1.4831 -0.9151  1.0820
13774TIP3   OH262736   0.042   0.689   5.575 -0.1899 -0.0501  0.0468
13774TIP3    H162737  -0.024   0.619   5.566 -0.2457  0.1956 -1.7499
13774TIP3    H262738   0.027   0.745   5.498  1.2865  0.7173  0.3102
13775TIP3   OH262739   2.752   2.467   4.388  0.2441  0.2817 -0.2515
13775TIP3    H162740   2.718   2.378   4.377 -0.4007  0.6112 -0.9443
13775TIP3    H262741   2.792   2.466   4.476  2.2930 -1.3353 -1.1466
13776TIP3   OH262742   1.270   4.862   5.749 -0.3934  0.4063  0.4719
13776TIP3    H162743   1.291   4.799   5.680 -1.7480  2.4429 -1.8570
13776TIP3    H262744   1.355   4.890   5.782  0.2658 -0.7385 -0.2182
13777TIP3   OH262745   6.223   5.216   1.215 -0.6644 -0.2477 -0.2333
13777TIP3    H162746   6.266   5.188   1.134 -0.4127 -0.2899 -0.0860
13777TIP3    H262747   6.227   5.311   1.213  1.0556 -0.2869  0.6480
13778TIP3   OH262748   1.995   2.286  14.558  0.3585  0.1079  0.4053
13778TIP3    H162749   2.014   2.265  14.649  3.1058  1.3519  0.1764
13778TIP3    H262750   1.961   2.375  14.559  1.9305  0.7290  0.0935
13779TIP3   OH262751   4.537   5.538   2.707 -0.1383  0.1435 -0.5921
13779TIP3    H162752   4.547   5.450   2.671  0.2115 -0.3718  0.7400
13779TIP3    H262753   4.475   5.528   2.779  1.9328  0.4427  1.3204
13780TIP3   OH262754   2.228   1.339   2.608 -0.2433 -0.4017 -0.6043
13780TIP3    H162755   2.267   1.386   2.535 -1.1477  0.9840 -0.2101
13780TIP3    H262756   2.134   1.340   2.590 -0.4494 -0.2818  0.4449
13781TIP3   OH262757   5.683   6.464  14.209  0.2102  0.1349  0.0018
13781TIP3    H162758   5.738   6.491  14.137 -0.1701 -2.4867 -1.3483
13781TIP3    H262759   5.684   6.538  14.270  3.0126  1.1685 -1.2284
13782TIP3   OH262760   6.026   4.998  12.935  0.2981  0.1603  0.1251
13782TIP3    H162761   5.934   4.977  12.952  0.2275  0.8891  0.6482
13782TIP3    H262762   6.044   4.957  12.850 -1.0893  1.7145 -0.9516
13783TIP3   OH262763   5.331   4.947  15.997 -0.0773  0.6377 -0.3470
13783TIP3    H162764   5.279   5.024  16.024 -2.5846  0.0734 -3.2676
13783TIP3    H262765   5.360   4.968  15.909 -0.3447 -1.5365 -0.9727
13784TIP3   OH262766   1.974   6.120   0.359 -0.1033  0.2542  0.0546
13784TIP3    H162767   2.047   6.170   0.395 -0.9063 -0.0150  2.1040
13784TIP3    H262768   2.001   6.099   0.270  2.7719 -0.7700  1.1236
13785TIP3   OH262769   2.670   6.544  17.191  0.0433 -0.0523  0.6790
13785TIP3    H162770   2.627   6.469  17.149  1.6645  0.5495 -2.2107
13785TIP3    H262771   2.617   6.562  17.268 -2.3631 -2.0165 -0.4393
13786TIP3   OH262772   3.280   0.173  16.400  0.5195 -0.3921  0.1281
13786TIP3    H162773   3.311   0.262  16.417 -0.0988 -0.2573  0.5786
13786TIP3    H262774   3.359   0.119  16.401  0.8784  0.1312 -0.0041
13787TIP3   OH262775   3.459   6.543  12.627 -0.3262  0.4163 -0.5936
13787TIP3    H162776   3.392   6.570  12.690  0.2934  1.0644 -0.2125
13787TIP3    H262777   3.436   6.452  12.606  0.9868 -0.7510  2.6312
13788TIP3   OH262778   4.833   3.084   5.718 -0.3277  0.0669 -0.0660
13788TIP3    H162779   4.807   3.128   5.799 -0.2967  1.3292 -0.7317
13788TIP3    H262780   4.773   3.118   5.652  1.1136  0.8092 -1.0286
13789TIP3   OH262781   2.359   5.268  15.924 -0.3353 -0.3486  0.6539
13789TIP3    H162782   2.356   5.316  15.841  0.1225 -1.9693 -0.3183
13789TIP3    H262783   2.442   5.294  15.964  0.5259 -1.3327 -0.4855
13790TIP3   OH262784   6.666   4.491  13.667 -0.4412 -0.1072 -0.1103
13790TIP3    H162785   6.604   4.540  13.613 -0.9350  0.3985  0.8988
13790TIP3    H262786   6.752   4.528  13.646 -0.5332 -0.4932 -1.1709
13791TIP3   OH262787   3.194   5.025   3.163  0.1143 -0.2375 -0.7563
13791TIP3    H162788   3.155   4.942   3.135 -0.1302 -0.1865 -0.5713
13791TIP3    H262789   3.255   5.048   3.093  0.2235 -0.6015 -0.7828
13792TIP3   OH262790   5.598   1.316  13.487 -0.2432 -0.2315 -0.2826
13792TIP3    H162791   5.555   1.398  13.508 -2.1513 -1.0894 -0.7217
13792TIP3    H262792   5.602   1.314  13.392 -0.3191 -0.6885 -0.2805
13793TIP3   OH262793   0.108   6.132  11.191  0.0812 -0.3467  0.3967
13793TIP3    H162794   0.083   6.041  11.177 -2.0587  0.1236  0.8506
13793TIP3    H262795   0.117   6.168  11.103 -0.8038 -0.5792  0.2011
13794TIP3   OH262796   1.939   4.547   3.668 -0.3186  0.0480  0.2404
13794TIP3    H162797   1.943   4.620   3.607  2.0477  0.5033  0.9008
13794TIP3    H262798   2.028   4.512   3.671 -1.0056 -1.7194  1.3205
13795TIP3   OH262799   6.509   3.429  13.970  0.1089  0.0496 -0.3300
13795TIP3    H162800   6.603   3.445  13.962 -0.1848  1.3404 -1.4153
13795TIP3    H262801   6.499   3.335  13.953  1.0196  0.2469 -2.0689
13796TIP3   OH262802   2.579   3.777   1.148 -0.0643 -0.2301 -0.0172
13796TIP3    H162803   2.501   3.827   1.126 -0.1143 -0.8864 -1.3702
13796TIP3    H262804   2.640   3.842   1.183  0.2614  0.9836 -2.7358
13797TIP3   OH262805   2.838   1.843   2.618 -0.0493  1.1794 -0.2552
13797TIP3    H162806   2.821   1.786   2.693  1.1656  0.0985 -0.7736
13797TIP3    H262807   2.873   1.924   2.656 -0.8972  1.2308  0.4273
13798TIP3   OH262808   0.933   5.211  10.405 -0.0496  0.3649 -1.1334
13798TIP3    H162809   0.879   5.226  10.483 -0.1142  1.2528 -1.3452
13798TIP3    H262810   0.977   5.294  10.390  1.6947 -0.4700 -0.7394
13799TIP3   OH262811   5.331   1.684   3.674  0.3954  0.0329  0.0450
13799TIP3    H162812   5.401   1.662   3.613 -0.0376 -2.2309  0.3089
13799TIP3    H262813   5.326   1.779   3.673  1.8240  0.0992 -1.8224
13800TIP3   OH262814   5.009   6.132  16.194 -0.2387 -0.1947  0.6718
13800TIP3    H162815   5.054   6.163  16.116 -1.0736  0.7432  0.5553
13800TIP3    H262816   5.078   6.120  16.259  0.7134 -2.7215 -0.7313
13801TIP3   OH262817   5.538   2.456   6.438  0.4118 -0.2914  0.3126
13801TIP3    H162818   5.588   2.415   6.367 -0.1201  0.6390 -0.6225
13801TIP3    H262819   5.469   2.394   6.458  1.3968 -1.1900  0.9969
13802TIP3   OH262820   3.717   0.296   4.758 -0.0206  0.7321  0.3349
13802TIP3    H162821   3.806   0.262   4.767  0.1437  1.1657  0.3895
13802TIP3    H262822   3.669   0.258   4.831 -0.4543 -1.3073 -0.9928
13803TIP3   OH262823   6.715   2.060   0.863 -0.0565  0.0111 -0.6497
13803TIP3    H162824   6.664   2.022   0.935  0.8745  0.3644  0.1984
13803TIP3    H262825   6.797   2.011   0.863  0.7673  1.3841 -0.1697
13804TIP3   OH262826   0.425   6.031  16.491 -0.0444 -0.1631 -0.1830
13804TIP3    H162827   0.347   6.085  16.491 -0.0594 -0.1867 -0.6660
13804TIP3    H262828   0.480   6.067  16.421  1.6124  1.6289  1.9746
13805TIP3   OH262829   0.717   0.523   6.013 -0.0724  0.6964  0.6854
13805TIP3    H162830   0.688   0.474   6.090 -0.3594  0.1073  0.2111
13805TIP3    H262831   0.709   0.615   6.038  1.4714  0.5153  1.9594
13806TIP3   OH262832   6.035   0.367  16.540 -0.1734  0.5241 -0.1722
13806TIP3    H162833   5.953   0.405  16.509 -1.2029  0.6665  2.6230
13806TIP3    H262834   6.090   0.442  16.563 -0.2271  0.3959  0.3788
13807TIP3   OH262835   6.764   5.360   3.732 -0.5818  0.3559 -0.6992
13807TIP3    H162836   6.747   5.450   3.705 -0.6806  0.3752 -0.5729
13807TIP3    H262837   6.680   5.328   3.765 -1.0323 -0.4293 -2.5715
13808TIP3   OH262838   5.170   3.086   0.812  0.1209 -0.7523  0.4433
13808TIP3    H162839   5.209   3.136   0.741 -0.7583  0.4797  0.8092
13808TIP3    H262840   5.110   3.025   0.768  0.9042 -1.2155  0.0205
13809TIP3   OH262841   0.149   0.168   2.415 -0.1854  0.2862  0.8043
13809TIP3    H162842   0.158   0.263   2.409 -1.2200  0.3017 -0.7769
13809TIP3    H262843   0.238   0.135   2.402 -0.0744  0.9816 -0.2650
13810TIP3   OH262844   5.982   0.553   0.439 -0.4720 -0.0673  0.0354
13810TIP3    H162845   6.050   0.488   0.426 -0.3574  0.1147 -0.2782
13810TIP3    H262846   6.019   0.635   0.405 -0.8267  0.0415 -0.0971
13811TIP3   OH262847   3.670   6.403   0.643  0.4398 -0.3782  0.5102
13811TIP3    H162848   3.671   6.470   0.711  0.6563 -1.0866  1.2079
13811TIP3    H262849   3.642   6.449   0.564  0.4075  0.4922  1.0293
13812TIP3   OH262850   4.582   1.795   5.280  0.1861  0.4763 -0.6040
13812TIP3    H162851   4.548   1.740   5.209 -1.1351 -0.1674  0.4982
13812TIP3    H262852   4.516   1.863   5.292  0.7594  1.0135 -0.4885
13813TIP3   OH262853   1.955   6.491   4.002  0.1452 -0.1684  0.0265
13813TIP3    H162854   1.913   6.483   3.916  1.3199  1.9155 -0.7760
13813TIP3    H262855   1.973   6.401   4.029 -1.9961 -0.9303 -1.0268
13814TIP3   OH262856   5.816   1.292  11.661  0.1613 -0.0392 -0.3544
13814TIP3    H162857   5.902   1.255  11.642  0.7842  1.2702 -0.1592
13814TIP3    H262858   5.830   1.352  11.734 -1.1260 -0.6176  0.3876
13815TIP3   OH262859   3.273   3.551   4.080 -0.0001  0.9505  0.7213
13815TIP3    H162860   3.265   3.458   4.102  1.6113  0.8356  0.8448
13815TIP3    H262861   3.292   3.594   4.163  2.8936  0.9161  0.1319
13816TIP3   OH262862   2.873   2.123  14.034 -0.0842  0.2445 -0.3305
13816TIP3    H162863   2.889   2.111  14.128 -1.3421  1.6563  0.0741
13816TIP3    H262864   2.788   2.081  14.019 -0.0281  0.2890 -0.7792
13817TIP3   OH262865   2.203   3.593  15.815  0.2364 -0.1680  0.3713
13817TIP3    H162866   2.159   3.635  15.889 -0.2640  0.5670 -0.3347
13817TIP3    H262867   2.170   3.503  15.816  1.4386 -0.6123  1.9882
13818TIP3   OH262868   0.583   2.314  16.104 -0.6132  0.1252  0.4142
13818TIP3    H162869   0.553   2.286  16.018 -0.4737 -0.5009  0.5609
13818TIP3    H262870   0.638   2.391  16.087  0.2042 -0.5733 -0.1494
13819TIP3   OH262871   5.028   1.342   1.387 -0.7902 -0.0105  0.5313
13819TIP3    H162872   5.117   1.357   1.420 -0.7617  1.3145 -0.1293
13819TIP3    H262873   5.041   1.291   1.306 -0.4937  2.0057 -0.7123
13820TIP3   OH262874   5.029   6.612   1.481  0.8176  0.4968 -0.0720
13820TIP3    H162875   5.105   6.555   1.495 -0.1602 -0.5229  1.2451
13820TIP3    H262876   5.054   6.695   1.521  1.1522  0.1006  0.5511
13821TIP3   OH262877   5.586   5.774   1.921  0.2529 -0.2541 -0.2740
13821TIP3    H162878   5.640   5.759   1.843 -0.1745 -1.3085 -0.3784
13821TIP3    H262879   5.622   5.853   1.960 -0.0608  0.7815 -2.0171
13822TIP3   OH262880   6.725   6.704  13.915 -0.4965 -0.0455 -0.4409
13822TIP3    H162881   6.745   6.614  13.940  2.7042  0.7831  0.2079
13822TIP3    H262882   6.745   6.755  13.993  2.4250  1.7548 -2.2908
13823TIP3   OH262883   1.911   5.750  10.741 -0.1033  0.4180 -0.5619
13823TIP3    H162884   1.962   5.756  10.660  1.5813 -0.0017  0.4387
13823TIP3    H262885   1.865   5.667  10.734 -0.9071  0.9255 -1.5973
13824TIP3   OH262886   4.690   4.742   4.381  0.2979 -0.2313 -0.1164
13824TIP3    H162887   4.728   4.712   4.299  0.3407 -0.2628 -0.0853
13824TIP3    H262888   4.638   4.669   4.412 -1.5547  0.5869 -1.2487
13825TIP3   OH262889   1.837   3.812  14.406  0.2166 -0.0525 -0.5732
13825TIP3    H162890   1.837   3.907  14.414  0.1581  0.0288 -1.5165
13825TIP3    H262891   1.908   3.792  14.346  0.6178 -0.6519  0.0906
13826TIP3   OH262892   5.521   5.275  14.591  0.2085  0.0499  0.6207
13826TIP3    H162893   5.608   5.261  14.629  0.2288 -2.5348 -0.2423
13826TIP3    H262894   5.537   5.302  14.501  0.1293  1.1396  0.9340
13827TIP3   OH262895   3.092   4.543   0.773  0.3875  0.9084  0.4584
13827TIP3    H162896   3.123   4.556   0.863  0.2193  0.4060  0.5884
13827TIP3    H262897   2.997   4.539   0.780  0.4401 -0.7896  0.4863
13828TIP3   OH262898   6.036   6.728   5.976 -0.0876  0.0331  0.5497
13828TIP3    H162899   6.056   6.726   6.070 -1.2644  0.7314  0.8235
13828TIP3    H262900   5.952   6.775   5.970  0.6645  1.2480 -0.9556
13829TIP3   OH262901   2.746   5.670  12.799  0.5469  0.4932 -0.4910
13829TIP3    H162902   2.695   5.746  12.773 -0.4107 -0.3357 -1.1191
13829TIP3    H262903   2.696   5.595  12.765 -0.2392 -0.5978  2.8752
13830TIP3   OH262904   6.684   3.708  13.891  0.6158 -0.6124 -0.0514
13830TIP3    H162905   6.592   3.722  13.911  0.7135 -0.0563  0.0102
13830TIP3    H262906   6.710   3.636  13.948  1.0258  1.2578  2.1922
13831TIP3   OH262907   0.017   4.762   5.949  0.1886  0.0372  0.0837
13831TIP3    H162908   0.019   4.723   6.037 -0.6700  0.7210  0.4182
13831TIP3    H262909   0.063   4.699   5.894 -1.8045 -1.8174  0.4691
13832TIP3   OH262910   1.661   4.876  16.086  0.5101 -0.1412  0.1982
13832TIP3    H162911   1.727   4.864  16.018  0.8833 -0.7463  0.6620
13832TIP3    H262912   1.711   4.902  16.163  0.2416 -0.9934  0.6542
13833TIP3   OH262913   6.506   5.810  17.085  0.1936 -0.2534 -0.0867
13833TIP3    H162914   6.429   5.866  17.081  0.3117 -0.1042 -0.2775
13833TIP3    H262915   6.491   5.755  17.162  0.4173  0.5404  0.5356
13834TIP3   OH262916   3.795   1.439   0.525 -0.0314  0.0475 -0.7085
13834TIP3    H162917   3.778   1.387   0.446 -0.8989  0.2790 -0.6741
13834TIP3    H262918   3.877   1.402   0.560  0.2316 -0.2107 -1.5814
13835TIP3   OH262919   6.251   5.712   3.230 -0.3239 -0.8816 -0.2943
13835TIP3    H162920   6.237   5.650   3.159  3.5713 -1.8713 -0.2592
13835TIP3    H262921   6.233   5.662   3.310  0.2279 -1.1902 -0.3667
13836TIP3   OH262922   3.710   4.105   3.952  0.0790  0.2739 -0.4400
13836TIP3    H162923   3.735   4.022   3.992 -0.6470  0.9274  1.4287
13836TIP3    H262924   3.618   4.093   3.928 -0.0972  0.6203  0.0601
13837TIP3   OH262925   4.042   0.376   0.940 -0.5144 -0.3576 -0.9475
13837TIP3    H162926   3.973   0.326   0.896 -0.0054 -0.5881 -1.4993
13837TIP3    H262927   4.037   0.348   1.031 -1.2258 -0.2842 -0.9651
13838TIP3   OH262928   5.769   4.660  16.110  0.6217 -0.3373 -0.3843
13838TIP3    H162929   5.679   4.692  16.096 -0.8511 -2.9855  2.4568
13838TIP3    H262930   5.802   4.712  16.183  0.3269 -1.2666  0.4291
13839TIP3   OH262931   0.163   6.535  11.333  1.1182  0.6386  0.5416
13839TIP3    H162932   0.220   6.461  11.353  1.8638  1.2902  0.9049
13839TIP3    H262933   0.203   6.577  11.257  0.6316  0.5921  0.2571
13840TIP3   OH262934   0.520   6.002  12.817 -0.5153 -0.1122  0.3333
13840TIP3    H162935   0.461   6.049  12.757 -0.2196 -0.2473 -0.0637
13840TIP3    H262936   0.607   6.017  12.781 -0.2922  0.2007  1.0000
13841TIP3   OH262937   0.429   5.448  14.863  0.0176 -0.4826  0.7006
13841TIP3    H162938   0.339   5.418  14.874 -0.4158  0.6979  0.4947
13841TIP3    H262939   0.473   5.377  14.817 -1.4527 -0.0427 -1.4496
13842TIP3   OH262940   4.646   5.505   3.551  0.1828 -0.0867  0.1726
13842TIP3    H162941   4.566   5.537   3.593 -1.2965 -0.5257 -2.2474
13842TIP3    H262942   4.635   5.526   3.458  1.1934 -3.4588 -0.7923
13843TIP3   OH262943   1.026   5.888  14.021 -0.8620 -0.0882  0.6063
13843TIP3    H162944   1.015   5.968  13.970 -0.6903 -0.9829 -0.8593
13843TIP3    H262945   1.120   5.873  14.024 -0.9974 -1.5305 -1.2166
13844TIP3   OH262946   3.600   4.960   1.498 -0.4569  0.2370 -0.4038
13844TIP3    H162947   3.555   5.042   1.519  1.3903  0.8788  1.1321
13844TIP3    H262948   3.677   4.987   1.448  1.0771 -0.3562  1.5446
13845TIP3   OH262949   5.742   3.278   3.709  0.2415 -0.0248 -0.1848
13845TIP3    H162950   5.686   3.209   3.744 -0.0812 -0.1873 -1.0048
13845TIP3    H262951   5.821   3.233   3.680 -0.2681 -0.1673 -1.3945
13846TIP3   OH262952   2.545   5.576   6.590  0.5797 -0.0719  0.0350
13846TIP3    H162953   2.582   5.487   6.591  0.9797  0.0940  0.9313
13846TIP3    H262954   2.567   5.610   6.504  0.0108 -1.0184 -0.4883
13847TIP3   OH262955   5.134   5.631   1.874  0.0470  0.1327  0.5288
13847TIP3    H162956   5.097   5.714   1.843  0.0929  0.1038  0.3973
13847TIP3    H262957   5.219   5.625   1.832  0.3168  0.3286  1.0441
13848TIP3   OH262958   4.485   4.676   3.062  0.0146  0.2585  0.2286
13848TIP3    H162959   4.418   4.711   3.003  0.2238  1.8404  0.9042
13848TIP3    H262960   4.562   4.663   3.007 -0.7945 -1.4730 -0.5311
13849TIP3   OH262961   5.874   6.105   1.188 -0.3132 -0.5648 -0.1375
13849TIP3    H162962   5.874   6.177   1.251 -2.6967 -0.6064 -0.0580
13849TIP3    H262963   5.865   6.148   1.103  2.2575 -0.5522 -0.4524
13850TIP3   OH262964   0.924   5.559   1.868  0.3580  0.3747 -0.1761
13850TIP3    H162965   0.884   5.602   1.944  0.1999  1.3203 -0.7843
13850TIP3    H262966   0.851   5.547   1.807  0.3744 -0.8871  0.0359
13851TIP3   OH262967   0.093   6.497  15.437  0.2420 -0.3814  0.4389
13851TIP3    H162968   0.180   6.526  15.463  0.1009 -0.7685  1.3506
13851TIP3    H262969   0.076   6.544  15.355  0.1137  1.9556  1.7600
13852TIP3   OH262970   0.420   3.554   2.483 -0.8328  0.1395  0.3340
13852TIP3    H162971   0.438   3.500   2.560  1.0290 -1.7120 -1.3162
13852TIP3    H262972   0.392   3.491   2.416 -0.3107  1.4403 -1.1187
13853TIP3   OH262973   4.484   0.072  11.915  0.4851  0.4165  0.3121
13853TIP3    H162974   4.410   0.033  11.868 -0.4743  0.9658  1.3459
13853TIP3    H262975   4.496   0.158  11.875  0.9717  0.0835 -0.2700
13854TIP3   OH262976   3.457   2.102  13.080 -0.0632 -0.1411 -0.0915
13854TIP3    H162977   3.438   2.020  13.034  1.5469 -0.3060 -0.4966
13854TIP3    H262978   3.511   2.075  13.155  0.6647  0.5565 -0.3568
13855TIP3   OH262979   4.710   0.166   3.313 -0.2164  0.3873  0.4854
13855TIP3    H162980   4.779   0.217   3.356  1.5935 -1.5859  0.0172
13855TIP3    H262981   4.670   0.115   3.383 -0.3491  0.6075  0.5679
13856TIP3   OH262982   6.598   2.487  14.112 -0.0455  0.2199  0.0863
13856TIP3    H162983   6.572   2.488  14.204 -0.2176  1.3808  0.0412
13856TIP3    H262984   6.545   2.418  14.072 -0.7705  0.4543  0.6342
13857TIP3   OH262985   4.696   5.771   0.252  0.6996  0.2714  0.7409
13857TIP3    H162986   4.729   5.804   0.168  1.0554 -1.6437  0.0990
13857TIP3    H262987   4.775   5.753   0.303  0.4585  3.2226  2.2410
13858TIP3   OH262988   0.485   3.066   4.720  0.2199 -0.1250 -0.2080
13858TIP3    H162989   0.502   2.980   4.758 -0.0816  0.6633  1.7977
13858TIP3    H262990   0.539   3.126   4.773 -1.8384  1.2635  0.3643
13859TIP3   OH262991   6.455   5.407  14.932  0.0077 -0.8256 -0.3597
13859TIP3    H162992   6.489   5.430  15.018 -1.3177  0.9844 -0.2872
13859TIP3    H262993   6.478   5.315  14.921  2.6974 -0.3436  0.7041
13860TIP3   OH262994   1.032   1.907  11.544 -0.1135  0.2956  0.3175
13860TIP3    H162995   1.114   1.953  11.524 -0.3135  0.5837  0.1602
13860TIP3    H262996   1.046   1.817  11.512  0.1054  0.3700  0.2065
13861TIP3   OH262997   2.010   5.254   6.020  0.1398 -1.3431  0.1266
13861TIP3    H162998   1.957   5.244   5.941 -1.4270 -2.9328  1.3552
13861TIP3    H262999   1.947   5.272   6.090  1.4942 -0.0713  1.0600
13862TIP3   OH263000   1.976   0.666   0.738 -0.4377 -0.5062 -0.0112
13862TIP3    H163001   1.951   0.628   0.822  0.7561  0.7672  0.9618
13862TIP3    H263002   1.904   0.727   0.717  1.4771  2.8531  2.5768
13863TIP3   OH263003   6.293   1.051  14.824  0.0525 -0.7158  0.1172
13863TIP3    H163004   6.201   1.073  14.834  0.6954  1.8023  0.8351
13863TIP3    H263005   6.299   0.961  14.855 -2.1656 -0.9407 -0.0024
13864TIP3   OH263006   0.659   0.141  14.861 -0.5560 -0.2225  0.9598
13864TIP3    H163007   0.588   0.185  14.817 -0.2162  0.2330  0.8636
13864TIP3    H263008   0.617   0.072  14.913 -0.9237 -1.0244 -0.3798
13865TIP3   OH263009   1.018   2.511  12.149  0.4503 -0.0038  0.4145
13865TIP3    H163010   1.012   2.437  12.089  1.4152 -0.1581  0.5017
13865TIP3    H263011   0.985   2.478  12.232  0.2412 -0.1422  0.2758
13866TIP3   OH263012   2.822   0.451   2.609 -0.3123  0.1486  0.1338
13866TIP3    H163013   2.802   0.482   2.697  1.1245 -1.4047  1.0418
13866TIP3    H263014   2.908   0.489   2.589 -0.1725 -0.3272 -0.1874
13867TIP3   OH263015   6.767   5.104  11.203  0.1862  0.2450 -0.5727
13867TIP3    H163016   6.823   5.060  11.138 -0.1610 -1.3130  0.1578
13867TIP3    H263017   6.789   5.197  11.194  2.6945 -0.3108 -0.4986
13868TIP3   OH263018   0.903   1.782   5.872 -0.1735  0.5494 -0.4133
13868TIP3    H163019   0.979   1.730   5.896 -0.8400 -1.1468 -1.8902
13868TIP3    H263020   0.840   1.767   5.943  0.2818  0.7231  0.0291
13869TIP3   OH263021   1.521   2.113   4.432 -0.4371 -0.3923  0.6605
13869TIP3    H163022   1.484   2.197   4.458  1.3689  0.5720  0.1961
13869TIP3    H263023   1.495   2.102   4.340  0.0267  0.0518  0.4760
13870TIP3   OH263024   1.646   5.926   5.799  0.5399 -0.0992  0.0563
13870TIP3    H163025   1.632   5.937   5.705 -1.4422 -1.0302  0.2057
13870TIP3    H263026   1.611   5.839   5.817  0.2948  0.3497  1.7733
13871TIP3   OH263027   1.291   6.642   1.444 -0.0825 -0.4030 -0.4625
13871TIP3    H163028   1.347   6.618   1.370  0.7806  0.1183  0.0172
13871TIP3    H263029   1.297   6.738   1.448  1.2960 -0.5336  1.3744
13872TIP3   OH263030   6.537   1.895   3.226  0.2785 -0.3637  0.6231
13872TIP3    H163031   6.531   1.989   3.209 -1.5772 -0.2108  1.9631
13872TIP3    H263032   6.560   1.856   3.142 -1.5043  1.0395 -0.5393
13873TIP3   OH263033   0.547   4.068   6.453  0.8042 -0.5164  0.8180
13873TIP3    H163034   0.567   4.153   6.415 -1.4830  0.2348  1.2590
13873TIP3    H263035   0.564   4.079   6.546 -1.5673  0.1476  1.2085
13874TIP3   OH263036   5.115   2.872  14.594  0.0347  0.2850 -0.0130
13874TIP3    H163037   5.076   2.955  14.564 -0.8957  0.2115  0.9566
13874TIP3    H263038   5.153   2.834  14.515 -1.1531  0.7509 -0.8344
13875TIP3   OH263039   5.736   0.034  13.648 -0.5405 -0.1150  0.0858
13875TIP3    H163040   5.762   0.099  13.713  2.2507 -0.1845 -0.8837
13875TIP3    H263041   5.694   0.085  13.579  1.5432  0.7285 -0.6239
13876TIP3   OH263042   4.900   1.496  15.889 -0.6003  0.0573 -0.1197
13876TIP3    H163043   4.869   1.419  15.843 -1.4316  0.7202 -0.6933
13876TIP3    H263044   4.823   1.527  15.937 -0.8986  1.7960 -1.6598
13877TIP3   OH263045   5.739   5.342   3.075 -0.4208 -0.4007  0.1037
13877TIP3    H163046   5.746   5.421   3.022  0.4530 -0.7211 -0.2662
13877TIP3    H263047   5.654   5.350   3.119  0.0945  1.2141  0.8305
13878TIP3   OH263048   2.067   5.428  14.396 -0.1258  0.3964  0.5298
13878TIP3    H163049   1.974   5.438  14.418 -0.3835  1.0263 -0.7745
13878TIP3    H263050   2.108   5.509  14.427  0.1130 -0.1773  1.7211
13879TIP3   OH263051   2.583   2.831   1.105  0.3367 -0.0170  0.0879
13879TIP3    H163052   2.539   2.769   1.046  0.1622 -1.2261  1.4568
13879TIP3    H263053   2.667   2.848   1.063  0.5379 -1.4893 -0.1513
13880TIP3   OH263054   1.806   5.359  15.032  0.0689  0.0384  0.1495
13880TIP3    H163055   1.859   5.312  14.967  0.1355  1.2172 -0.6584
13880TIP3    H263056   1.852   5.346  15.115 -0.2347 -1.8209  0.0580
13881TIP3   OH263057   3.999   1.739  14.070  0.2376 -0.3698 -0.1912
13881TIP3    H163058   4.082   1.732  14.025  0.4758  1.0805 -0.0170
13881TIP3    H263059   3.982   1.833  14.074 -0.7650 -0.5837  0.9295
13882TIP3   OH263060   3.153   1.660  11.602 -0.8031  0.4371  0.3478
13882TIP3    H163061   3.163   1.595  11.532 -0.4095  0.3018  0.5299
13882TIP3    H263062   3.058   1.668  11.614 -0.8981  1.0149 -0.7173
13883TIP3   OH263063   5.154   3.006  11.968 -0.4402 -0.3007  0.6289
13883TIP3    H163064   5.163   2.945  12.042 -0.7759 -1.7714 -0.5172
13883TIP3    H263065   5.060   3.009  11.952 -0.6121  1.9924  1.8565
13884TIP3   OH263066   2.383   2.767   0.119  0.6811 -0.3742 -0.0828
13884TIP3    H163067   2.432   2.819   0.055 -0.2178  0.9872  0.2943
13884TIP3    H263068   2.440   2.693   0.140  1.2451 -0.4840 -1.9722
13885TIP3   OH263069   1.166   3.359   1.350  0.0847  0.0980  0.0942
13885TIP3    H163070   1.211   3.429   1.302  0.5186  0.7470  1.4313
13885TIP3    H263071   1.096   3.404   1.398  0.6141 -0.3252  1.2713
13886TIP3   OH263072   0.488   1.136   4.900 -0.3060  0.0523  0.0344
13886TIP3    H163073   0.396   1.113   4.885  0.3331 -2.1996 -0.5397
13886TIP3    H263074   0.537   1.072   4.849  1.6190  0.6940  1.0642
13887TIP3   OH263075   5.176   3.561   4.689 -0.4477 -0.2221  0.8224
13887TIP3    H163076   5.106   3.512   4.646 -0.8829  0.4030  0.8118
13887TIP3    H263077   5.253   3.505   4.682 -0.2679  0.2893 -1.6230
13888TIP3   OH263078   2.846   2.879   1.588  0.2117 -0.1454  0.2654
13888TIP3    H163079   2.757   2.915   1.585  0.1566 -0.0661  2.0107
13888TIP3    H263080   2.839   2.804   1.647  1.2048 -0.4040  0.0612
13889TIP3   OH263081   1.465   2.815   0.018  0.2062 -0.2956 -0.3768
13889TIP3    H163082   1.475   2.846   0.107  1.3844  1.1438 -0.9956
13889TIP3    H263083   1.509   2.730   0.017 -0.1513 -0.4908  0.4997
13890TIP3   OH263084   1.773   3.254  13.112 -0.0190 -0.1862  0.0525
13890TIP3    H163085   1.756   3.346  13.095  1.5025 -0.0812 -0.9299
13890TIP3    H263086   1.823   3.252  13.193  1.4789 -0.0141 -0.8493
13891TIP3   OH263087   6.041   0.927  12.590  0.0792  0.7200 -0.5325
13891TIP3    H163088   6.035   1.014  12.551 -2.7782  1.4260  1.3061
13891TIP3    H263089   6.011   0.868  12.521  2.4782  1.0930 -1.9481
13892TIP3   OH263090   1.633   1.529  16.417  0.9210 -0.0333  0.2358
13892TIP3    H163091   1.581   1.494  16.345 -0.3323  1.1290  0.5484
13892TIP3    H263092   1.720   1.494  16.403  0.6189 -0.0971 -1.6588
13893TIP3   OH263093   0.327   3.237  17.038  0.1866  0.8309  0.0117
13893TIP3    H163094   0.352   3.147  17.015  0.0553  1.1118 -1.2841
13893TIP3    H263095   0.409   3.281  17.058  0.3371  0.6502 -0.2049
13894TIP3   OH263096   5.593   5.934   2.931 -0.2872  0.8519 -0.1926
13894TIP3    H163097   5.668   5.970   2.978 -0.3860  0.9451 -0.1073
13894TIP3    H263098   5.597   5.974   2.844  0.0975  0.4150 -0.3787
13895TIP3   OH263099   3.569   4.982  15.334 -0.1266  0.3804 -0.8880
13895TIP3    H163100   3.566   5.068  15.292 -1.1224  0.3417 -0.8960
13895TIP3    H263101   3.501   4.931  15.291 -0.4025 -0.0108  0.0053
13896TIP3   OH263102   1.023   6.272  11.557  0.1875 -0.1639 -0.7370
13896TIP3    H163103   1.010   6.358  11.518 -0.0560 -0.1534 -0.6326
13896TIP3    H263104   1.034   6.213  11.483  0.6979  0.0108 -0.8036
13897TIP3   OH263105   1.560   3.539   5.546  0.3664  0.1370 -0.4551
13897TIP3    H163106   1.556   3.469   5.611 -0.2692  1.8640  1.3970
13897TIP3    H263107   1.645   3.527   5.503 -0.7874 -3.3343 -1.9901
13898TIP3   OH263108   2.554   3.663  16.597 -0.2668  0.0370 -0.1833
13898TIP3    H163109   2.501   3.632  16.524 -0.1207 -0.3033 -0.1492
13898TIP3    H263110   2.643   3.635  16.575 -0.1063  0.6041 -0.2370
13899TIP3   OH263111   2.387   1.372  14.719  0.0182 -0.2728  0.0290
13899TIP3    H163112   2.373   1.422  14.639 -1.1827 -2.2339 -1.0059
13899TIP3    H263113   2.314   1.397  14.776  0.2990  0.3359  0.1272
13900TIP3   OH263114   2.562   0.726  11.019 -0.5372  0.4511 -0.5213
13900TIP3    H163115   2.530   0.802  10.971 -2.8391  0.3595  0.7516
13900TIP3    H263116   2.652   0.747  11.041 -0.2895  1.6231 -2.5407
13901TIP3   OH263117   4.358   3.778   5.185  0.3748 -0.0176  0.2421
13901TIP3    H163118   4.305   3.857   5.199  0.5773  0.3379 -0.9797
13901TIP3    H263119   4.447   3.811   5.172  0.6443 -0.5225  0.7793
13902TIP3   OH263120   6.596   6.149   0.804 -0.3038 -0.2935  0.7799
13902TIP3    H163121   6.572   6.241   0.810 -0.5065 -0.2975  0.0103
13902TIP3    H263122   6.526   6.109   0.753  0.3769 -0.6531  0.1222
13903TIP3   OH263123   3.205   6.418  14.291 -0.4044 -0.1344  0.3523
13903TIP3    H163124   3.197   6.364  14.370  1.7838 -1.5566 -0.3673
13903TIP3    H263125   3.200   6.508  14.322  0.0975 -0.6916  2.0654
13904TIP3   OH263126   3.215   5.863   1.677  0.1430 -0.2799 -0.0541
13904TIP3    H163127   3.178   5.943   1.640 -0.2947 -0.7662 -0.6694
13904TIP3    H263128   3.175   5.856   1.764  2.2492  1.6247  1.1361
13905TIP3   OH263129   2.736   4.076   0.309 -0.6757  0.4893  0.5407
13905TIP3    H163130   2.829   4.077   0.334 -0.6034 -0.3518  0.3107
13905TIP3    H263131   2.709   4.168   0.316  0.0673  0.6805  1.0001
13906TIP3   OH263132   5.500   5.512   4.220  0.3510  0.2516  0.1005
13906TIP3    H163133   5.491   5.540   4.311  0.6000  0.8141 -0.0503
13906TIP3    H263134   5.594   5.500   4.208  0.3544  0.5870 -0.2054
13907TIP3   OH263135   3.030   0.536  16.848 -0.0920  0.0900  0.3251
13907TIP3    H163136   2.988   0.596  16.909 -1.3308  0.1026 -0.5528
13907TIP3    H263137   2.959   0.482  16.813  0.8018 -0.8933 -0.0291
13908TIP3   OH263138   3.010   6.398   0.573  0.1211  0.4258  0.7853
13908TIP3    H163139   2.953   6.443   0.636  1.3355 -0.3511  2.4583
13908TIP3    H263140   3.096   6.396   0.616  1.1492  0.5778 -1.2309
13909TIP3   OH263141   6.508   0.623  16.463 -0.2437  0.1360 -0.2345
13909TIP3    H163142   6.439   0.617  16.530 -1.3023  1.0259 -1.2309
13909TIP3    H263143   6.556   0.541  16.471 -2.3035 -1.1274 -0.4724
13910TIP3   OH263144   3.218   5.287  14.293  0.4751  0.5157 -0.0704
13910TIP3    H163145   3.285   5.355  14.299 -0.8408  1.7233  1.3667
13910TIP3    H263146   3.249   5.216  14.349  2.1713 -0.3816 -2.0869
13911TIP3   OH263147   2.056   2.567   4.127 -0.0445  0.0829  0.3264
13911TIP3    H163148   1.988   2.515   4.085 -0.4225  0.4955  0.4110
13911TIP3    H263149   2.109   2.504   4.176  0.5483 -0.4303 -0.9576
13912TIP3   OH263150   0.488   1.784   0.015 -0.3113  0.0723 -0.4094
13912TIP3    H163151   0.443   1.716  -0.036  0.2724  0.6515 -1.7167
13912TIP3    H263152   0.492   1.748   0.104 -0.6866 -1.2774 -0.9177
13913TIP3   OH263153   3.423   6.417  12.211  0.1872  0.2822  0.0688
13913TIP3    H163154   3.462   6.423  12.297 -1.3817  0.3731  0.7958
13913TIP3    H263155   3.336   6.380  12.227  0.3923 -0.9950 -1.6119
13914TIP3   OH263156   5.642   4.451  17.101 -0.2083 -0.1798  0.2558
13914TIP3    H163157   5.698   4.525  17.075 -2.5081  0.9095 -1.8036
13914TIP3    H263158   5.679   4.421  17.184  1.7735  2.2287  0.3019
13915TIP3   OH263159   2.471   4.518   0.633 -0.0345  0.0916 -0.1908
13915TIP3    H163160   2.552   4.469   0.640  0.0952  0.2451 -0.6132
13915TIP3    H263161   2.402   4.454   0.652  0.1128 -0.3380 -1.0600
13916TIP3   OH263162   5.450   5.418   5.896 -0.0767 -0.2858  0.4969
13916TIP3    H163163   5.384   5.425   5.965  0.6506  2.2182  1.0126
13916TIP3    H263164   5.400   5.414   5.815 -0.9084 -1.1278  1.0528
13917TIP3   OH263165   2.600   0.983   6.389  0.1387 -0.2519 -0.5828
13917TIP3    H163166   2.641   0.924   6.326  0.4315 -1.8132  1.0243
13917TIP3    H263167   2.559   0.925   6.453 -1.3345  1.3009 -0.0726
13918TIP3   OH263168   3.995   0.464   4.805  0.0500  0.0084 -0.0291
13918TIP3    H163169   3.992   0.369   4.808 -1.3361 -0.0368 -1.8503
13918TIP3    H263170   3.964   0.492   4.891  0.4191 -1.1859  0.5006
13919TIP3   OH263171   2.333   3.239   6.680 -0.7005  0.0558  0.2319
13919TIP3    H163172   2.373   3.157   6.709  0.3326  0.7365  0.7467
13919TIP3    H263173   2.355   3.244   6.587  0.8426  0.6579  0.6128
13920TIP3   OH263174   3.310   5.127  12.981  0.3394 -0.3041  0.4196
13920TIP3    H163175   3.244   5.112  12.913  0.6886 -1.0981  0.2590
13920TIP3    H263176   3.272   5.197  13.035 -0.0641  0.1330 -0.4137
13921TIP3   OH263177   2.893   1.660   4.347 -0.9979 -0.8751 -0.0620
13921TIP3    H163178   2.843   1.741   4.359 -0.9842 -0.7762 -0.6514
13921TIP3    H263179   2.960   1.663   4.416  0.3447  0.6588 -1.3717
13922TIP3   OH263180   3.557   2.044  13.814 -1.1091 -0.0492 -0.1304
13922TIP3    H163181   3.521   2.053  13.902 -0.6851 -0.5600  0.1012
13922TIP3    H263182   3.547   1.951  13.794 -0.5783 -0.0574 -0.3508
13923TIP3   OH263183   5.307   0.482  12.501  0.3154  0.1477 -0.1282
13923TIP3    H163184   5.347   0.413  12.554 -0.7740 -1.3962 -1.2481
13923TIP3    H263185   5.222   0.497  12.542  0.1205  0.0685 -0.5000
13924TIP3   OH263186   5.241   1.645   1.553 -0.0967  0.1961 -0.1157
13924TIP3    H163187   5.254   1.597   1.634 -1.2343  1.1558  0.6592
13924TIP3    H263188   5.312   1.616   1.496  1.3439  0.2931  1.5843
13925TIP3   OH263189   1.727   0.889  14.649  0.6203 -0.7368  0.0396
13925TIP3    H163190   1.723   0.945  14.727  0.0119  0.4979 -0.8647
13925TIP3    H263191   1.817   0.897  14.618  0.1529  1.0019 -0.9685
13926TIP3   OH263192   3.883   2.382   0.404  0.0255  0.2786 -0.1522
13926TIP3    H163193   3.840   2.306   0.442  1.1305 -0.9880 -1.3965
13926TIP3    H263194   3.959   2.398   0.460 -0.5625  0.8871  0.4885
13927TIP3   OH263195   6.360   6.599   0.962  0.5248  0.7895  0.0663
13927TIP3    H163196   6.326   6.524   1.011  0.7815 -0.1464 -1.1606
13927TIP3    H263197   6.366   6.669   1.027 -0.5056 -0.0107  1.0514
13928TIP3   OH263198   5.217   2.915  12.501  0.0496  0.6852 -0.2897
13928TIP3    H163199   5.229   2.937  12.409  1.2823 -0.8947 -0.5200
13928TIP3    H263200   5.302   2.881  12.529 -0.2814  1.2392  1.4609
13929TIP3   OH263201   5.539   3.307   2.494  0.5708 -0.3103 -0.6330
13929TIP3    H163202   5.475   3.365   2.536 -0.9543 -1.3389 -1.5016
13929TIP3    H263203   5.619   3.320   2.544 -0.8284 -0.4327  1.7068
13930TIP3   OH263204   2.624   3.567   0.951  0.1267 -0.0875  0.0005
13930TIP3    H163205   2.634   3.615   1.034  1.1739  1.7558 -1.1546
13930TIP3    H263206   2.543   3.600   0.913  1.4675  1.7282 -1.3740
13931TIP3   OH263207   0.656   3.017   2.179  0.2926 -0.1433  0.4953
13931TIP3    H163208   0.572   3.048   2.143  1.5398  1.7901 -0.8220
13931TIP3    H263209   0.697   2.970   2.107 -0.1746 -2.1865  1.5268
13932TIP3   OH263210   0.394   4.198  15.329  0.1529  0.8294 -0.0968
13932TIP3    H163211   0.341   4.119  15.339  1.9835 -0.5116 -0.5167
13932TIP3    H263212   0.393   4.216  15.235  0.6954  0.6042 -0.1483
13933TIP3   OH263213   3.612   0.098   1.054  0.5140 -0.2349  0.0701
13933TIP3    H163214   3.626   0.191   1.069 -1.0329 -0.1957  1.4896
13933TIP3    H263215   3.555   0.093   0.978 -0.6618  0.0767  0.9070
13934TIP3   OH263216   4.984   6.366  14.747 -0.5924 -0.2380 -0.2234
13934TIP3    H163217   5.003   6.422  14.671  0.3819 -0.8257 -0.4217
13934TIP3    H263218   5.064   6.370  14.800 -1.5728  0.8241  1.1929
13935TIP3   OH263219   5.754   1.957   4.609 -0.6523  0.2227  0.4770
13935TIP3    H163220   5.671   1.921   4.639 -1.2540  0.7560 -0.5172
13935TIP3    H263221   5.731   2.009   4.532  0.6824 -0.1715 -0.2033
13936TIP3   OH263222   6.660   2.959  12.422 -0.0507 -0.1998  0.0495
13936TIP3    H163223   6.580   2.951  12.474  0.9800 -0.5376  1.6129
13936TIP3    H263224   6.681   3.052  12.425 -1.8964  0.3881 -2.7371
13937TIP3   OH263225   5.615   1.355   5.404 -0.1170  0.2855 -0.0211
13937TIP3    H163226   5.632   1.382   5.495  1.8547  1.1880 -0.6276
13937TIP3    H263227   5.702   1.352   5.364 -0.9706 -0.1842 -1.8777
13938TIP3   OH263228   6.521   1.711  17.114 -0.2353  0.3690 -0.2796
13938TIP3    H163229   6.558   1.724  17.202  0.9547 -0.2830 -0.6627
13938TIP3    H263230   6.598   1.695  17.059 -1.1136 -0.9860 -1.1181
13939TIP3   OH263231   4.854   3.984  16.116  0.2715 -0.2976  0.5021
13939TIP3    H163232   4.811   3.928  16.051 -2.5435  2.3294 -0.0648
13939TIP3    H263233   4.945   3.991  16.087 -0.3807 -1.1405 -1.7984
13940TIP3   OH263234   2.840   5.409   0.339  0.2828  0.0847  0.4187
13940TIP3    H163235   2.825   5.328   0.291 -1.8381  0.0828  1.0490
13940TIP3    H263236   2.885   5.382   0.419 -1.5001 -0.6267  1.1913
13941TIP3   OH263237   3.921   0.472   1.744 -0.2522  0.0662  0.0994
13941TIP3    H163238   4.000   0.453   1.794  0.9823 -0.0377 -1.8500
13941TIP3    H263239   3.942   0.551   1.694 -1.6493  0.4827  0.1381
13942TIP3   OH263240   5.610   0.916  11.692  0.2651  0.0347  0.4658
13942TIP3    H163241   5.525   0.890  11.726  0.6911  1.5280  2.8393
13942TIP3    H263242   5.591   0.987  11.631 -0.2689 -0.2190  0.3374
13943TIP3   OH263243   3.619   3.947  14.758 -0.0195  0.1019  0.8304
13943TIP3    H163244   3.548   3.885  14.773  0.4356 -0.8243 -0.7013
13943TIP3    H263245   3.626   3.997  14.840 -0.9171 -1.3329  1.7999
13944TIP3   OH263246   3.245   4.537  14.004 -0.3606  0.8907  0.0833
13944TIP3    H163247   3.287   4.523  13.919 -0.3998  0.8833  0.0655
13944TIP3    H263248   3.213   4.627  14.001 -1.6504  0.4259 -0.4750
13945TIP3   OH263249   4.895   0.893  12.080 -0.3848  0.3497  0.2034
13945TIP3    H163250   4.978   0.940  12.069 -0.1777  0.4792  2.0369
13945TIP3    H263251   4.828   0.962  12.074 -0.2262  0.5425  0.5688
13946TIP3   OH263252   2.537   6.785   3.990  0.0499 -0.0774  0.5777
13946TIP3    H163253   2.465   6.739   4.034  2.2445 -3.7872  0.4732
13946TIP3    H263254   2.611   6.778   4.050  1.6115 -0.4880 -1.3352
13947TIP3   OH263255   1.373   0.474  11.742 -0.2846  0.4390  0.3741
13947TIP3    H163256   1.377   0.385  11.777  0.7072  0.2966 -0.0780
13947TIP3    H263257   1.440   0.475  11.674 -1.5399  0.9850 -0.8727
13948TIP3   OH263258   5.585   6.757  12.737  0.6159 -0.0500 -0.7043
13948TIP3    H163259   5.595   6.714  12.822  1.1840 -0.2895 -0.8927
13948TIP3    H263260   5.494   6.787  12.737  0.2230 -1.2069 -0.5556
13949TIP3   OH263261   3.371   4.960   2.957  1.0319 -0.5733  0.6123
13949TIP3    H163262   3.418   5.044   2.962 -0.2023  0.0314  2.7210
13949TIP3    H263263   3.440   4.895   2.945  2.0959  0.6509 -0.0229
13950TIP3   OH263264   6.444   3.463  13.598 -0.0448 -0.1169  0.3552
13950TIP3    H163265   6.418   3.448  13.508 -0.6537 -0.4797  0.5926
13950TIP3    H263266   6.409   3.389  13.647  1.3596 -0.5749  0.6963
13951TIP3   OH263267   3.487   5.576  14.817 -0.4494  0.2143  0.0188
13951TIP3    H163268   3.471   5.608  14.906  1.8171 -2.5944  1.5202
13951TIP3    H263269   3.406   5.531  14.793 -0.4218 -0.6480  1.4495
13952TIP3   OH263270   0.785   5.378   3.457 -0.4245 -0.7990 -0.3644
13952TIP3    H163271   0.731   5.435   3.402  0.9786  0.3876 -0.5388
13952TIP3    H263272   0.728   5.354   3.530 -0.3833  2.6327  0.8990
13953TIP3   OH263273   1.642   2.292  11.432 -0.4641  0.3128  0.2919
13953TIP3    H163274   1.608   2.377  11.404  0.2979  0.7777  0.7482
13953TIP3    H263275   1.707   2.269  11.365  2.3694  2.0750  2.3085
13954TIP3   OH263276   2.433   1.186  14.124 -0.3300 -0.1698  0.1417
13954TIP3    H163277   2.375   1.157  14.054  1.9183 -0.2902 -1.7325
13954TIP3    H263278   2.449   1.278  14.106  2.2162 -0.7949 -0.9712
13955TIP3   OH263279   1.147   3.660   0.800  0.6751  0.6707  0.3528
13955TIP3    H163280   1.172   3.574   0.834  0.6096  1.0524  1.3721
13955TIP3    H263281   1.134   3.645   0.706 -0.3176 -0.6533  0.6863
13956TIP3   OH263282   4.473   4.384   4.717 -0.0908 -0.3220 -0.3053
13956TIP3    H163283   4.512   4.299   4.697  1.5049  0.6073 -1.2048
13956TIP3    H263284   4.496   4.400   4.809 -0.7435 -1.0430 -0.0157
13957TIP3   OH263285   5.271   6.236  14.968 -0.2228 -0.0409 -0.3366
13957TIP3    H163286   5.318   6.303  14.918  2.6082 -0.3411  1.8324
13957TIP3    H263287   5.282   6.156  14.918  2.2929 -0.2669  0.5393
13958TIP3   OH263288   1.087   2.880   6.799  0.8839  0.2017 -0.1741
13958TIP3    H163289   1.092   2.950   6.734 -0.7030 -1.0410 -1.6996
13958TIP3    H263290   1.007   2.833   6.776  0.3006 -0.2579  2.7298
13959TIP3   OH263291   5.278   3.076   4.629  0.2406 -0.0822  0.0507
13959TIP3    H163292   5.241   3.024   4.557 -0.2166 -2.1461  1.7440
13959TIP3    H263293   5.202   3.118   4.670  0.6238  2.1532 -1.4274
13960TIP3   OH263294   6.183   3.173   5.301  0.1951 -0.1217  0.0650
13960TIP3    H163295   6.133   3.091   5.293  2.0149 -0.9953 -2.7517
13960TIP3    H263296   6.123   3.241   5.269 -0.7090 -0.5537  0.8020
13961TIP3   OH263297   0.635   1.396  11.223  0.1239 -0.1007 -0.3756
13961TIP3    H163298   0.618   1.488  11.244  0.5636 -0.0248 -0.3579
13961TIP3    H263299   0.690   1.398  11.145  0.9189 -0.3261  0.1685
13962TIP3   OH263300   4.310   3.996  16.451 -0.8438 -0.3012 -0.8818
13962TIP3    H163301   4.382   3.975  16.510 -0.5142 -1.9940 -1.8640
13962TIP3    H263302   4.243   4.033  16.508 -0.8171 -2.5767  0.7175
13963TIP3   OH263303   3.690   6.550   2.775 -0.7854  0.1277  0.3343
13963TIP3    H163304   3.710   6.635   2.736 -2.3022  0.4916  0.3342
13963TIP3    H263305   3.756   6.491   2.738 -0.4313  1.0611 -0.5604
13964TIP3   OH263306   5.953   4.207   2.481 -0.1808 -0.5423 -0.4381
13964TIP3    H163307   6.015   4.183   2.550 -0.9058 -1.1518  0.0254
13964TIP3    H263308   5.968   4.300   2.466  0.5648 -0.5945 -0.0509
13965TIP3   OH263309   4.620   1.862  10.494 -0.0891  0.4412  0.4385
13965TIP3    H163310   4.561   1.938  10.488 -0.4445  0.3094  2.2003
13965TIP3    H263311   4.582   1.807  10.561  0.7412 -0.8297 -0.1216
13966TIP3   OH263312   4.910   1.509  11.017  0.0880  0.0939 -0.0879
13966TIP3    H163313   4.952   1.424  11.007  2.4147  1.0199  1.4674
13966TIP3    H263314   4.826   1.490  11.060  1.2429 -1.2833  1.6233
13967TIP3   OH263315   2.189   2.954   2.124  0.3530 -0.2601 -0.3782
13967TIP3    H163316   2.160   3.040   2.094 -0.5663 -0.4933 -0.1870
13967TIP3    H263317   2.136   2.891   2.074  0.9184 -0.7089 -0.4199
13968TIP3   OH263318   5.878   4.239  14.982 -0.2839 -0.2791  0.3878
13968TIP3    H163319   5.810   4.190  15.028  0.9921 -0.5789  1.9957
13968TIP3    H263320   5.908   4.180  14.913 -0.9165 -0.5616  0.3568
13969TIP3   OH263321   4.910   5.118   4.013  0.0786  0.6048  0.1572
13969TIP3    H163322   5.005   5.127   4.014  0.2271 -0.6807 -0.8610
13969TIP3    H263323   4.894   5.030   4.046 -0.6255 -0.0042 -1.7544
13970TIP3   OH263324   1.220   2.194  11.233 -0.3108  0.2263 -0.0213
13970TIP3    H163325   1.126   2.184  11.225 -0.2720 -0.1551 -0.0091
13970TIP3    H263326   1.256   2.107  11.215 -0.0160  0.1732  0.7601
13971TIP3   OH263327   5.526   5.528   0.169  0.1374 -0.7614  0.2988
13971TIP3    H163328   5.614   5.547   0.203  0.3796 -0.1863 -0.6259
13971TIP3    H263329   5.477   5.608   0.182 -0.1807 -1.0011  0.5812
13972TIP3   OH263330   2.430   2.735   3.783 -0.0230 -0.3807  0.0555
13972TIP3    H163331   2.525   2.739   3.789 -0.1272 -0.2738  1.8224
13972TIP3    H263332   2.409   2.642   3.791 -0.0173 -0.5226 -1.4104
13973TIP3   OH263333   1.000   4.161   1.255  0.1764 -0.2805 -0.0797
13973TIP3    H163334   1.078   4.139   1.205  0.5190  1.4021 -0.2913
13973TIP3    H263335   1.031   4.163   1.346  0.3319  0.1631 -0.1415
13974TIP3   OH263336   0.723   1.638  11.698 -0.3883 -0.7761  0.1497
13974TIP3    H163337   0.629   1.627  11.715 -0.1174 -2.3000  0.7478
13974TIP3    H263338   0.761   1.552  11.716  0.9567 -0.5160 -1.3324
13975TIP3   OH263339   2.480   0.943   1.571  0.2969 -0.4145  0.3341
13975TIP3    H163340   2.509   0.861   1.612  0.4199 -1.0477 -0.9847
13975TIP3    H263341   2.506   0.934   1.479  0.4279  1.1717  0.2063
13976TIP3   OH263342   0.671   2.400   0.524  0.0068  0.0454  0.0756
13976TIP3    H163343   0.663   2.356   0.440  1.1501  0.4163 -0.2350
13976TIP3    H263344   0.731   2.473   0.508 -1.0679  1.1352  0.8053
13977TIP3   OH263345   2.163   6.284   3.348  0.2107  1.1158  0.2881
13977TIP3    H163346   2.184   6.343   3.276  0.3234  0.2703 -0.3657
13977TIP3    H263347   2.239   6.291   3.407  0.9913  0.3584 -0.6052
13978TIP3   OH263348   5.261   4.089   1.482 -0.6059  0.9042 -0.1368
13978TIP3    H163349   5.204   4.055   1.413  0.4269  0.4240 -0.7744
13978TIP3    H263350   5.217   4.066   1.564 -0.7239 -0.5847 -0.5937
13979TIP3   OH263351   6.744   2.300  15.281  0.6549  0.1169 -0.3025
13979TIP3    H163352   6.726   2.311  15.187  0.5100 -0.4294 -0.3446
13979TIP3    H263353   6.801   2.223  15.284 -2.2572 -2.0940  0.3448
13980TIP3   OH263354   2.629   6.253   2.168  0.4138 -0.1975 -0.2716
13980TIP3    H163355   2.544   6.262   2.124  0.1368 -1.4205 -0.0120
13980TIP3    H263356   2.608   6.212   2.251  1.1020  0.8454  0.4207
13981TIP3   OH263357   5.715   4.930   5.839 -0.0499 -0.0257 -0.7500
13981TIP3    H163358   5.696   5.016   5.876  2.1777  0.2791 -0.2474
13981TIP3    H263359   5.789   4.945   5.779  0.6338 -1.6459 -0.3559
13982TIP3   OH263360   2.460   1.885  11.355  0.9846  0.5716 -0.2127
13982TIP3    H163361   2.483   1.830  11.280  0.8181 -1.0790  0.9449
13982TIP3    H263362   2.394   1.836  11.403 -2.2637  3.5754 -1.3742
13983TIP3   OH263363   2.724   3.312   4.483  0.2689 -0.0190 -0.4265
13983TIP3    H163364   2.763   3.282   4.401  0.8479  1.4583 -0.6987
13983TIP3    H263365   2.642   3.355   4.456  0.4543  0.4567 -0.2339
13984TIP3   OH263366   0.013   2.355   2.593 -0.2381 -0.1784 -0.1912
13984TIP3    H163367  -0.052   2.388   2.655 -0.2210  0.8466 -0.7053
13984TIP3    H263368   0.069   2.298   2.646  0.3103  1.3793  0.9447
13985TIP3   OH263369   4.509   1.129   2.607 -0.1413 -0.0206  0.2642
13985TIP3    H163370   4.574   1.080   2.557 -0.6624  0.7562 -1.1968
13985TIP3    H263371   4.538   1.121   2.698  2.5057  1.0424 -0.4416
13986TIP3   OH263372   2.077   3.873  13.643  0.2656  0.5108 -0.2802
13986TIP3    H163373   2.135   3.914  13.707 -0.3429  1.0771 -0.0836
13986TIP3    H263374   2.136   3.823  13.586  0.5066 -2.8449  2.7610
13987TIP3   OH263375   5.126   2.016  14.270  0.1343 -0.1086  0.2301
13987TIP3    H163376   5.065   2.004  14.343  1.3759  1.9107  1.6815
13987TIP3    H263377   5.121   2.110  14.250  0.6905 -0.4341 -1.4997
13988TIP3   OH263378   1.853   6.093  14.804  0.1869 -0.0690 -0.1403
13988TIP3    H163379   1.858   6.055  14.716 -0.0898  0.0040 -0.1890
13988TIP3    H263380   1.759   6.106  14.819  0.2677  0.4641 -0.0708
13989TIP3   OH263381   6.410   4.616   2.120 -0.1299  0.2074 -0.0527
13989TIP3    H163382   6.373   4.674   2.187 -0.3347  0.6357 -0.5327
13989TIP3    H263383   6.421   4.532   2.165 -0.9314  0.2931  0.3208
13990TIP3   OH263384   5.453   6.234  11.092  0.0779 -0.0114  0.3479
13990TIP3    H163385   5.516   6.217  11.022 -0.7239 -1.1797 -0.1158
13990TIP3    H263386   5.402   6.309  11.060  0.8058  0.5159  0.4294
13991TIP3   OH263387   4.622   1.731   2.653 -0.2376  0.1135 -0.0523
13991TIP3    H163388   4.706   1.692   2.677 -0.5550 -0.5005  0.0554
13991TIP3    H263389   4.586   1.672   2.587  0.4945  1.6226 -1.8617
13992TIP3   OH263390   1.534   6.637  13.768 -0.2195  0.1426  0.7075
13992TIP3    H163391   1.560   6.547  13.789 -0.9118 -0.6335 -1.5421
13992TIP3    H263392   1.442   6.642  13.792 -0.1781  0.2626  0.8447
13993TIP3   OH263393   0.048   2.917  13.866  0.2818 -0.0370  0.2658
13993TIP3    H163394   0.084   2.918  13.777 -0.8814  2.2619 -0.2043
13993TIP3    H263395  -0.002   2.836  13.870  1.8123 -1.0609 -0.5604
13994TIP3   OH263396   5.519   0.962   2.434  0.4319 -0.3126 -0.1290
13994TIP3    H163397   5.584   1.031   2.448  0.1760  0.2950 -1.8048
13994TIP3    H263398   5.543   0.894   2.497  0.9413  1.1113  1.2769
13995TIP3   OH263399   5.549   1.011  13.457  0.1782  0.0619 -0.1052
13995TIP3    H163400   5.532   1.048  13.543 -0.2529 -2.0690  0.7521
13995TIP3    H263401   5.625   0.954  13.469  2.5697  2.7245 -2.0108
13996TIP3   OH263402   4.651   3.284  16.530 -0.0160  0.1289 -0.2760
13996TIP3    H163403   4.603   3.327  16.459 -0.4468  0.0546 -0.0272
13996TIP3    H263404   4.719   3.233  16.485 -2.2067 -2.3903 -0.8349
13997TIP3   OH263405   1.021   2.032  16.544  0.5105 -0.3862 -0.1150
13997TIP3    H163406   1.071   2.111  16.562  0.4347 -0.2249 -0.6187
13997TIP3    H263407   1.020   1.985  16.627  0.5888  0.1214  0.1741
13998TIP3   OH263408   3.928   1.604  12.131 -0.0017 -0.8583 -0.0424
13998TIP3    H163409   3.969   1.690  12.139 -1.5583 -0.1868  1.2500
13998TIP3    H263410   3.878   1.595  12.213 -0.8153 -2.4666 -0.7047
13999TIP3   OH263411   4.038   5.101  14.838  0.3686  0.1645  0.0625
13999TIP3    H163412   3.991   5.017  14.831 -0.0286  0.5332 -1.8802
13999TIP3    H263413   3.969   5.166  14.848  0.6184  0.4105  0.1784
14000TIP3   OH263414   3.210   5.237   1.989 -0.1375  0.0692 -0.2138
14000TIP3    H163415   3.205   5.257   2.082 -0.6905 -0.0665 -0.2117
14000TIP3    H263416   3.258   5.311   1.951 -0.5919  0.5108  0.0625
14001TIP3   OH263417   0.613   6.701  11.522  0.0343 -0.0939  0.0287
14001TIP3    H163418   0.612   6.624  11.465 -2.3717 -1.9069  2.4330
14001TIP3    H263419   0.541   6.756  11.491 -0.8879 -0.7911  0.9288
14002TIP3   OH263420   6.590   0.249  13.891  0.2825  0.7170 -0.1576
14002TIP3    H163421   6.679   0.282  13.879 -0.3363  2.2144 -0.9058
14002TIP3    H263422   6.597   0.180  13.956  2.0088  0.7275 -0.3232
14003TIP3   OH263423   6.364   4.175  15.251 -0.0194  0.1746 -0.1963
14003TIP3    H163424   6.433   4.110  15.242  0.8861  0.8242  1.8359
14003TIP3    H263425   6.406   4.251  15.291 -1.4680  1.3406 -0.8089
14004TIP3   OH263426   5.945   0.093  16.487  0.0926  0.2155 -0.1894
14004TIP3    H163427   5.947   0.175  16.535  0.0995  0.5000 -0.6764
14004TIP3    H263428   5.876   0.104  16.421 -0.2539 -0.3504  0.0677
14005TIP3   OH263429   6.128   6.672  13.261 -0.4103 -0.3336 -0.3231
14005TIP3    H163430   6.059   6.656  13.196  0.6823  0.0014 -1.5804
14005TIP3    H263431   6.163   6.758  13.237  0.4452 -0.5137  0.3063
14006TIP3   OH263432   3.609   2.941   2.834 -0.3559 -0.0774  0.2645
14006TIP3    H163433   3.682   2.918   2.891 -0.6250 -1.3269  0.1154
14006TIP3    H263434   3.578   3.025   2.868  1.2333  0.5310  0.2342
14007TIP3   OH263435   4.869   4.091   1.532  0.0131 -0.0577  0.2118
14007TIP3    H163436   4.858   4.178   1.496  1.5131 -0.0532 -0.2874
14007TIP3    H263437   4.917   4.105   1.614 -0.7887 -0.3124  0.7274
14008TIP3   OH263438   1.723   3.280  16.789  0.1663  0.4901  0.2505
14008TIP3    H163439   1.690   3.340  16.723  1.5008  0.6402 -0.3049
14008TIP3    H263440   1.754   3.337  16.860 -0.8036  0.3506  0.7931
14009TIP3   OH263441   4.717   0.884   0.873 -0.9070  1.0554  0.1637
14009TIP3    H163442   4.720   0.859   0.965  0.7956  0.1432 -0.1073
14009TIP3    H263443   4.710   0.800   0.826 -0.2053  1.4137 -0.5821
14010TIP3   OH263444   1.560   0.776   1.595  0.1584 -0.8904 -0.0288
14010TIP3    H163445   1.493   0.769   1.527 -2.3179  0.2408  2.2290
14010TIP3    H263446   1.545   0.699   1.650 -0.0495 -0.0079  1.1511
14011TIP3   OH263447   3.766   6.194  16.420  0.3223 -0.0423 -0.4605
14011TIP3    H163448   3.690   6.209  16.477  0.4194 -0.9301 -0.0966
14011TIP3    H263449   3.768   6.100  16.406  0.3085  0.1564 -1.9432
14012TIP3   OH263450   4.141   5.822   5.483 -0.3865 -0.2375  0.0831
14012TIP3    H163451   4.120   5.733   5.509 -1.2612 -0.0550 -0.0078
14012TIP3    H263452   4.235   5.831   5.502 -0.4509 -0.9457  0.7365
14013TIP3   OH263453   3.556   3.964   2.576 -0.5613 -0.2233  0.2539
14013TIP3    H163454   3.491   4.020   2.618 -1.4198 -0.6432 -0.5089
14013TIP3    H263455   3.633   4.020   2.567 -0.5385  0.0367  1.8796
14014TIP3   OH263456   1.980   5.442   0.369  0.1400  0.0188 -0.1141
14014TIP3    H163457   2.059   5.465   0.321  0.2895  1.3185  0.7145
14014TIP3    H263458   2.010   5.423   0.458 -0.3800 -0.1848  0.0206
14015TIP3   OH263459   2.031   1.864  14.706 -0.3131 -0.1243  0.6130
14015TIP3    H163460   1.948   1.859  14.659  0.1630  1.9422 -0.4957
14015TIP3    H263461   2.032   1.951  14.745 -0.6149 -1.6926  4.3584
14016TIP3   OH263462   2.554   6.082  11.733 -0.1088  0.1338  0.0406
14016TIP3    H163463   2.528   6.109  11.821 -0.8012 -1.1290  0.2313
14016TIP3    H263464   2.606   6.002  11.747 -1.3274 -0.8210 -0.7761
14017TIP3   OH263465   6.381   0.625  10.525 -1.2393  0.3170  0.1848
14017TIP3    H163466   6.326   0.612  10.447 -1.3637  0.5161  0.2387
14017TIP3    H263467   6.426   0.708  10.508 -0.4509 -0.1747 -0.1621
14018TIP3   OH263468   3.702   0.783  14.180  0.2116 -0.5425 -0.6814
14018TIP3    H163469   3.738   0.823  14.259 -0.7846  0.3322 -0.6548
14018TIP3    H263470   3.720   0.689  14.189 -2.6308 -0.9105  2.0935
14019TIP3   OH263471   6.569   5.778   2.471  0.4124 -0.8402  0.1246
14019TIP3    H163472   6.621   5.843   2.519 -1.4231  0.9045 -0.1899
14019TIP3    H263473   6.624   5.699   2.469  2.3240  0.4431  1.2475
14020TIP3   OH263474   0.124   6.576  16.284  0.5624  0.2636  0.3368
14020TIP3    H163475   0.048   6.572  16.342  1.0545 -4.1171  0.8387
14020TIP3    H263476   0.087   6.578  16.195 -0.1488  0.1281  0.6296
14021TIP3   OH263477   1.047   5.864  15.408  0.0975  0.2913 -0.1323
14021TIP3    H163478   1.071   5.786  15.459  0.5641 -0.2537 -1.1648
14021TIP3    H263479   0.952   5.860  15.403  0.0253  0.5022  0.9275
14022TIP3   OH263480   1.802   0.189  11.718  0.4706  0.1781  0.1690
14022TIP3    H163481   1.788   0.274  11.759  0.2284  0.6112 -0.8008
14022TIP3    H263482   1.736   0.131  11.757  1.1973  0.2028  1.4721
14023TIP3   OH263483   2.530   0.127   2.611  0.6445  0.0894  0.5233
14023TIP3    H163484   2.463   0.069   2.574  0.1900 -0.0811  1.6103
14023TIP3    H263485   2.522   0.208   2.560 -1.5554  0.6853  1.7817
14024TIP3   OH263486   5.541   0.877   1.272  0.5381  0.1164  0.0336
14024TIP3    H163487   5.584   0.952   1.231  1.6240 -0.0425  0.8439
14024TIP3    H263488   5.570   0.802   1.220  1.2053  0.0191  0.5301
14025TIP3   OH263489   1.680   5.344   1.414 -0.0473 -0.4565 -0.2003
14025TIP3    H163490   1.599   5.379   1.451  0.7503  2.2453 -0.8353
14025TIP3    H263491   1.656   5.317   1.325 -0.4774 -0.5800 -0.0452
14026TIP3   OH263492   0.187   0.203  16.099 -0.6885  0.4497  0.0116
14026TIP3    H163493   0.181   0.248  16.183 -0.8333  1.0951 -0.3417
14026TIP3    H263494   0.280   0.198  16.080 -0.7078  1.2929 -0.3151
14027TIP3   OH263495   6.404   1.323  16.624  0.4504 -0.1687 -0.0617
14027TIP3    H163496   6.373   1.262  16.691 -1.6030 -0.3429 -1.1443
14027TIP3    H263497   6.325   1.352  16.579  1.3893  3.0074  0.1524
14028TIP3   OH263498   2.648   5.558  17.042 -0.9733  0.1932 -0.2704
14028TIP3    H163499   2.637   5.641  17.090  1.1543  0.3375  0.0377
14028TIP3    H263500   2.673   5.495  17.110 -1.3340 -0.4020 -0.6945
14029TIP3   OH263501   4.215   0.409   4.214  0.1458 -0.4237 -0.0235
14029TIP3    H163502   4.283   0.460   4.258  0.1457  0.4538 -1.0178
14029TIP3    H263503   4.133   0.440   4.253  0.0045  1.7011 -1.9127
14030TIP3   OH263504   1.600   4.848  14.237  0.8001  0.0819 -0.1947
14030TIP3    H163505   1.649   4.769  14.258 -0.4122 -0.5676  0.2636
14030TIP3    H263506   1.514   4.816  14.209  0.2063  1.2374  0.2727
14031TIP3   OH263507   0.547   4.487   5.089 -0.2555 -0.2112 -0.9276
14031TIP3    H163508   0.633   4.461   5.055  1.1524  1.6697  1.0058
14031TIP3    H263509   0.567   4.532   5.171 -3.2475 -1.4707  0.5838
14032TIP3   OH263510   4.453   4.349  17.177  0.0193  0.9047  0.5456
14032TIP3    H163511   4.383   4.285  17.165 -1.0262  1.9399  0.9735
14032TIP3    H263512   4.408   4.434  17.177  1.4486  1.6798 -0.6697
14033TIP3   OH263513   5.386   6.385  14.462 -0.6495  0.1196 -1.2021
14033TIP3    H163514   5.330   6.457  14.431 -3.8655 -2.6326 -2.0255
14033TIP3    H263515   5.442   6.364  14.387 -0.0186  1.3963 -1.1098
14034TIP3   OH263516   6.602   6.065   1.071 -0.3065  0.2826 -0.1833
14034TIP3    H163517   6.695   6.067   1.095 -0.1864 -1.1401 -0.5106
14034TIP3    H263518   6.602   6.077   0.976 -0.4035 -0.6173 -0.2985
14035TIP3   OH263519   0.018   2.446   1.484  0.5620 -0.2118 -0.2213
14035TIP3    H163520   0.066   2.436   1.402  0.0196 -0.8085 -0.4674
14035TIP3    H263521   0.085   2.443   1.552  0.9539 -0.2332 -0.6114
14036TIP3   OH263522   3.748   4.421   1.582 -0.0450 -0.0212 -0.2323
14036TIP3    H163523   3.743   4.327   1.567 -0.1491  0.4041 -3.1354
14036TIP3    H263524   3.671   4.441   1.636 -1.4077 -1.2190 -1.7042
14037TIP3   OH263525   4.630   3.984  16.550 -0.1766  0.5475 -0.2197
14037TIP3    H163526   4.720   4.006  16.525 -0.6764  0.3588 -2.3197
14037TIP3    H263527   4.624   3.890  16.535 -1.1803  0.8277 -1.6581
14038TIP3   OH263528   3.761   5.013  14.162  0.8807 -0.4383 -0.5386
14038TIP3    H163529   3.809   5.037  14.082 -0.5506  0.9299 -1.0123
14038TIP3    H263530   3.806   5.059  14.232  0.6341  0.3726 -0.9044
14039TIP3   OH263531   6.111   6.181   2.743 -0.3389  0.3080  0.6082
14039TIP3    H163532   6.205   6.181   2.764 -0.1786  0.9316 -0.0377
14039TIP3    H263533   6.106   6.135   2.659 -0.4097  1.5159 -0.0791
14040TIP3   OH263534   2.127   6.394   3.670  0.0436 -0.0655  0.1527
14040TIP3    H163535   2.216   6.422   3.692 -0.5028  0.7677  1.3970
14040TIP3    H263536   2.132   6.299   3.661  0.9269 -0.0931  0.9102
14041TIP3   OH263537   6.464   0.354  10.893  0.5843 -0.1859  0.3927
14041TIP3    H163538   6.455   0.291  10.965  0.0914  0.6178  1.0450
14041TIP3    H263539   6.533   0.414  10.922 -1.5745  1.8430  1.4865
14042TIP3   OH263540   2.003   0.429   2.075  0.1032 -0.3678  0.2231
14042TIP3    H163541   2.071   0.430   2.143  1.5312 -0.3788 -1.1942
14042TIP3    H263542   1.963   0.516   2.080  0.8514 -0.0295  0.4291
14043TIP3   OH263543   6.152   0.890   4.997  0.2219 -0.0267 -0.1759
14043TIP3    H163544   6.167   0.979   4.965 -0.3849  0.0465 -0.2562
14043TIP3    H263545   6.159   0.834   4.919 -1.2076  0.1463 -0.4340
14044TIP3   OH263546   6.387   1.682   2.700 -0.2850  0.2814 -0.0324
14044TIP3    H163547   6.471   1.685   2.654  0.0657 -0.5791  0.5398
14044TIP3    H263548   6.380   1.591   2.730 -0.3663  0.9271  1.9096
14045TIP3   OH263549   4.367   5.034   0.212  0.4621 -0.6149  0.1313
14045TIP3    H163550   4.344   5.118   0.173 -0.1389 -0.7707  0.1385
14045TIP3    H263551   4.450   5.050   0.256  0.7712 -0.2485 -0.5828
14046TIP3   OH263552   5.068   4.445  17.177 -0.0226 -0.1750 -0.0118
14046TIP3    H163553   4.985   4.434  17.225  0.3845  0.2844  0.7981
14046TIP3    H263554   5.113   4.515  17.222  2.5945 -3.0463  2.0245
14047TIP3   OH263555   4.332   2.738  13.660 -0.2641  0.4952 -0.1530
14047TIP3    H163556   4.368   2.661  13.615  1.0952  2.7222 -3.0742
14047TIP3    H263557   4.366   2.732  13.749  0.3232 -1.9511 -0.5002
14048TIP3   OH263558   3.502   1.829   2.418  0.0448  0.1098 -0.2790
14048TIP3    H163559   3.567   1.774   2.375 -1.5323 -1.5017 -0.7019
14048TIP3    H263560   3.540   1.916   2.418  2.0934 -0.7502 -0.7032
14049TIP3   OH263561   1.895   4.186   3.951 -0.5521 -0.2643  0.2078
14049TIP3    H163562   1.811   4.232   3.957  0.8067  2.1705  1.5156
14049TIP3    H263563   1.875   4.104   3.906 -3.6154  0.2762  0.4950
14050TIP3   OH263564   5.508   2.371   4.424  0.3998 -0.1731 -0.0405
14050TIP3    H163565   5.438   2.437   4.426 -0.0666 -0.6693 -0.1018
14050TIP3    H263566   5.474   2.298   4.475  0.7818 -0.5108 -0.2689
14051TIP3   OH263567   6.575   0.822  10.342  0.1213 -0.2052  0.4003
14051TIP3    H163568   6.490   0.781  10.334 -0.0060  0.1387 -0.0605
14051TIP3    H263569   6.559   0.915  10.326  0.8433 -0.3695 -1.4563
14052TIP3   OH263570   3.883   0.149  11.821 -0.4624  0.5650  0.0329
14052TIP3    H163571   3.840   0.064  11.823  0.3053  0.1428 -0.7759
14052TIP3    H263572   3.854   0.188  11.738 -0.8496  1.1174  0.4231
14053TIP3   OH263573   1.951   2.984   3.199 -0.0683  0.0858  0.8782
14053TIP3    H163574   1.934   3.071   3.162 -0.5085 -0.2136  0.3681
14053TIP3    H263575   1.869   2.937   3.188  0.3517 -0.5916  0.6090
14054TIP3   OH263576   6.033   0.934  16.225  0.2277 -0.6743  0.4122
14054TIP3    H163577   6.040   0.996  16.298  1.1893 -0.0371 -0.2180
14054TIP3    H263578   6.112   0.948  16.173 -1.3248  0.2071 -1.7935
14055TIP3   OH263579   1.265   0.708  12.577 -0.2734 -0.3270  0.8872
14055TIP3    H163580   1.275   0.652  12.500 -1.5933 -1.8086  1.7777
14055TIP3    H263581   1.280   0.797  12.543 -0.7311 -0.9586 -1.0584
14056TIP3   OH263582   6.213   0.184   2.693  0.1330 -0.5806  0.1931
14056TIP3    H163583   6.181   0.159   2.780 -0.0069 -1.3326 -0.0681
14056TIP3    H263584   6.137   0.173   2.636 -0.1792  1.3206  0.2184
14057TIP3   OH263585   1.777   6.400  11.257  0.4018  0.0364 -0.3253
14057TIP3    H163586   1.744   6.315  11.287  1.8278 -0.8522 -1.2457
14057TIP3    H263587   1.702   6.459  11.267 -0.1069 -0.9348  1.9412
14058TIP3   OH263588   2.111   4.532   5.756  0.1721  0.7812  0.3968
14058TIP3    H163589   2.085   4.610   5.707 -0.0158  0.6610  0.3079
14058TIP3    H263590   2.207   4.534   5.754  0.1661 -0.2936 -1.6816
14059TIP3   OH263591   5.641   5.294  12.153  0.2147  0.1445  0.4357
14059TIP3    H163592   5.701   5.307  12.226  1.0766 -0.7946 -0.0930
14059TIP3    H263593   5.584   5.371  12.154  0.6590  0.4652  1.6708
14060TIP3   OH263594   5.044   1.145  12.240 -0.3135  0.3155 -0.1665
14060TIP3    H163595   4.974   1.129  12.303  0.1145 -0.3572  0.1526
14060TIP3    H263596   5.124   1.142  12.292 -0.0390  1.0461 -0.5329
14061TIP3   OH263597   6.092   0.282   0.773 -0.5612  0.3659 -0.5450
14061TIP3    H163598   6.135   0.351   0.723  2.6328 -1.2599 -0.1608
14061TIP3    H263599   6.063   0.219   0.707 -0.0355  0.2188 -0.6366
14062TIP3   OH263600   4.076   2.391  11.045  0.1034 -0.1670 -0.2735
14062TIP3    H163601   4.059   2.457  11.112  1.0378 -0.3229  0.1245
14062TIP3    H263602   4.014   2.411  10.975 -0.9259 -0.0479  0.6697
14063TIP3   OH263603   5.338   4.957  16.818 -0.4852  0.8183 -0.6460
14063TIP3    H163604   5.288   4.891  16.769 -1.1120  0.4887  0.4262
14063TIP3    H263605   5.353   5.027  16.754 -1.5770  0.5408 -1.2338
14064TIP3   OH263606   0.837   4.237   4.269 -0.3090  0.2511 -0.5960
14064TIP3    H163607   0.922   4.195   4.255  0.4485  1.3007  0.6799
14064TIP3    H263608   0.855   4.330   4.258 -0.8442  0.6548  1.6106
14065TIP3   OH263609   2.670   6.132  14.312  0.3753  0.0730 -0.1391
14065TIP3    H163610   2.749   6.127  14.366  0.2440  0.9717  0.1498
14065TIP3    H263611   2.703   6.147  14.223  0.5129  1.8908  0.1869
14066TIP3   OH263612   4.079   3.146   5.045 -0.0157  0.8081 -0.1806
14066TIP3    H163613   4.137   3.074   5.068  1.3951  1.7184 -0.8359
14066TIP3    H263614   4.026   3.112   4.972 -0.4375 -0.0710  0.5230
14067TIP3   OH263615   0.009   5.015   2.129  0.6036 -0.2687  0.1509
14067TIP3    H163616  -0.043   5.079   2.081  1.7085 -0.4268 -1.2934
14067TIP3    H263617   0.007   5.045   2.220 -2.3789 -0.5242  0.2135
14068TIP3   OH263618   5.488   3.670   1.095  0.7669 -0.1766  0.0699
14068TIP3    H163619   5.482   3.707   1.184  2.0410  0.3162 -0.0276
14068TIP3    H263620   5.409   3.617   1.085 -1.2247  2.6743  0.1448
14069TIP3   OH263621   6.546   4.291  12.404  0.0140  0.1787 -0.4138
14069TIP3    H163622   6.611   4.311  12.337 -0.3156  0.1746 -0.7324
14069TIP3    H263623   6.475   4.247  12.357 -0.9009  1.5406 -0.3277
14070TIP3   OH263624   5.560   2.990   3.278  0.4190  0.0497  0.4892
14070TIP3    H163625   5.638   2.939   3.256  0.6956  1.0978 -1.0450
14070TIP3    H263626   5.590   3.081   3.282 -0.6444  0.4263  0.2302
14071TIP3   OH263627   3.884   0.640  14.442 -0.2396  0.1764 -0.0707
14071TIP3    H163628   3.817   0.708  14.449  0.4509  0.8027  0.5364
14071TIP3    H263629   3.892   0.624  14.347 -2.0925 -0.7772 -0.1010
14072TIP3   OH263630   0.310   1.207  15.263  0.0622  0.3856 -0.4168
14072TIP3    H163631   0.277   1.260  15.335 -0.4359  0.4680 -0.6986
14072TIP3    H263632   0.398   1.240  15.247 -0.0480  0.7684 -0.2362
14073TIP3   OH263633   4.498   1.619   3.142 -0.4170  0.2318  0.1818
14073TIP3    H163634   4.584   1.654   3.117  0.1363 -0.0883  1.6127
14073TIP3    H263635   4.516   1.528   3.166 -1.2455  0.0222  0.0050
14074TIP3   OH263636   0.984   4.701  14.744 -0.1042  0.3335 -0.4055
14074TIP3    H163637   1.062   4.705  14.800 -0.0833 -1.2110 -0.2841
14074TIP3    H263638   0.951   4.790  14.742  0.9311  0.7567  0.6064
14075TIP3   OH263639   0.144   2.466   4.127 -0.1872  0.0988 -0.6719
14075TIP3    H163640   0.223   2.491   4.080  0.9410 -0.7886  0.7422
14075TIP3    H263641   0.128   2.538   4.189  1.1295 -1.0176  1.0084
14076TIP3   OH263642   0.644   5.971   3.920  0.7878 -0.5305 -0.3153
14076TIP3    H163643   0.593   5.894   3.944 -0.3892 -0.0337 -1.2154
14076TIP3    H263644   0.582   6.043   3.921  1.1748 -0.1207 -2.6110
14077TIP3   OH263645   1.743   0.799  14.266 -0.6872 -0.0864  0.0049
14077TIP3    H163646   1.735   0.821  14.173  1.5873  0.2595 -0.1545
14077TIP3    H263647   1.664   0.833  14.306 -0.7133  1.6541 -1.4753
14078TIP3   OH263648   2.227   4.562   1.420 -0.5654 -0.0781  0.3437
14078TIP3    H163649   2.311   4.598   1.448  0.3564 -1.9315 -0.0422
14078TIP3    H263650   2.169   4.576   1.496 -0.3379  2.4619  0.1138
14079TIP3   OH263651   1.495   5.349  15.989  0.3664 -0.4421 -0.4121
14079TIP3    H163652   1.411   5.306  15.971  0.2343 -0.8192  0.9858
14079TIP3    H263653   1.550   5.279  16.025 -0.0508  0.6175  2.4586
14080TIP3   OH263654   3.110   0.342  11.572 -0.8094  0.4380 -0.4424
14080TIP3    H163655   3.131   0.402  11.500 -0.4423  3.4766  2.0642
14080TIP3    H263656   3.190   0.290  11.583 -0.5380  0.5832 -1.6148
14081TIP3   OH263657   4.130   5.941   3.947  0.3418  0.1968  1.0589
14081TIP3    H163658   4.109   5.994   4.024 -0.3167 -0.4273  1.3113
14081TIP3    H263659   4.065   5.871   3.947  0.9894 -0.4148  0.5263
14082TIP3   OH263660   6.367   0.992   1.172  0.7310  0.4449 -0.0590
14082TIP3    H163661   6.332   0.903   1.180  1.6576  0.0967  0.1199
14082TIP3    H263662   6.359   1.013   1.079  4.6195 -1.5363 -0.9385
14083TIP3   OH263663   0.039   4.208   2.983  0.2655 -0.3339  0.0078
14083TIP3    H163664   0.050   4.299   3.013 -0.2384  0.1347 -1.2267
14083TIP3    H263665   0.127   4.181   2.957  0.5576 -0.4649  1.0971
14084TIP3   OH263666   2.056   3.615  15.251 -0.7332  0.4176  0.1972
14084TIP3    H163667   2.099   3.535  15.281 -0.4989 -0.4341 -2.2870
14084TIP3    H263668   1.963   3.595  15.255 -0.7512  0.7586  1.5456
14085TIP3   OH263669   6.260   3.252  14.540  0.1041 -0.0913 -0.4036
14085TIP3    H163670   6.261   3.198  14.619  3.3847  0.9656  0.3621
14085TIP3    H263671   6.252   3.190  14.468  1.6581 -1.4575  0.5706
14086TIP3   OH263672   0.109   4.991   4.721 -0.4536 -0.6229 -0.1543
14086TIP3    H163673   0.133   4.898   4.718  3.8972  0.3490  1.2747
14086TIP3    H263674   0.140   5.026   4.637  1.6214  0.2974  0.9643
14087TIP3   OH263675   1.040   3.297  12.044 -0.0329 -0.3399 -0.3612
14087TIP3    H163676   0.963   3.331  12.089  0.2566  0.5127 -0.4997
14087TIP3    H263677   1.082   3.239  12.107 -0.1970  0.0384  0.0929
14088TIP3   OH263678   3.563   2.265  14.593  0.6993 -0.0059 -0.3247
14088TIP3    H163679   3.549   2.183  14.641 -1.3011  1.0740  1.0189
14088TIP3    H263680   3.516   2.253  14.511 -1.6512  0.6228  0.8672
14089TIP3   OH263681   3.123   4.233   1.009  0.4750 -0.0113 -0.1913
14089TIP3    H163682   3.148   4.200   1.095  1.9644  0.6079 -0.3848
14089TIP3    H263683   3.131   4.328   1.016  2.4760 -0.0475 -1.5881
14090TIP3   OH263684   4.742   0.336  14.802  0.0599 -0.1643  0.4819
14090TIP3    H163685   4.729   0.384  14.720  3.7255 -0.6539 -0.4997
14090TIP3    H263686   4.707   0.248  14.785 -0.4478  0.1463 -0.0712
14091TIP3   OH263687   2.875   2.897  13.042  0.3152 -0.3040 -0.3360
14091TIP3    H163688   2.821   2.840  12.986  1.2654 -0.4418 -1.1258
14091TIP3    H263689   2.829   2.981  13.042 -1.5661 -1.2878  1.5320
14092TIP3   OH263690   4.934   5.435   1.905 -0.1422 -0.3426 -0.4259
14092TIP3    H163691   4.963   5.345   1.888 -0.3386 -0.5140  0.1268
14092TIP3    H263692   4.997   5.490   1.858  1.4533 -0.6947  1.2507
14093TIP3   OH263693   3.563   2.272  11.911  0.9967 -0.1212  0.1405
14093TIP3    H163694   3.556   2.233  11.998  0.5419 -0.2189  0.0621
14093TIP3    H263695   3.588   2.199  11.854 -0.3031 -0.4090 -0.0846
14094TIP3   OH263696   6.302   0.150   4.682  0.0738 -0.2149 -0.2334
14094TIP3    H163697   6.323   0.091   4.609  0.5065  0.1756 -0.4269
14094TIP3    H263698   6.331   0.102   4.760 -1.0663 -0.9498 -0.2465
14095TIP3   OH263699   2.089   1.799  15.035  0.6161  0.8459 -0.0560
14095TIP3    H163700   2.091   1.892  15.060 -1.3396  0.6132  1.0291
14095TIP3    H263701   1.997   1.779  15.023  1.0039 -1.0399 -0.0312
14096TIP3   OH263702   0.806   5.652   3.754 -0.5125  0.0506  0.0101
14096TIP3    H163703   0.818   5.712   3.680  0.2593  1.7919  1.5072
14096TIP3    H263704   0.883   5.595   3.751  0.8803  1.8377  1.0127
14097TIP3   OH263705   3.998   4.986   6.274  0.2890  0.7397 -0.1803
14097TIP3    H163706   3.925   4.925   6.274 -1.0161  2.2630 -0.8471
14097TIP3    H263707   4.016   5.002   6.366  0.9152 -0.9349  0.0099
14098TIP3   OH263708   0.731   1.455   1.559 -0.5753  0.2507  0.5135
14098TIP3    H163709   0.747   1.402   1.637 -0.4306  0.3370  0.5432
14098TIP3    H263710   0.805   1.435   1.501 -0.8853 -0.1126  0.2366
14099TIP3   OH263711   5.785   3.018   3.058 -0.2475 -0.2346  0.4126
14099TIP3    H163712   5.823   2.986   3.140  0.1155 -0.1006  0.2953
14099TIP3    H263713   5.860   3.042   3.004 -0.5051  0.8089  0.4917
14100TIP3   OH263714   4.214   5.372  12.235 -0.1609 -0.4386 -0.0799
14100TIP3    H163715   4.143   5.434  12.222  0.2030  0.1342  0.6424
14100TIP3    H263716   4.276   5.391  12.165 -0.9664 -1.3009 -1.0371
14101TIP3   OH263717   4.880   3.231  17.189 -0.1833  0.1714  0.3658
14101TIP3    H163718   4.892   3.316  17.147 -0.5445 -1.0289 -2.2316
14101TIP3    H263719   4.786   3.214  17.185 -0.2499  0.0757  1.7889
14102TIP3   OH263720   6.018   2.576  13.116 -0.8951  0.3413 -0.3491
14102TIP3    H163721   6.041   2.663  13.083  1.7633 -0.1934 -0.0103
14102TIP3    H263722   6.006   2.523  13.038 -1.2387  0.6979 -0.5393
14103TIP3   OH263723   2.955   1.256   0.019  1.0114  0.7218  0.2640
14103TIP3    H163724   2.887   1.319  -0.007  0.0771 -0.2861  0.2461
14103TIP3    H263725   3.017   1.256  -0.054 -0.1509 -0.0247 -0.7423
14104TIP3   OH263726   4.471   4.532   1.407 -0.1023 -0.6943  0.2047
14104TIP3    H163727   4.402   4.497   1.351 -1.1842  0.4763  0.7973
14104TIP3    H263728   4.534   4.460   1.414 -1.3576 -1.8549 -0.1516
14105TIP3   OH263729   5.142   2.930   4.436 -0.0160 -0.3549  0.5157
14105TIP3    H163730   5.172   2.930   4.345  0.6215  0.8916  0.7241
14105TIP3    H263731   5.091   2.849   4.444 -1.5628  0.3799 -1.4333
14106TIP3   OH263732   6.719   5.910  16.649 -0.3121 -0.3474  0.4923
14106TIP3    H163733   6.801   5.868  16.624 -0.6831 -1.0081  0.3646
14106TIP3    H263734   6.651   5.855  16.611 -0.8201  0.0782  0.7702
14107TIP3   OH263735   0.571   2.302   0.779 -0.1123  0.2222  0.0300
14107TIP3    H163736   0.523   2.382   0.799  0.0661  0.2569  0.3340
14107TIP3    H263737   0.602   2.313   0.689  1.7026  1.4061  0.7624
14108TIP3   OH263738   3.435   2.692  16.344 -0.4003 -0.5844 -0.1899
14108TIP3    H163739   3.408   2.661  16.258  0.0096  0.9620 -0.9042
14108TIP3    H263740   3.528   2.668  16.350 -0.5022 -0.9458 -0.0615
14109TIP3   OH263741   1.713   4.886   4.752 -0.3645  0.6378  0.1008
14109TIP3    H163742   1.675   4.921   4.832  0.1438  0.3577  0.4637
14109TIP3    H263743   1.796   4.932   4.742 -1.1706  1.8599 -1.1461
14110TIP3   OH263744   1.282   6.211   1.004 -0.1602  0.3831 -0.0214
14110TIP3    H163745   1.375   6.223   0.985 -0.0900  0.5202  0.3920
14110TIP3    H263746   1.250   6.151   0.937  0.2391  0.2950 -0.1292
14111TIP3   OH263747   5.325   4.586   1.185 -0.4271 -0.1094 -0.2809
14111TIP3    H163748   5.325   4.493   1.208  1.2228 -1.0815 -3.8408
14111TIP3    H263749   5.403   4.597   1.131 -1.4251  3.0083 -1.1791
14112TIP3   OH263750   6.097   4.025  16.143  0.4323 -0.0491 -0.0468
14112TIP3    H163751   6.061   4.104  16.183  0.7132 -0.4403  0.9752
14112TIP3    H263752   6.035   4.003  16.073 -0.7656 -0.1413  1.0410
14113TIP3   OH263753   5.068   4.919   5.353 -0.5540 -0.8175 -0.0476
14113TIP3    H163754   5.043   5.001   5.310 -0.0740 -1.7159 -2.0854
14113TIP3    H263755   5.156   4.935   5.387  0.3084 -1.0788 -2.0993
14114TIP3   OH263756   0.765   3.537   4.025  0.3483 -0.0842  0.5543
14114TIP3    H163757   0.762   3.510   3.934  0.1751  0.6743  0.3294
14114TIP3    H263758   0.792   3.629   4.022  0.7515 -0.1786  1.2877
14115TIP3   OH263759   6.240   2.357   1.205 -0.4507  0.4098  0.4393
14115TIP3    H163760   6.295   2.425   1.244 -2.0744  0.5065  2.7137
14115TIP3    H263761   6.161   2.403   1.178 -0.8698 -0.2971  0.4587
14116TIP3   OH263762   0.242   5.529  11.809 -0.5017  1.0108 -0.6572
14116TIP3    H163763   0.231   5.538  11.904  0.7134  0.6498 -0.4790
14116TIP3    H263764   0.213   5.614  11.774 -1.3082  1.0131 -0.0053
14117TIP3   OH263765   1.768   3.303   0.108  0.1145  0.2273 -0.1073
14117TIP3    H163766   1.782   3.364   0.180  1.0750  2.1307 -1.8569
14117TIP3    H263767   1.849   3.253   0.102  0.0091  0.0220  0.1606
14118TIP3   OH263768   1.769   4.731  15.607  0.6790 -0.1551  0.4609
14118TIP3    H163769   1.860   4.702  15.599  1.3490  2.5267 -3.0747
14118TIP3    H263770   1.718   4.659  15.570  1.4597 -1.0647  1.1305
14119TIP3   OH263771   5.988   2.513  11.160  0.5114 -0.4557 -0.1873
14119TIP3    H163772   6.011   2.478  11.074  0.3758 -2.0322  0.4024
14119TIP3    H263773   5.977   2.436  11.216 -0.2303  0.5051  1.0442
14120TIP3   OH263774   3.671   3.857  14.039 -0.2254  0.0673 -0.0553
14120TIP3    H163775   3.650   3.901  14.122 -0.1842 -0.7331  0.3861
14120TIP3    H263776   3.753   3.898  14.011  1.1153 -1.3828  1.5878
14121TIP3   OH263777   4.567   6.390  12.966  0.3374  0.9912  0.2140
14121TIP3    H163778   4.555   6.484  12.976 -0.2810  0.9266  0.0817
14121TIP3    H263779   4.633   6.381  12.898 -1.0334  1.2922 -1.1771
14122TIP3   OH263780   4.427   6.116  16.456  0.3918 -0.1354  0.2497
14122TIP3    H163781   4.407   6.197  16.502  0.4648 -0.6545  1.2300
14122TIP3    H263782   4.343   6.089  16.417  0.8723  1.6144 -2.0903
14123TIP3   OH263783   0.178   0.326   4.504 -0.0318  0.2939 -0.3277
14123TIP3    H163784   0.095   0.350   4.464 -0.2577 -0.7325 -0.4995
14123TIP3    H263785   0.244   0.354   4.441 -0.1282  2.8280  0.6636
14124TIP3   OH263786   0.025   2.461  14.368  0.2634 -0.3512  0.0153
14124TIP3    H163787  -0.033   2.385  14.377  0.9602 -0.7888  1.0187
14124TIP3    H263788   0.044   2.487  14.459  2.2099 -0.6760 -0.2674
14125TIP3   OH263789   4.158   5.931  11.402 -0.5639  0.6080  0.5719
14125TIP3    H163790   4.174   5.925  11.307  0.3260  2.4532  0.5810
14125TIP3    H263791   4.077   5.982  11.409 -1.1375 -0.3202  0.7957
14126TIP3   OH263792   1.908   0.882   1.528 -0.1404 -0.4425 -0.2418
14126TIP3    H163793   1.869   0.797   1.550 -1.4583  0.0724 -0.5235
14126TIP3    H263794   1.938   0.917   1.612  0.3625 -1.1643 -0.1163
14127TIP3   OH263795   3.236   1.211  13.727 -0.2394 -0.0312  0.2969
14127TIP3    H163796   3.232   1.133  13.672  0.3148 -0.4904  0.9008
14127TIP3    H263797   3.157   1.260  13.705  0.5323  0.3408 -1.7092
14128TIP3   OH263798   0.441   2.479   1.334  0.4411  0.2995  0.7547
14128TIP3    H163799   0.382   2.506   1.405  0.2722 -0.7674  1.0246
14128TIP3    H263800   0.437   2.551   1.271  0.5843  1.2559  1.8256
14129TIP3   OH263801   2.152   4.868  12.898 -0.4978  0.3388 -0.0538
14129TIP3    H163802   2.115   4.793  12.851  1.7805  0.2682 -1.8047
14129TIP3    H263803   2.127   4.944  12.846  0.8461  0.3890 -0.6497
14130TIP3   OH263804   4.830   6.620   5.972  0.4431  0.0378  0.5249
14130TIP3    H163805   4.775   6.541   5.979 -0.4053  0.4231 -1.3730
14130TIP3    H263806   4.919   6.587   5.981  0.0516 -1.0086  0.7523
14131TIP3   OH263807   0.486   2.638   5.358 -0.4054 -0.5068 -0.2047
14131TIP3    H163808   0.424   2.609   5.425 -0.7623 -0.8605 -0.6845
14131TIP3    H263809   0.552   2.569   5.355  0.5683  0.3405  1.0088
14132TIP3   OH263810   0.351   3.611  14.610  0.5325  0.1583  0.4618
14132TIP3    H163811   0.282   3.550  14.583  1.2548 -0.2288 -0.5432
14132TIP3    H263812   0.342   3.686  14.551 -0.5482  1.1686  1.8964
14133TIP3   OH263813   0.384   2.439  12.536 -0.4740 -0.0441 -0.1461
14133TIP3    H163814   0.351   2.354  12.507  0.7324 -0.1117 -1.3650
14133TIP3    H263815   0.369   2.497  12.461  2.8360 -0.2594 -1.0463
14134TIP3   OH263816   0.717   5.233  10.631  0.2280 -0.3396  0.2204
14134TIP3    H163817   0.650   5.301  10.620  1.0983  0.2352 -1.8166
14134TIP3    H263818   0.673   5.163  10.678 -2.1080 -0.3983 -1.9529
14135TIP3   OH263819   0.291   0.923  15.806  0.3957 -0.5065  0.0627
14135TIP3    H163820   0.254   0.958  15.887  0.9377 -0.7311  0.4071
14135TIP3    H263821   0.251   0.976  15.737  0.8970  0.5361  0.5521
14136TIP3   OH263822   3.724   2.257  14.925  0.4204 -0.0114  0.2192
14136TIP3    H163823   3.776   2.323  14.879  1.8300 -1.0267  0.3562
14136TIP3    H263824   3.739   2.176  14.877 -1.0508 -0.3286  0.2508
14137TIP3   OH263825   2.850   4.686   2.880  0.2525 -0.1607  0.1562
14137TIP3    H163826   2.891   4.741   2.814 -0.0707  0.1459  0.2055
14137TIP3    H263827   2.824   4.747   2.950 -0.1839 -0.3587  0.1731
14138TIP3   OH263828   1.934   4.059   2.144 -0.9063  0.3163  0.0303
14138TIP3    H163829   1.965   4.121   2.210  1.5447  0.9525 -1.6386
14138TIP3    H263830   1.969   3.975   2.172  1.1846  0.7872 -1.0434
14139TIP3   OH263831   6.517   3.444  15.818 -0.2565 -0.0527 -0.1282
14139TIP3    H163832   6.429   3.475  15.838  0.3616  1.4167  0.3924
14139TIP3    H263833   6.527   3.458  15.723  0.0999  1.5911  0.1427
14140TIP3   OH263834   3.207   5.338  16.637  0.0594  0.0148  0.5661
14140TIP3    H163835   3.253   5.400  16.694  0.1619  0.1179  0.3688
14140TIP3    H263836   3.130   5.312  16.688 -0.7539  1.4010  0.0726
14141TIP3   OH263837   0.437   3.842   4.508 -0.1919  0.2739  0.0315
14141TIP3    H163838   0.439   3.751   4.478 -0.0906  0.3285 -0.1279
14141TIP3    H263839   0.421   3.836   4.602 -1.5709  0.1335 -0.2061
14142TIP3   OH263840   5.506   0.066   0.702  0.6798 -0.6098  0.2694
14142TIP3    H163841   5.556   0.037   0.625 -1.9470 -2.6777 -0.7564
14142TIP3    H263842   5.525   0.000   0.769 -1.0523 -1.7739 -0.3273
14143TIP3   OH263843   2.826   1.968   0.545  0.0998  0.2853 -0.6987
14143TIP3    H163844   2.733   1.964   0.524 -0.2659 -1.7676  1.2495
14143TIP3    H263845   2.866   1.901   0.489  0.1607 -0.0319 -0.2765
14144TIP3   OH263846   5.691   6.741  12.042 -0.3870  0.2513  0.1388
14144TIP3    H163847   5.663   6.798  11.970 -0.5474 -0.9878 -0.7970
14144TIP3    H263848   5.621   6.749  12.107 -3.1448 -2.9589 -2.2489
14145TIP3   OH263849   3.379   5.018   5.433 -0.6859  0.2188  0.2029
14145TIP3    H163850   3.445   4.958   5.399 -0.3242  1.5290 -1.4552
14145TIP3    H263851   3.301   4.963   5.444 -0.1072 -0.7513 -0.4062
14146TIP3   OH263852   5.234   0.483  11.619  0.0720  0.1256  0.0573
14146TIP3    H163853   5.305   0.528  11.665  0.8284  0.3483 -1.3157
14146TIP3    H263854   5.246   0.391  11.640  0.3403  0.2371  0.3996
14147TIP3   OH263855   3.322   6.631  12.861  0.6319 -0.0076  0.7620
14147TIP3    H163856   3.293   6.704  12.915 -1.2099 -1.5637  1.9607
14147TIP3    H263857   3.327   6.557  12.922  0.1887 -1.4121 -0.8657
14148TIP3   OH263858   3.996   3.106  12.371  0.2200  0.1328  0.4425
14148TIP3    H163859   4.023   3.191  12.405  3.4613 -0.3120 -0.7644
14148TIP3    H263860   3.997   3.048  12.447  2.9325  0.1256  0.4471
14149TIP3   OH263861   6.085   5.160  14.737 -0.1596  0.3622 -0.4609
14149TIP3    H163862   5.999   5.124  14.760  0.3424 -0.1497  0.6678
14149TIP3    H263863   6.118   5.101  14.669  1.0214 -1.8956  1.9799
14150TIP3   OH263864   2.971   4.007  13.666  0.0485  0.4874 -0.2856
14150TIP3    H163865   3.057   4.015  13.708 -0.2768 -1.9206  0.8902
14150TIP3    H263866   2.991   3.993  13.574  0.9396 -0.8040  0.0979
14151TIP3   OH263867   1.553   2.553   0.013 -0.3434  0.4506 -0.5204
14151TIP3    H163868   1.638   2.588   0.040 -0.5480  0.6398 -0.1189
14151TIP3    H263869   1.518   2.511   0.091 -0.8426  0.8070 -0.5460
14152TIP3   OH263870   2.128   2.549  15.802  0.0508  0.3498 -0.4238
14152TIP3    H163871   2.193   2.576  15.736  0.0969  1.2963  0.0134
14152TIP3    H263872   2.140   2.610  15.874 -0.6491 -0.1083  0.0823
14153TIP3   OH263873   1.947   5.784  16.169 -0.4414 -0.5973  0.2887
14153TIP3    H163874   1.981   5.783  16.079  0.3146 -1.2407  0.5855
14153TIP3    H263875   1.852   5.772  16.158 -0.2245 -1.7235 -0.3596
14154TIP3   OH263876   2.753   1.353   1.642 -0.1881  0.7342  0.4310
14154TIP3    H163877   2.813   1.309   1.702 -1.2243  0.2877  1.1551
14154TIP3    H263878   2.733   1.287   1.575 -0.0366  0.8180  0.3022
14155TIP3   OH263879   2.265   2.403  16.031 -0.4205 -0.0052  0.4788
14155TIP3    H163880   2.210   2.406  15.953  0.5082 -0.3976 -0.1982
14155TIP3    H263881   2.203   2.396  16.104 -1.2685 -0.2826 -0.2601
14156TIP3   OH263882   0.675   1.012  15.167 -0.6446  0.0810  0.3381
14156TIP3    H163883   0.613   0.943  15.189 -0.4409 -0.6313 -1.2257
14156TIP3    H263884   0.760   0.968  15.166 -0.7476 -0.1524 -2.7071
14157TIP3   OH263885   5.853   0.640  13.008  0.1719 -0.0884  0.3938
14157TIP3    H163886   5.935   0.642  12.959  0.2482  1.0206  0.5704
14157TIP3    H263887   5.787   0.618  12.941  0.8518 -2.9994  0.6192
14158TIP3   OH263888   3.825   3.828   5.032  0.5311 -0.0911 -0.1478
14158TIP3    H163889   3.846   3.879   4.953  1.0116 -0.6157 -0.3576
14158TIP3    H263890   3.772   3.888   5.084 -1.1983 -0.2978 -1.6056
14159TIP3   OH263891   0.030   4.902  12.029  1.0630  0.6195 -0.1548
14159TIP3    H163892   0.053   4.819  12.071  1.3846  1.0809  0.5822
14159TIP3    H263893   0.112   4.931  11.987  1.6381  1.8443  1.7633
14160TIP3   OH263894   2.603   2.198  15.008  0.0452  0.2536  0.0174
14160TIP3    H163895   2.622   2.112  15.044  1.1960  0.5080  0.0270
14160TIP3    H263896   2.586   2.253  15.084 -0.0551  0.1881  0.0438
14161TIP3   OH263897   5.921   2.344  12.310 -0.3913  0.0838  0.0525
14161TIP3    H163898   5.904   2.367  12.219 -2.2305 -0.4193  0.2446
14161TIP3    H263899   5.940   2.250  12.308  1.3446  0.4287 -0.0240
14162TIP3   OH263900   5.105   0.837  16.448 -0.4038 -0.0596 -0.1168
14162TIP3    H163901   5.157   0.866  16.524  1.0108 -0.5069 -0.9005
14162TIP3    H263902   5.102   0.741  16.457  0.5452 -0.1857 -1.1178
14163TIP3   OH263903   3.781   3.163  11.502  0.1589 -0.1282  0.0323
14163TIP3    H163904   3.768   3.256  11.520 -0.1432  0.1856 -1.7212
14163TIP3    H263905   3.791   3.123  11.589  3.1657  1.9230  0.7124
14164TIP3   OH263906   1.151   3.205  12.582 -0.5005  0.2305 -0.1953
14164TIP3    H163907   1.081   3.240  12.526  1.7014  1.3077 -2.3442
14164TIP3    H263908   1.229   3.252  12.555  1.8103 -3.5430 -0.3776
14165TIP3   OH263909   3.706   3.952   0.750 -0.1609 -0.2831  0.5842
14165TIP3    H163910   3.726   3.964   0.843 -0.1671  4.2530  0.1097
14165TIP3    H263911   3.611   3.950   0.746 -0.2057  1.5035  0.5055
14166TIP3   OH263912   1.585   3.283   1.318 -0.2339 -0.1496  0.2370
14166TIP3    H163913   1.659   3.334   1.350  0.0617 -0.3701 -0.0893
14166TIP3    H263914   1.514   3.301   1.379  0.4564 -0.9417  1.2905
14167TIP3   OH263915   5.877   6.401   4.254 -0.2466  0.0222  0.4395
14167TIP3    H163916   5.961   6.367   4.223 -0.2843  0.2334  0.1074
14167TIP3    H263917   5.884   6.496   4.242 -0.3212  0.0893  0.9278
14168TIP3   OH263918   0.534   3.499   3.062  0.5756 -0.1955 -0.0373
14168TIP3    H163919   0.449   3.460   3.042  0.6622 -0.5367  0.2599
14168TIP3    H263920   0.596   3.426   3.056  1.1825  0.4477 -2.4661
14169TIP3   OH263921   3.522   1.778  12.063 -0.1867  0.0925 -0.2607
14169TIP3    H163922   3.429   1.758  12.070 -0.1515 -0.6608 -1.7857
14169TIP3    H263923   3.554   1.720  11.994  1.3709  0.4900  0.1118
14170TIP3   OH263924   1.844   1.897   5.759 -0.0051 -0.0340  0.8300
14170TIP3    H163925   1.932   1.886   5.795 -0.2468 -1.0835  1.1108
14170TIP3    H263926   1.813   1.808   5.742 -1.0834  0.3152  0.8984
14171TIP3   OH263927   6.750   5.577  16.548  0.3902 -0.0392 -0.6065
14171TIP3    H163928   6.809   5.504  16.531  1.1214  0.4773 -0.3045
14171TIP3    H263929   6.807   5.648  16.576 -0.4876  0.1299  0.7874
14172TIP3   OH263930   2.025   6.332   5.571  0.1595  0.1670  0.1768
14172TIP3    H163931   2.101   6.290   5.531 -0.6304 -1.6292  0.5089
14172TIP3    H263932   2.056   6.365   5.655  0.7700  0.1591 -0.0466
14173TIP3   OH263933   3.185   5.358   1.404 -0.2721  0.1040  0.5064
14173TIP3    H163934   3.185   5.312   1.489  0.6161 -0.8779 -0.0132
14173TIP3    H263935   3.115   5.422   1.412  0.0423  0.2707  2.1298
14174TIP3   OH263936   1.161   2.721  17.032 -0.3225 -0.3003 -0.0378
14174TIP3    H163937   1.239   2.775  17.047 -1.3521  1.6931 -1.5814
14174TIP3    H263938   1.179   2.639  17.078  2.2454  0.5103  0.4758
14175TIP3   OH263939   5.450   5.183   6.197  0.1627  0.2693 -0.1430
14175TIP3    H163940   5.385   5.237   6.242  0.0834 -0.1141  0.2056
14175TIP3    H263941   5.408   5.155   6.116 -0.6307 -1.1704  0.7548
14176TIP3   OH263942   3.782   6.720   6.106 -0.3719  0.0807  0.2041
14176TIP3    H163943   3.797   6.773   6.184 -0.1638  0.6897 -0.2533
14176TIP3    H263944   3.691   6.690   6.115 -1.0273  1.8609 -0.3530
14177TIP3   OH263945   2.052   3.342   3.856  0.1292 -0.4461  0.5145
14177TIP3    H163946   2.140   3.368   3.880  0.1908 -0.2900  0.1324
14177TIP3    H263947   2.004   3.425   3.846  0.5287 -0.4231 -1.4741
14178TIP3   OH263948   3.624   3.557  17.095 -0.5719  0.0736  0.2466
14178TIP3    H163949   3.692   3.538  17.030 -1.0773 -0.9294 -0.0020
14178TIP3    H263950   3.664   3.620  17.154  0.7547 -0.8729  0.3786
14179TIP3   OH263951   2.302   3.157   0.972 -0.3776  0.0005 -0.0671
14179TIP3    H163952   2.303   3.214   0.895 -0.7699  2.1660  1.4854
14179TIP3    H263953   2.394   3.137   0.989  0.0082  2.4803  0.9908
14180TIP3   OH263954   0.126   4.316   4.306 -0.1438  0.2965 -0.6856
14180TIP3    H163955   0.095   4.246   4.248  0.8469 -0.0887 -0.7701
14180TIP3    H263956   0.220   4.299   4.314 -0.1776  0.6925  0.5646
14181TIP3   OH263957   6.686   6.458   1.499 -0.6478  0.6378  0.2327
14181TIP3    H163958   6.660   6.368   1.479 -0.6212  0.5510  0.6015
14181TIP3    H263959   6.630   6.483   1.573 -0.0570  0.6380  0.6759
14182TIP3   OH263960   4.610   4.316  14.332  0.1216  0.4258  0.0113
14182TIP3    H163961   4.650   4.399  14.360  0.3120  0.0521  0.8344
14182TIP3    H263962   4.642   4.251  14.394 -1.3175  0.0140  0.3473
14183TIP3   OH263963   5.769   5.245  13.029 -0.4838  0.0340 -0.6393
14183TIP3    H163964   5.791   5.220  12.939  0.1874 -0.6746 -0.2830
14183TIP3    H263965   5.714   5.173  13.061  0.9691 -0.7324  0.1956
14184TIP3   OH263966   4.338   3.606   1.903  0.3016  0.6616  0.0512
14184TIP3    H163967   4.290   3.671   1.852  1.8788  1.8591  0.0629
14184TIP3    H263968   4.423   3.599   1.861  0.3340 -1.0577  0.3472
14185TIP3   OH263969   1.297   1.724   3.525  0.7221  0.0834 -0.8365
14185TIP3    H163970   1.275   1.784   3.596  0.2117  0.7345 -1.5426
14185TIP3    H263971   1.285   1.637   3.562  0.4571  0.4224 -0.1257
14186TIP3   OH263972   1.740   4.624   2.931  0.1251 -0.0795  0.5628
14186TIP3    H163973   1.667   4.562   2.939 -1.5682  1.8320  0.2804
14186TIP3    H263974   1.818   4.568   2.931 -1.4273 -2.4252 -2.3306
14187TIP3   OH263975   2.247   2.592   3.094 -0.3487 -0.5817 -0.5615
14187TIP3    H163976   2.205   2.658   3.149  0.6516  0.7701 -1.4158
14187TIP3    H263977   2.297   2.538   3.156  1.3739  1.3856 -0.2161
14188TIP3   OH263978   2.909   0.390   4.238 -0.0446  0.2530  0.3155
14188TIP3    H163979   2.867   0.334   4.304 -1.0554  0.6895  0.0482
14188TIP3    H263980   3.003   0.376   4.252 -0.2704 -1.0858  0.6146
14189TIP3   OH263981   5.110   2.210   5.690  0.1609 -0.6262 -0.6189
14189TIP3    H163982   5.047   2.221   5.619  0.2774  0.9356 -0.4894
14189TIP3    H263983   5.057   2.204   5.769  0.1760  1.6165 -0.4017
14190TIP3   OH263984   1.216   5.414   1.526  0.1700  0.1705  0.7068
14190TIP3    H163985   1.196   5.323   1.546  1.2313 -0.8377 -2.5805
14190TIP3    H263986   1.309   5.423   1.548  0.1860  0.3462  0.5636
14191TIP3   OH263987   0.263   4.059   3.309  0.1764  0.2617  0.9186
14191TIP3    H163988   0.239   4.116   3.236 -1.4900  0.2574  1.4187
14191TIP3    H263989   0.300   3.981   3.268  0.5620  0.8450  0.1428
14192TIP3   OH263990   0.878   4.822   0.598 -0.1679 -0.3243  0.1476
14192TIP3    H163991   0.897   4.788   0.685  0.2886 -0.6658 -0.0842
14192TIP3    H263992   0.872   4.917   0.610 -0.4185 -0.3988  0.6063
14193TIP3   OH263993   6.195   1.041   2.264 -0.2707  0.3208 -0.0695
14193TIP3    H163994   6.155   1.063   2.180 -0.4673  1.9269  0.4353
14193TIP3    H263995   6.202   1.125   2.310 -0.7571 -0.6171  1.7719
14194TIP3   OH263996   2.598   1.996  15.424  0.6527 -0.3785  0.4469
14194TIP3    H163997   2.623   1.999  15.516  1.0513  1.2361  0.3077
14194TIP3    H263998   2.664   1.940  15.383  2.3340  1.3724  0.6347
14195TIP3   OH263999   6.557   6.295  15.871 -0.2573 -0.2866  0.0160
14195TIP3    H164000   6.553   6.319  15.963 -0.0135 -1.2737  0.2820
14195TIP3    H264001   6.465   6.295  15.842 -0.2713  0.8867  0.0207
14196TIP3   OH264002   0.674   0.393   1.200  0.2866  0.0010 -0.0104
14196TIP3    H164003   0.721   0.434   1.127  2.5374 -0.7730  0.9476
14196TIP3    H264004   0.657   0.465   1.260  2.0209 -0.0074  0.5242
14197TIP3   OH264005   5.626   0.372   3.517  0.0940 -0.5841 -0.1652
14197TIP3    H164006   5.706   0.421   3.496  2.0850 -3.2158  1.0207
14197TIP3    H264007   5.611   0.317   3.441  1.0721 -2.1582  0.7540
14198TIP3   OH264008   4.966   0.043  11.750 -0.0996 -0.3771 -0.0398
14198TIP3    H164009   4.878   0.060  11.719 -0.9007 -3.3670  0.3698
14198TIP3    H264010   5.009  -0.002  11.677  0.5739 -0.3083  0.3083
14199TIP3   OH264011   3.717   0.961   1.284 -0.6234  0.2119  0.6544
14199TIP3    H164012   3.665   0.885   1.308 -2.5093  1.4290  0.5792
14199TIP3    H264013   3.680   0.989   1.200  0.0838  1.1542  0.6523
14200TIP3   OH264014   3.054   6.071  15.472  0.0506  0.2837 -0.0361
14200TIP3    H164015   3.142   6.050  15.503  0.2363  0.4217 -0.4664
14200TIP3    H264016   3.047   6.166  15.481 -0.1673  0.2387  0.2847
14201TIP3   OH264017   3.564   6.747   5.002 -0.2585 -0.1938  0.8254
14201TIP3    H164018   3.514   6.758   5.083 -1.2025  0.6202  0.1281
14201TIP3    H264019   3.617   6.826   4.995 -0.4425 -0.1031  0.4538
14202TIP3   OH264020   6.535   5.633   5.155  0.1772 -0.0135  0.2925
14202TIP3    H164021   6.626   5.623   5.183 -0.2795 -1.4104  1.3187
14202TIP3    H264022   6.494   5.682   5.225  0.0027  0.1370  0.0860
14203TIP3   OH264023   0.209   2.312  10.936  0.4961 -0.1792  0.0711
14203TIP3    H164024   0.197   2.229  10.981  1.4373  0.9011  2.3699
14203TIP3    H264025   0.211   2.289  10.843 -1.6562 -2.4245  0.5280
14204TIP3   OH264026   5.433   3.723  13.961 -0.0809 -1.0908 -0.2565
14204TIP3    H164027   5.510   3.772  13.931 -0.7084  0.0140 -0.0770
14204TIP3    H264028   5.467   3.636  13.982  0.8303 -1.0976 -1.7049
14205TIP3   OH264029   4.003   4.612  16.802 -0.0491 -0.1222  0.6138
14205TIP3    H164030   3.975   4.646  16.717  1.2538 -0.3052  0.0927
14205TIP3    H264031   3.924   4.570  16.838 -0.5397 -0.3064 -0.6348
14206TIP3   OH264032   4.802   3.575  13.790 -0.4690  0.0648  0.1502
14206TIP3    H164033   4.850   3.507  13.743 -1.0897  0.0716 -0.5055
14206TIP3    H264034   4.799   3.649  13.729 -1.8811 -0.1709 -0.0928
14207TIP3   OH264035   4.403   0.742   4.140 -0.3245 -0.5119  0.7166
14207TIP3    H164036   4.481   0.695   4.111 -0.1764  0.5859 -0.7250
14207TIP3    H264037   4.408   0.739   4.236  0.1640 -2.5928  0.6611
14208TIP3   OH264038   1.306   4.180  12.357 -0.4186 -0.1339  0.4284
14208TIP3    H164039   1.271   4.257  12.311  0.5917  0.2028  0.2145
14208TIP3    H264040   1.344   4.126  12.288 -2.6673 -1.6912  0.3513
14209TIP3   OH264041   6.215   1.252   0.986  0.4976  0.2360 -0.1284
14209TIP3    H164042   6.276   1.200   0.935  1.0239  0.1407  0.6024
14209TIP3    H264043   6.144   1.272   0.924  0.5200 -0.9288 -0.5434
14210TIP3   OH264044   6.176   5.079   3.396  0.0139 -0.7263  0.2230
14210TIP3    H164045   6.242   5.068   3.327 -0.5811  0.4485 -0.5377
14210TIP3    H264046   6.097   5.104   3.349 -0.9842 -2.0738  1.1403
14211TIP3   OH264047   6.351   3.578   6.260 -0.3600 -0.6559  0.3835
14211TIP3    H164048   6.359   3.673   6.250  0.6708 -0.8992 -1.2650
14211TIP3    H264049   6.429   3.543   6.218 -2.5617 -2.4052 -2.3889
14212TIP3   OH264050   0.967   1.382  17.016  0.2682 -0.4047 -0.3827
14212TIP3    H164051   0.920   1.420  17.090  0.2282 -0.0149 -0.6097
14212TIP3    H264052   0.950   1.288  17.022 -1.2885 -0.1784 -0.9711
14213TIP3   OH264053   0.386   3.525   0.263  0.8568  0.3260  0.1351
14213TIP3    H164054   0.356   3.452   0.210  1.5295  0.0408  0.1424
14213TIP3    H264055   0.308   3.578   0.278  0.1805 -0.9144  0.9776
14214TIP3   OH264056   1.394   3.773  15.594  0.0009  0.2476 -0.4857
14214TIP3    H164057   1.328   3.830  15.634  1.1394  2.2197 -1.3130
14214TIP3    H264058   1.456   3.834  15.554  0.6368 -1.6136 -2.4166
14215TIP3   OH264059   1.422   0.965   0.133  0.2019 -0.2568  0.3745
14215TIP3    H164060   1.502   0.927   0.168  1.4326  1.0442 -0.9776
14215TIP3    H264061   1.352   0.926   0.185  2.0034  2.2005  4.8983
14216TIP3   OH264062   1.307   5.686   1.808 -0.0967  0.0574 -0.2065
14216TIP3    H164063   1.288   5.669   1.900 -0.8652  0.2430 -0.3328
14216TIP3    H264064   1.377   5.625   1.786  2.2491  2.1042  1.3330
14217TIP3   OH264065   6.216   2.751  17.094 -0.3679 -0.1606  0.0758
14217TIP3    H164066   6.305   2.753  17.129 -0.6049  1.9529  0.6148
14217TIP3    H264067   6.160   2.752  17.171 -0.8742  0.8017 -0.3016
14218TIP3   OH264068   5.127   3.844   4.709  0.2352 -0.3905 -0.4605
14218TIP3    H164069   5.215   3.882   4.705  0.5777 -1.3915 -3.3729
14218TIP3    H264070   5.140   3.752   4.686 -1.5440 -0.6029 -0.6648
14219TIP3   OH264071   5.480   2.893   4.412 -0.1920  0.4122 -0.2741
14219TIP3    H164072   5.472   2.988   4.404 -1.2191  0.5351  1.8116
14219TIP3    H264073   5.390   2.860   4.406  0.2967 -0.6188 -2.6832
14220TIP3   OH264074   1.546   3.463   4.380 -0.1429  0.3097 -0.0432
14220TIP3    H164075   1.626   3.413   4.365 -0.7507 -0.5854 -0.3508
14220TIP3    H264076   1.554   3.539   4.322  0.2282 -0.0639 -0.4872
14221TIP3   OH264077   1.116   3.206  14.943 -0.0007  0.2007 -0.0806
14221TIP3    H164078   1.190   3.245  14.990 -0.1250  0.9970 -0.5278
14221TIP3    H264079   1.040   3.225  14.998  0.3950 -2.6564  1.5631
14222TIP3   OH264080   3.239   0.256   4.865  0.2455  0.1366 -0.0507
14222TIP3    H164081   3.171   0.296   4.919  0.8030 -1.0304  1.5542
14222TIP3    H264082   3.289   0.330   4.831  1.4804  0.8618  3.1529
14223TIP3   OH264083   1.889   1.622   2.336  0.3889 -0.0504 -0.3478
14223TIP3    H164084   1.815   1.565   2.314  0.7135 -0.2932 -0.8089
14223TIP3    H264085   1.848   1.696   2.381 -0.3385  0.5865 -1.9891
14224TIP3   OH264086   2.521   6.430  10.707 -0.1191 -0.4420 -0.5611
14224TIP3    H164087   2.534   6.524  10.697  0.0780 -0.4924 -0.7745
14224TIP3    H264088   2.578   6.390  10.641  0.6545 -0.7434  0.2738
14225TIP3   OH264089   4.471   5.221   4.940 -0.1930  0.0890 -0.4439
14225TIP3    H164090   4.539   5.258   4.884  0.3407  1.6793  1.2040
14225TIP3    H264091   4.390   5.259   4.908 -0.1571 -0.8023 -1.5956
14226TIP3   OH264092   4.746   4.908   2.368 -0.1052 -0.9602 -0.2053
14226TIP3    H164093   4.744   4.915   2.463  1.0846 -0.0975 -0.2481
14226TIP3    H264094   4.686   4.976   2.337  2.4161  1.2942 -0.2008
14227TIP3   OH264095   4.718   4.489   0.746 -0.1388  0.1512 -0.0075
14227TIP3    H164096   4.784   4.533   0.800 -1.2725 -0.8218  2.2495
14227TIP3    H264097   4.636   4.531   0.770 -0.5867  0.1044 -1.4357
14228TIP3   OH264098   3.695   1.798  13.505 -0.1176 -0.0562 -0.5671
14228TIP3    H164099   3.679   1.705  13.490  0.3154  0.2292 -3.0092
14228TIP3    H264100   3.790   1.806  13.511 -0.1533  0.2344 -0.3651
14229TIP3   OH264101   4.120   2.226   3.940 -0.0490  0.3970 -0.1748
14229TIP3    H164102   4.204   2.266   3.962  0.9313 -0.8263 -1.5921
14229TIP3    H264103   4.131   2.133   3.961 -0.3150 -0.1373 -2.2896
14230TIP3   OH264104   5.431   4.935   3.634 -0.4149  0.1853  0.0070
14230TIP3    H164105   5.368   4.864   3.626  0.5688 -0.9896  2.3491
14230TIP3    H264106   5.381   5.007   3.674 -0.4266 -0.5286  1.2850
14231TIP3   OH264107   1.169   1.928   7.117 -0.5960 -0.4279 -0.0796
14231TIP3    H164108   1.161   1.923   7.021 -0.3909 -0.8480 -0.0773
14231TIP3    H264109   1.198   1.841   7.143 -1.9600 -0.7048  0.5106
14232TIP3   OH264110   6.752   0.079   3.918  0.2777 -0.1417  0.0515
14232TIP3    H164111   6.689   0.055   3.850 -1.8713 -0.0910  1.9825
14232TIP3    H264112   6.745   0.175   3.923  0.9174 -0.0838 -0.0800
14233TIP3   OH264113   0.700   1.661   6.055 -0.3897 -0.4787 -0.1309
14233TIP3    H164114   0.608   1.661   6.028 -1.3888  0.5375  3.0656
14233TIP3    H264115   0.718   1.569   6.075 -0.4027 -0.8280 -1.6523
14234TIP3   OH264116   6.116   3.549   4.027  0.2078 -0.5852  0.0313
14234TIP3    H164117   6.061   3.473   4.046  1.2813 -0.7050  3.0469
14234TIP3    H264118   6.151   3.575   4.113  1.2216  2.2642 -1.1737
14235TIP3   OH264119   6.414   1.041  11.228  0.1142  0.6846 -0.2559
14235TIP3    H164120   6.493   1.069  11.274  0.4960 -1.0502  0.1859
14235TIP3    H264121   6.369   1.123  11.204  0.8103  1.6237  1.6022
14236TIP3   OH264122   1.878   6.318   4.562  0.2073  0.3570 -0.0789
14236TIP3    H164123   1.936   6.243   4.574 -0.6445 -0.1557  0.8089
14236TIP3    H264124   1.818   6.291   4.492  0.7200  0.7156 -0.6729
14237TIP3   OH264125   1.425   1.823   0.847  0.0120 -0.1440 -0.1402
14237TIP3    H164126   1.500   1.764   0.850 -0.4038 -0.6159  1.3595
14237TIP3    H264127   1.403   1.839   0.939 -1.6254  0.0990 -0.5492
14238TIP3   OH264128   2.116   5.328  16.581  0.1605 -0.3155 -0.0201
14238TIP3    H164129   2.080   5.342  16.494  1.5092  1.3828 -0.3336
14238TIP3    H264130   2.099   5.411  16.627  1.4494 -0.3731  0.5866
14239TIP3   OH264131   4.153   6.167  16.610 -0.1295 -0.4654 -0.0302
14239TIP3    H164132   4.182   6.076  16.611 -0.8190 -0.6798  0.8810
14239TIP3    H264133   4.086   6.171  16.542 -3.7851 -1.8233  3.2915
14240TIP3   OH264134   3.223   4.253   2.862  0.1195 -0.0937 -0.5196
14240TIP3    H164135   3.167   4.320   2.823  0.8585  0.3848 -0.7762
14240TIP3    H264136   3.204   4.257   2.955 -0.1300  0.1935 -0.5826
14241TIP3   OH264137   1.309   0.803  15.378  0.2728  0.7350  0.6195
14241TIP3    H164138   1.383   0.787  15.437  1.6460  0.9876 -1.0160
14241TIP3    H264139   1.287   0.717  15.343  0.6425  0.8513  0.1019
14242TIP3   OH264140   2.925   0.940  13.596 -1.1279 -0.8375  0.9778
14242TIP3    H164141   2.878   1.022  13.582  0.3002 -0.2352 -0.4134
14242TIP3    H264142   2.888   0.880  13.531  1.4870  0.2803 -1.6511
14243TIP3   OH264143   1.391   3.691  12.731  0.1063 -0.3038 -0.0812
14243TIP3    H164144   1.402   3.702  12.637  1.8537  0.9282  0.2473
14243TIP3    H264145   1.462   3.633  12.757  1.7259  2.0520  0.9671
14244TIP3   OH264146   2.327   6.500   3.840 -0.3464  0.6126  0.0901
14244TIP3    H164147   2.279   6.578   3.814  1.0031  1.7464  0.9620
14244TIP3    H264148   2.341   6.510   3.934 -0.3737 -0.7984  0.2527
14245TIP3   OH264149   2.083   3.395   5.480  0.1163  0.4760  0.3122
14245TIP3    H164150   2.162   3.373   5.430  0.0954  0.1727  0.4087
14245TIP3    H264151   2.064   3.316   5.531 -1.9368 -0.5053 -1.9018
14246TIP3   OH264152   4.302   6.549   6.021  0.6702  0.1566 -0.3239
14246TIP3    H164153   4.322   6.564   6.114 -0.3157 -2.1712  0.3005
14246TIP3    H264154   4.212   6.581   6.010  0.8846  0.6833 -0.5352
14247TIP3   OH264155   0.680   2.720   5.135 -0.7306 -0.0604  0.2733
14247TIP3    H164156   0.589   2.745   5.128 -0.6375  0.5962  1.3006
14247TIP3    H264157   0.716   2.778   5.202  0.4051 -0.3953 -0.0335
14248TIP3   OH264158   2.339   3.939  13.405 -0.1959  0.1521  0.1219
14248TIP3    H164159   2.334   3.893  13.489  0.1592 -0.8463 -0.4043
14248TIP3    H264160   2.254   3.925  13.365  0.1819 -0.7320 -0.3900
14249TIP3   OH264161   0.033   0.674  16.819 -0.5088 -0.4208  0.5003
14249TIP3    H164162   0.094   0.709  16.754 -0.0690 -0.3051  0.9728
14249TIP3    H264163   0.089   0.635  16.886 -0.9099  0.6562  1.4883
14250TIP3   OH264164   3.803   4.887   6.527  0.0979 -0.1338 -0.1051
14250TIP3    H164165   3.712   4.903   6.502  0.6400 -0.8055 -2.6504
14250TIP3    H264166   3.809   4.792   6.537  1.0094 -0.3144 -2.1070
14251TIP3   OH264167   6.019   3.470  15.811  0.3425  0.1783  0.2351
14251TIP3    H164168   6.032   3.426  15.727  1.1239  0.0455  0.4193
14251TIP3    H264169   5.962   3.411  15.860 -1.8978  1.2891 -0.9956
14252TIP3   OH264170   3.153   1.936  10.660 -0.1218  0.4143  0.3365
14252TIP3    H164171   3.168   2.006  10.724  0.2025 -0.5376  1.3281
14252TIP3    H264172   3.204   1.962  10.584  0.5229  0.9277  0.9352
14253TIP3   OH264173   5.457   2.166  12.526 -0.1279 -0.2607 -0.1516
14253TIP3    H164174   5.402   2.111  12.470 -1.4439 -0.0568  0.9177
14253TIP3    H264175   5.545   2.154  12.492 -0.3347 -3.2836  0.2262
14254TIP3   OH264176   3.276   6.315  17.145 -0.4170  0.0031 -0.5139
14254TIP3    H164177   3.220   6.259  17.092 -0.4776  0.0643 -0.5136
14254TIP3    H264178   3.283   6.269  17.229 -0.7540  0.1698 -0.3945
14255TIP3   OH264179   3.372   4.288  13.185 -0.0036 -0.0038  0.4422
14255TIP3    H164180   3.401   4.370  13.225  0.3964 -0.6750  1.5432
14255TIP3    H264181   3.385   4.222  13.253 -0.1107 -1.0234 -0.5144
14256TIP3   OH264182   0.956   4.720  11.494 -0.1108  0.0520 -1.3618
14256TIP3    H164183   1.002   4.645  11.532  0.5799  2.1500  2.1216
14256TIP3    H264184   0.957   4.703  11.400  1.0612 -3.7071 -0.7500
14257TIP3   OH264185   3.429   6.291   0.947 -0.4847 -0.2827 -0.3651
14257TIP3    H164186   3.404   6.337   1.027 -0.2907 -0.8607  0.0337
14257TIP3    H264187   3.348   6.247   0.918 -1.0848  1.6111 -1.6474
14258TIP3   OH264188   0.628   3.865  14.075 -0.0918  0.1869 -0.0519
14258TIP3    H164189   0.620   3.959  14.061  1.0126  0.3539  0.3546
14258TIP3    H264190   0.655   3.831  13.989  0.2024  0.3358 -0.0183
14259TIP3   OH264191   4.237   2.815  12.497  0.7274  0.3884  0.2609
14259TIP3    H164192   4.226   2.880  12.567  0.7476  0.0241  0.6031
14259TIP3    H264193   4.223   2.731  12.540 -0.7583  0.2367 -0.4838
14260TIP3   OH264194   3.184   0.311  14.144  0.2758 -0.0889 -0.2740
14260TIP3    H164195   3.230   0.229  14.161  0.0462  0.0052  0.7781
14260TIP3    H264196   3.106   0.307  14.198 -0.5374  0.1379 -1.4024
14261TIP3   OH264197   5.136   0.128  15.371 -0.0806 -0.3254 -0.4591
14261TIP3    H164198   5.224   0.102  15.397  0.0043 -0.6383 -1.0634
14261TIP3    H264199   5.100   0.172  15.448  1.7960  2.7692 -1.2729
14262TIP3   OH264200   6.175   2.290   1.582 -0.2548  0.2410 -0.6327
14262TIP3    H164201   6.135   2.204   1.594 -0.0109 -0.0001 -1.5553
14262TIP3    H264202   6.164   2.310   1.489  0.0173  1.0457 -0.5026
14263TIP3   OH264203   5.378   5.912   4.570 -0.1704 -0.0830 -0.1236
14263TIP3    H164204   5.315   5.983   4.579  1.4648  1.2279  1.2759
14263TIP3    H264205   5.326   5.832   4.581 -1.8227  0.9075 -0.5289
14264TIP3   OH264206   3.037   3.239   0.861  0.3312  0.7743 -0.3781
14264TIP3    H164207   3.011   3.166   0.918 -0.9625 -1.3867 -3.5619
14264TIP3    H264208   2.963   3.299   0.863  1.1028  1.7007  1.6938
14265TIP3   OH264209   3.596   1.356   1.923 -0.8071  0.3396  0.1417
14265TIP3    H164210   3.655   1.428   1.945 -0.5384 -0.2077  1.2933
14265TIP3    H264211   3.653   1.279   1.914 -1.2339 -0.0013  0.3065
14266TIP3   OH264212   2.248   2.268   4.866 -0.1732 -0.1648  0.0364
14266TIP3    H164213   2.272   2.302   4.779 -0.8000  0.4735  0.1083
14266TIP3    H264214   2.318   2.299   4.924  1.2674 -2.1968 -0.5647
14267TIP3   OH264215   6.407   3.945   4.892  0.3444  0.0017  0.4775
14267TIP3    H164216   6.466   3.876   4.921  0.6113 -0.0916 -0.2705
14267TIP3    H264217   6.322   3.901   4.884  0.0781  0.2342  1.9581
14268TIP3   OH264218   5.527   6.070  15.282 -0.1418  0.1469  0.1765
14268TIP3    H164219   5.615   6.096  15.311  0.0037  0.2681 -0.3707
14268TIP3    H264220   5.542   6.011  15.208 -0.4889 -1.0829  1.0833
14269TIP3   OH264221   4.160   2.101   2.489 -0.2442 -0.1248 -0.4416
14269TIP3    H164222   4.078   2.053   2.482  0.0038 -0.6268  0.0178
14269TIP3    H264223   4.226   2.033   2.504  0.2396  0.2809 -0.7158
14270TIP3   OH264224   2.646   2.300  13.203  0.7157 -0.4779 -0.0349
14270TIP3    H164225   2.562   2.277  13.165  1.2693 -1.1845 -0.8516
14270TIP3    H264226   2.694   2.216  13.208  0.4732 -0.5104  2.6758
14271TIP3   OH264227   2.277   6.346  15.055 -0.0628  0.0612  0.1316
14271TIP3    H164228   2.216   6.373  14.986  0.1499 -0.8761 -0.4444
14271TIP3    H264229   2.358   6.392  15.033  0.0956 -0.4748 -0.4343
14272TIP3   OH264230   4.027   4.041  16.059  0.5731 -0.3951  0.5567
14272TIP3    H164231   4.014   4.113  16.120  0.5797  0.3007 -0.2450
14272TIP3    H264232   4.110   4.062  16.016  1.1979 -1.5243  1.1855
14273TIP3   OH264233   5.794   2.920   2.623 -0.0958 -0.0885  0.0252
14273TIP3    H164234   5.713   2.936   2.575  1.3804  1.9690 -1.8617
14273TIP3    H264235   5.768   2.922   2.715 -2.4018 -0.8189 -0.5806
14274TIP3   OH264236   3.585   6.227  14.308 -0.2347  0.0697 -0.5017
14274TIP3    H164237   3.505   6.213  14.258 -1.4512 -2.4204  2.0078
14274TIP3    H264238   3.574   6.313  14.348 -0.9219  0.4332 -1.4709
14275TIP3   OH264239   2.817   4.357  13.739 -0.0164 -0.3630  0.3485
14275TIP3    H164240   2.801   4.277  13.689 -1.2053  0.5337 -0.7090
14275TIP3    H264241   2.744   4.363  13.799 -0.1893  0.1989  0.0837
14276TIP3   OH264242   0.720   3.048  16.974 -0.0296 -0.1774 -0.6834
14276TIP3    H164243   0.671   2.987  16.919  0.6321 -2.4427  1.1580
14276TIP3    H264244   0.810   3.017  16.969 -0.0245 -0.6949  1.9692
14277TIP3   OH264245   5.429   4.006   5.030  0.0541  0.5590  0.2617
14277TIP3    H164246   5.377   4.052   5.096  0.6007  1.9839 -0.2855
14277TIP3    H264247   5.406   4.049   4.947  1.3188  0.5274 -0.1189
14278TIP3   OH264248   0.336   1.614  16.084  0.2830  0.0838 -0.8491
14278TIP3    H164249   0.262   1.672  16.099  0.7947  0.8890 -1.4437
14278TIP3    H264250   0.408   1.653  16.133  0.6511  0.0046 -1.3211
14279TIP3   OH264251   6.438   3.164   1.909  0.2517  0.0722 -0.2917
14279TIP3    H164252   6.350   3.152   1.871  1.1320  0.9882 -2.7515
14279TIP3    H264253   6.482   3.081   1.893  1.0008  0.8428 -2.4251
14280TIP3   OH264254   5.178   2.254   1.891 -0.1018 -0.0291  0.0085
14280TIP3    H164255   5.189   2.183   1.828 -0.2763 -0.3161  0.2968
14280TIP3    H264256   5.166   2.332   1.838  0.7605 -0.1113 -0.3125
14281TIP3   OH264257   6.616   5.504   2.181  0.1731 -0.1583  0.2349
14281TIP3    H164258   6.521   5.513   2.194  0.4362 -0.7025  2.7489
14281TIP3    H264259   6.649   5.593   2.191  0.2893 -0.4603  2.9411
14282TIP3   OH264260   1.818   3.836  12.573  0.1420  0.4222 -0.3762
14282TIP3    H164261   1.778   3.920  12.548 -0.0546  0.3244 -0.3899
14282TIP3    H264262   1.817   3.837  12.669  1.5804  1.1265 -0.3512
14283TIP3   OH264263   6.326   0.084   3.653 -0.4964 -0.3385  0.6047
14283TIP3    H164264   6.345   0.111   3.563  0.7962  0.8382  1.2080
14283TIP3    H264265   6.307  -0.010   3.646 -2.9754  0.2364 -1.2326
14284TIP3   OH264266   0.330   5.972   2.174  0.0097 -0.2550 -0.1484
14284TIP3    H164267   0.270   6.003   2.241  0.4102 -2.2165  1.1503
14284TIP3    H264268   0.393   6.044   2.162 -0.3946  0.3236  1.1590
14285TIP3   OH264269   1.461   3.736   0.919 -0.6034 -0.5405 -0.1370
14285TIP3    H164270   1.540   3.722   0.866  1.4155 -0.2496  2.6785
14285TIP3    H264271   1.427   3.821   0.889  0.0429 -0.7511 -1.4931
14286TIP3   OH264272   5.531   2.006  13.633 -0.0838 -0.3422 -0.0525
14286TIP3    H164273   5.507   2.012  13.725 -0.3657  0.9216 -0.2083
14286TIP3    H264274   5.621   1.971  13.634  0.3008  0.6754  0.7338
14287TIP3   OH264275   4.730   2.922  16.389 -0.5653  0.2069 -0.0382
14287TIP3    H164276   4.762   3.010  16.368  0.4062  0.1266  1.0181
14287TIP3    H264277   4.665   2.903  16.321  0.2396  1.1721 -1.1078
14288TIP3   OH264278   3.008   0.452  16.538  0.0510  0.1997  0.0765
14288TIP3    H164279   2.988   0.497  16.456 -1.4122  0.6898  0.6892
14288TIP3    H264280   2.962   0.368  16.531  0.9551 -0.2820 -0.1278
14289TIP3   OH264281   2.610   2.958   0.779 -0.0093  0.6582  0.4589
14289TIP3    H164282   2.543   2.999   0.724  0.5306 -1.5605 -1.9282
14289TIP3    H264283   2.564   2.889   0.826  0.4217 -0.3958 -0.6407
14290TIP3   OH264284   2.709   0.011   5.273 -0.3614 -0.2381  0.0251
14290TIP3    H164285   2.800   0.028   5.295 -0.2311 -1.0065  0.0965
14290TIP3    H264286   2.666   0.096   5.279  0.3799  0.1518 -0.1534
14291TIP3   OH264287   0.156   6.684   4.382  0.1170 -0.5603 -0.1346
14291TIP3    H164288   0.108   6.748   4.329 -1.7942 -0.7241  1.3215
14291TIP3    H264289   0.218   6.736   4.432 -1.6014  0.2402  1.2280
14292TIP3   OH264290   6.592   1.662  11.191  0.2250  0.3465 -0.4882
14292TIP3    H164291   6.503   1.644  11.219  0.0731  1.4062 -0.2994
14292TIP3    H264292   6.582   1.705  11.106  0.6040 -0.8252 -1.1344
14293TIP3   OH264293   6.543   5.093  15.590  0.5686  0.2740  0.1727
14293TIP3    H164294   6.591   5.137  15.520 -1.0422  3.0093  0.6936
14293TIP3    H264295   6.493   5.025  15.546  1.3512  0.4500 -1.0043
14294TIP3   OH264296   2.817   3.718  16.087  0.3214 -0.5672  0.2242
14294TIP3    H164297   2.825   3.800  16.038 -1.2415 -0.5906 -0.1010
14294TIP3    H264298   2.846   3.651  16.026  0.3344 -0.3862  0.0306
14295TIP3   OH264299   5.084   4.504  12.006 -0.1166 -0.0113 -0.0712
14295TIP3    H164300   5.174   4.531  11.989  0.0404  0.1108  0.9253
14295TIP3    H264301   5.082   4.412  11.981  0.2761 -0.0022 -0.1434
14296TIP3   OH264302   6.269   4.685  13.722 -0.2180 -0.1906 -0.0587
14296TIP3    H164303   6.179   4.674  13.693 -0.3427  2.0830 -0.6604
14296TIP3    H264304   6.322   4.649  13.650 -0.6258 -0.2595 -0.3247
14297TIP3   OH264305   4.254   3.429   3.104 -0.2916 -0.3174  0.2747
14297TIP3    H164306   4.312   3.461   3.035 -0.4694  0.2265  0.3822
14297TIP3    H264307   4.225   3.507   3.150 -1.2179 -0.5772  0.1392
14298TIP3   OH264308   0.333   0.376   2.290  0.0560 -0.0514  0.6220
14298TIP3    H164309   0.419   0.346   2.262  0.7362  0.7531  1.7857
14298TIP3    H264310   0.323   0.463   2.250 -0.2610 -0.1858  0.4040
14299TIP3   OH264311   3.172   3.278   3.740 -0.3979 -0.0775  0.7891
14299TIP3    H164312   3.175   3.374   3.746  0.5708  0.0825 -1.4477
14299TIP3    H264313   3.102   3.260   3.677  0.7023 -0.7097 -0.2946
14300TIP3   OH264314   0.228   4.138  12.117 -0.4483  0.0950 -0.5859
14300TIP3    H164315   0.215   4.060  12.171  0.2694 -0.3539 -1.0481
14300TIP3    H264316   0.146   4.148  12.069 -0.6679 -0.1779 -0.2676
14301TIP3   OH264317   0.456   0.509  12.229 -0.1829 -0.3969 -0.3906
14301TIP3    H164318   0.418   0.504  12.141  0.5629  3.4622 -1.0370
14301TIP3    H264319   0.518   0.436  12.233  0.3495 -0.1545 -3.3715
14302TIP3   OH264320   5.403   4.722  17.017 -0.3668  0.4449  0.1183
14302TIP3    H164321   5.360   4.807  17.016 -0.7942  0.2574  1.2103
14302TIP3    H264322   5.368   4.676  16.940 -0.6588  1.0027 -0.0776
14303TIP3   OH264323   0.598   4.310   2.153  0.3510 -0.8100 -0.4781
14303TIP3    H164324   0.615   4.362   2.075  0.1943 -0.6033 -0.3763
14303TIP3    H264325   0.673   4.326   2.210 -0.4767  0.6471  0.2605
14304TIP3   OH264326   6.271   3.552  16.294 -0.5119 -0.1174  0.1871
14304TIP3    H164327   6.330   3.624  16.316 -1.2353  0.8960 -1.1175
14304TIP3    H264328   6.275   3.546  16.198 -1.4658 -0.9382  0.1959
14305TIP3   OH264329   3.496   1.265  13.578  0.1577  0.2447  0.3228
14305TIP3    H164330   3.481   1.360  13.574  0.0519  0.2666  1.2126
14305TIP3    H264331   3.432   1.229  13.517  0.0803  0.7309  0.1088
14306TIP3   OH264332   0.432   4.179  11.320  0.0734 -0.1771 -0.0518
14306TIP3    H164333   0.368   4.209  11.385 -0.2794 -0.2723 -0.3531
14306TIP3    H264334   0.379   4.142  11.249  0.3330  1.9606 -1.4193
14307TIP3   OH264335   5.586   4.458   3.224 -0.0252 -0.2166  0.2026
14307TIP3    H164336   5.556   4.505   3.301 -0.9033 -1.1666  0.4470
14307TIP3    H264337   5.672   4.423   3.249  0.7195  1.3812 -0.0461
14308TIP3   OH264338   5.030   5.974   6.227  0.6085  0.3755  0.5991
14308TIP3    H164339   5.073   5.890   6.215 -1.0073 -0.4159  0.2649
14308TIP3    H264340   5.041   6.019   6.143 -0.2596 -0.3108  0.1163
14309TIP3   OH264341   4.486   0.729  16.856 -0.2781  0.4729 -0.0699
14309TIP3    H164342   4.509   0.636  16.847 -0.1448  0.2543  2.2324
14309TIP3    H264343   4.412   0.729  16.916  0.3400  1.9433  0.7083
14310TIP3   OH264344   3.673   3.403  11.614 -0.3594 -0.1649  0.0290
14310TIP3    H164345   3.677   3.479  11.556  1.2382 -0.4553 -0.2764
14310TIP3    H264346   3.580   3.379  11.616 -0.7665  1.3021 -0.4952
14311TIP3   OH264347   5.041   2.496  11.714  0.1065 -0.3347 -0.0178
14311TIP3    H164348   5.026   2.425  11.652 -1.3277 -0.0120 -0.0544
14311TIP3    H264349   4.959   2.504  11.762  0.4518  0.9116  0.3931
14312TIP3   OH264350   2.536   5.881  13.004 -0.2647 -0.3264 -0.0629
14312TIP3    H164351   2.570   5.882  12.915 -2.4292  0.3881 -0.9057
14312TIP3    H264352   2.560   5.966  13.040  0.8621 -0.7236  0.1721
14313TIP3   OH264353   3.902   3.034   4.114 -0.7107  0.1276 -0.0248
14313TIP3    H164354   3.973   3.026   4.179 -0.6435 -1.1482 -0.2438
14313TIP3    H264355   3.884   2.944   4.087 -1.1155  0.6075 -1.3811
14314TIP3   OH264356   3.299   4.822  16.961  0.2692  0.2536 -0.1000
14314TIP3    H164357   3.211   4.849  16.935 -0.0203  0.6944  1.2727
14314TIP3    H264358   3.292   4.728  16.975  0.5628 -0.0710 -2.1016
14315TIP3   OH264359   4.398   4.046  10.885 -0.3423  0.5334  0.8306
14315TIP3    H164360   4.481   4.000  10.898 -0.3704  0.5845  1.2047
14315TIP3    H264361   4.422   4.126  10.838 -0.5360 -0.7328 -1.4587
14316TIP3   OH264362   1.543   2.279  12.141  0.3411  0.2541 -0.4427
14316TIP3    H164363   1.541   2.322  12.056  1.4544 -0.4834 -0.8471
14316TIP3    H264364   1.491   2.199  12.129  1.3613 -0.3662 -0.7110
14317TIP3   OH264365   1.507   5.857   2.256 -0.5245  0.5238 -0.1746
14317TIP3    H164366   1.598   5.886   2.250 -0.3309 -0.3441 -1.6657
14317TIP3    H264367   1.506   5.770   2.216 -1.8899  0.2379  0.4238
14318TIP3   OH264368   6.568   5.725   5.893 -0.1068 -0.0441  0.4815
14318TIP3    H164369   6.550   5.812   5.927  1.5871  1.6126 -2.7154
14318TIP3    H264370   6.483   5.689   5.869 -0.4690  2.3963 -2.0312
14319TIP3   OH264371   5.903   5.822  15.947  0.0984 -0.0530  0.0933
14319TIP3    H164372   5.989   5.857  15.925 -0.2097  0.3756 -0.4389
14319TIP3    H264373   5.866   5.885  16.008 -0.2177  0.2580 -0.4123
14320TIP3   OH264374   1.363   1.512   0.098  0.1769  0.2228  0.0955
14320TIP3    H164375   1.450   1.537   0.070  0.3828  0.6699  1.1241
14320TIP3    H264376   1.356   1.543   0.189  0.2376 -2.8422  1.2321
14321TIP3   OH264377   6.711   1.038  12.028 -0.8644  1.1249  0.1139
14321TIP3    H164378   6.621   1.063  12.049 -1.1806 -0.0465  0.1758
14321TIP3    H264379   6.741   0.991  12.106  0.3256  2.8104  0.7149
14322TIP3   OH264380   0.760   4.415   1.654 -0.2405  0.2864 -0.4457
14322TIP3    H164381   0.708   4.445   1.578 -0.2619 -0.5738 -0.7698
14322TIP3    H264382   0.836   4.474   1.655 -1.0330  1.3320 -0.1803
14323TIP3   OH264383   1.875   3.611   3.268 -0.8160 -0.1945  0.3286
14323TIP3    H164384   1.929   3.533   3.286 -0.3449 -0.4643 -2.0828
14323TIP3    H264385   1.788   3.587   3.301 -0.4921 -1.4564  0.3178
14324TIP3   OH264386   6.363   3.053  15.833 -0.2224  0.0318  0.2965
14324TIP3    H164387   6.276   3.066  15.797  0.1577 -0.1171 -0.7083
14324TIP3    H264388   6.348   3.019  15.921 -1.1737 -0.2464  0.0347
14325TIP3   OH264389   0.607   0.144  16.370 -0.3536  0.0866  0.3931
14325TIP3    H164390   0.604   0.094  16.452 -1.0395 -0.9763 -0.2763
14325TIP3    H264391   0.615   0.078  16.302 -1.6508  0.8854 -0.5349
14326TIP3   OH264392   0.974   2.113  11.738  0.4876 -0.0308 -0.5256
14326TIP3    H164393   0.938   2.040  11.789  1.1221  1.0170  1.4792
14326TIP3    H264394   1.022   2.071  11.667 -1.4874 -1.5053 -1.0136
14327TIP3   OH264395   6.478   1.400   2.430  0.4433 -0.3393 -0.2227
14327TIP3    H164396   6.516   1.320   2.393  1.3981  1.3750 -3.0712
14327TIP3    H264397   6.390   1.404   2.394  0.9925  0.7667 -1.4660
14328TIP3   OH264398   5.911   1.982  17.071  0.2892 -0.3591 -0.2361
14328TIP3    H164399   5.934   2.071  17.097  1.4710 -0.8369  0.3908
14328TIP3    H264400   5.932   1.978  16.977 -0.4918  0.2406 -0.4431
14329TIP3   OH264401   4.963   5.129  15.217 -0.6973 -0.2296 -0.3037
14329TIP3    H164402   4.996   5.184  15.288 -0.4559 -1.7352  0.7882
14329TIP3    H264403   4.940   5.190  15.147  1.5330  1.0756  0.0783
14330TIP3   OH264404   0.941   4.664  17.166 -0.2387  0.5058 -0.1737
14330TIP3    H164405   1.027   4.651  17.128  0.3629  1.4030  0.8469
14330TIP3    H264406   0.950   4.637  17.258 -0.9787  0.8016 -0.0089
14331TIP3   OH264407   4.192   1.981   4.944  0.1165  0.1069 -0.3692
14331TIP3    H164408   4.234   1.983   4.857  0.7632  1.5909 -0.0256
14331TIP3    H264409   4.254   2.026   5.001  0.1180 -1.6478  1.0734
14332TIP3   OH264410   5.091   0.997  11.736  0.2862 -0.1708 -0.2551
14332TIP3    H164411   4.995   0.999  11.729  0.3221 -1.1697 -1.2001
14332TIP3    H264412   5.109   1.023  11.826 -0.8905 -0.2214  0.0075
14333TIP3   OH264413   4.092   5.634   1.250  0.9635 -0.1771 -0.4562
14333TIP3    H164414   4.019   5.671   1.200  0.5941 -0.2739  0.0054
14333TIP3    H264415   4.067   5.542   1.265  1.1516 -0.1970 -0.2466
14334TIP3   OH264416   2.622   1.305  16.581 -0.3098  0.2474 -0.6499
14334TIP3    H164417   2.625   1.287  16.487  0.1326  0.9996 -0.7847
14334TIP3    H264418   2.690   1.248  16.617 -0.6548 -0.2319 -0.7536
14335TIP3   OH264419   0.557   0.482  13.741 -0.1895 -0.0823  0.2705
14335TIP3    H164420   0.599   0.533  13.810 -1.0521  1.1194 -0.0839
14335TIP3    H264421   0.622   0.415  13.718  1.6793  1.9135 -0.4649
14336TIP3   OH264422   3.852   3.017   0.332 -0.5193  0.2212  0.2656
14336TIP3    H164423   3.809   3.023   0.417 -1.3453 -0.1823 -0.1212
14336TIP3    H264424   3.847   3.105   0.296 -0.8826  0.2087  0.2873
14337TIP3   OH264425   6.228   6.448   0.712 -0.5787  0.3648 -0.1334
14337TIP3    H164426   6.233   6.543   0.699 -1.3450  0.2966 -0.9196
14337TIP3    H264427   6.134   6.430   0.720 -0.3762 -0.1509  1.3837
14338TIP3   OH264428   4.435   6.501   0.534  0.3724  0.1661  0.3261
14338TIP3    H164429   4.470   6.566   0.473  3.1673 -1.0440  0.5405
14338TIP3    H264430   4.350   6.477   0.498  1.5084  0.2426 -2.5257
14339TIP3   OH264431   4.786   6.481  12.557 -0.1968 -0.8157 -0.4952
14339TIP3    H164432   4.720   6.457  12.491  0.4106 -2.7808 -0.4373
14339TIP3    H264433   4.866   6.495  12.507  0.2333 -2.1841 -0.2327
14340TIP3   OH264434   1.153   5.549  13.225  0.2293 -0.2174 -0.2216
14340TIP3    H164435   1.208   5.541  13.303 -1.9389  0.7755  1.4684
14340TIP3    H264436   1.098   5.471  13.226  0.7122 -0.5713 -1.1839
14341TIP3   OH264437   0.227   6.140  13.366  0.5455  0.1281 -0.0392
14341TIP3    H164438   0.302   6.199  13.368  0.9310 -0.2852 -1.5676
14341TIP3    H264439   0.265   6.053  13.352 -0.2872  0.0722 -2.0708
14342TIP3   OH264440   5.697   0.684   5.993 -0.4719 -0.4365 -0.5889
14342TIP3    H164441   5.639   0.698   5.917 -0.6840 -1.2528 -0.5796
14342TIP3    H264442   5.672   0.753   6.055 -0.9284 -0.3288 -0.8861
14343TIP3   OH264443   5.060   4.853  13.380 -0.5671  0.0436  0.6092
14343TIP3    H164444   5.139   4.833  13.431 -0.9545 -1.4861  0.6109
14343TIP3    H264445   4.998   4.888  13.445 -0.3622 -0.0197  0.8396
14344TIP3   OH264446   3.084   4.698  12.547 -0.3329 -0.1455 -0.1117
14344TIP3    H164447   3.171   4.733  12.528 -0.0666 -1.2741 -1.0416
14344TIP3    H264448   3.056   4.744  12.626  0.4261  1.3975 -0.7270
14345TIP3   OH264449   4.008   5.493  16.310  0.2586  0.2459 -0.3361
14345TIP3    H164450   3.960   5.426  16.357 -1.5984  2.1154  0.5340
14345TIP3    H264451   4.085   5.512  16.364  0.2407 -0.4292 -0.0810
14346TIP3   OH264452   3.241   4.711   4.510  0.0252 -0.2622 -0.4022
14346TIP3    H164453   3.305   4.727   4.441  0.3251  1.1279  0.1723
14346TIP3    H264454   3.177   4.781   4.500  0.1615  0.0549  0.8094
14347TIP3   OH264455   5.657   0.147  11.464 -0.5676  0.3563 -0.4048
14347TIP3    H164456   5.690   0.160  11.553 -1.2717  0.7589 -0.1974
14347TIP3    H264457   5.575   0.100  11.475 -0.5938  0.2925 -0.8541
14348TIP3   OH264458   1.957   2.761  13.339  0.3273 -0.2057 -0.0698
14348TIP3    H164459   1.952   2.737  13.246  0.7925  1.9372 -0.6725
14348TIP3    H264460   2.026   2.828  13.342 -1.7340  1.9216  1.3483
14349TIP3   OH264461   3.741   1.888  14.538 -0.0897 -0.4353 -0.4739
14349TIP3    H164462   3.708   1.959  14.483 -2.3556 -0.9638  0.1241
14349TIP3    H264463   3.830   1.873  14.509 -0.2445  1.3687 -1.9024
14350TIP3   OH264464   1.247   0.168  14.146 -0.1723  0.3095 -0.3059
14350TIP3    H164465   1.296   0.162  14.228  0.6891 -2.0352 -0.9655
14350TIP3    H264466   1.284   0.245  14.103  1.2228  0.0149  0.3271
14351TIP3   OH264467   4.345   0.759  11.565  0.6626 -0.2378 -0.3077
14351TIP3    H164468   4.339   0.671  11.601 -1.8985 -0.6392 -1.5941
14351TIP3    H264469   4.321   0.816  11.637  0.3157 -0.7202 -0.0400
14352TIP3   OH264470   3.648   2.141   5.883 -0.3129  0.0068 -0.7246
14352TIP3    H164471   3.735   2.117   5.916 -0.6159  0.4026  0.3868
14352TIP3    H264472   3.590   2.126   5.957 -1.0898  0.4411 -1.2424
14353TIP3   OH264473   4.607   0.765  16.607 -0.0511  0.4917  0.7853
14353TIP3    H164474   4.677   0.826  16.584 -1.0995  1.0345 -1.0980
14353TIP3    H264475   4.596   0.776  16.701  3.4258 -0.7370  1.3904
14354TIP3   OH264476   2.783   4.151   5.851 -0.2909  0.4378 -0.7047
14354TIP3    H164477   2.771   4.242   5.826 -0.3400  0.6579  0.1057
14354TIP3    H264478   2.848   4.154   5.921 -2.1431  0.1086  1.0837
14355TIP3   OH264479   4.033   3.075  11.403  0.1234 -0.6009  0.8675
14355TIP3    H164480   4.017   3.087  11.309 -0.0506 -3.0633  0.5479
14355TIP3    H264481   3.955   3.112  11.445 -0.5067 -0.8633 -0.0517
14356TIP3   OH264482   4.105   1.714   5.287  0.0055 -0.1063  0.3720
14356TIP3    H164483   4.172   1.694   5.353  0.9345 -3.2298 -1.4136
14356TIP3    H264484   4.025   1.726   5.338  1.4027  1.1923  2.3330
14357TIP3   OH264485   4.892   1.787  15.138  0.6070  0.2159  0.4924
14357TIP3    H164486   4.911   1.858  15.199  1.8963  1.1763 -0.9739
14357TIP3    H264487   4.947   1.806  15.062  0.8950 -2.3112  0.0290
14358TIP3   OH264488   3.567   5.237   1.956  0.4940 -0.3240 -0.0096
14358TIP3    H164489   3.656   5.241   1.923  0.9687  0.8418  1.3736
14358TIP3    H264490   3.572   5.181   2.034  0.1496  0.2799  0.4548
14359TIP3   OH264491   4.080   1.416   2.303  0.3386  0.3911 -0.1824
14359TIP3    H164492   4.034   1.335   2.282 -1.3073  1.0968  0.6165
14359TIP3    H264493   4.093   1.413   2.398 -0.4885  1.4144 -0.0132
14360TIP3   OH264494   2.862   3.132   5.206 -0.1368  0.0678  0.4588
14360TIP3    H164495   2.785   3.103   5.158 -0.2161  0.0788  0.5809
14360TIP3    H264496   2.846   3.224   5.225  0.8287  0.6462 -1.3611
14361TIP3   OH264497   0.898   5.421  14.161  0.4651 -0.4651 -0.1135
14361TIP3    H164498   0.866   5.388  14.245 -1.4120  0.7413 -0.3320
14361TIP3    H264499   0.943   5.346  14.122 -1.9710 -2.1991  0.2908
14362TIP3   OH264500   3.492   5.084   4.454  0.3592 -0.0354 -0.8409
14362TIP3    H164501   3.516   5.067   4.363  1.0141 -2.3598 -0.2692
14362TIP3    H264502   3.574   5.073   4.502 -0.1503  0.3949  0.1279
14363TIP3   OH264503   5.352   6.706   3.549  0.4466 -0.0161 -0.4208
14363TIP3    H164504   5.310   6.789   3.574  1.0239 -0.0051  0.5438
14363TIP3    H264505   5.300   6.639   3.594  0.9794 -0.0533  0.1557
14364TIP3   OH264506   2.556   5.272   4.906 -0.3438 -0.0430  0.4082
14364TIP3    H164507   2.629   5.334   4.901 -0.5480  0.2219  0.6738
14364TIP3    H264508   2.490   5.317   4.959 -0.6775 -0.3037  0.2154
14365TIP3   OH264509   2.739   2.581   4.147  0.5369  0.0971  0.0727
14365TIP3    H164510   2.779   2.511   4.095  1.6705  0.8066 -0.0359
14365TIP3    H264511   2.768   2.565   4.236  1.0818  0.6038 -0.0039
14366TIP3   OH264512   5.636   5.409   3.666  0.1522 -0.2890 -0.1056
14366TIP3    H164513   5.700   5.420   3.596  0.4657  1.5680  0.4281
14366TIP3    H264514   5.657   5.324   3.705  1.1273 -0.5178 -1.1163
14367TIP3   OH264515   2.236   4.188   4.052  0.3269  0.1283  0.1202
14367TIP3    H164516   2.185   4.258   4.012  1.2977  0.6712 -0.1801
14367TIP3    H264517   2.261   4.132   3.978 -1.4993 -1.2436  0.5030
14368TIP3   OH264518   1.722   4.845   6.279 -0.1374 -0.2150 -0.1887
14368TIP3    H164519   1.721   4.903   6.356  0.2861 -0.6833  0.1734
14368TIP3    H264520   1.782   4.774   6.303 -1.1479 -1.1538 -0.3670
14369TIP3   OH264521   0.005   6.514   1.002 -0.0359 -0.0496 -0.3635
14369TIP3    H164522  -0.028   6.471   1.081 -1.7396 -0.8525 -1.4873
14369TIP3    H264523  -0.042   6.597   0.999 -1.5183 -0.9189 -1.6293
14370TIP3   OH264524   3.888   0.226   5.884  0.1815 -0.0981  0.7498
14370TIP3    H164525   3.891   0.133   5.863  0.8313 -0.4071  2.1343
14370TIP3    H264526   3.868   0.228   5.978  0.4977  1.1521  0.7956
14371TIP3   OH264527   0.897   5.213  15.282 -0.4796  0.0531 -1.0400
14371TIP3    H164528   0.987   5.244  15.286 -0.4475 -0.1237 -0.2805
14371TIP3    H264529   0.848   5.275  15.335 -0.7040 -0.1861 -0.9654
14372TIP3   OH264530   6.647   2.706  14.357  0.2748  0.2635 -0.0769
14372TIP3    H164531   6.736   2.695  14.388  0.1943 -1.2452 -0.3411
14372TIP3    H264532   6.611   2.617  14.353 -0.7475  0.7057 -1.3936
14373TIP3   OH264533   0.891   5.614  10.924 -0.1602  0.1911  0.1536
14373TIP3    H164534   0.870   5.639  10.834 -1.2860  0.4494  0.4747
14373TIP3    H264535   0.874   5.520  10.927  0.4950  0.0621 -0.0687
14374TIP3   OH264536   6.450   4.690  12.360 -0.4857  0.0790 -0.2621
14374TIP3    H164537   6.385   4.717  12.294 -0.3055  0.2068 -0.3863
14374TIP3    H264538   6.524   4.659  12.308  0.0323  1.0730 -0.1121
14375TIP3   OH264539   5.616   4.954  10.628  0.2274 -0.3056 -0.1993
14375TIP3    H164540   5.544   4.897  10.655  0.1774  1.2328  3.2219
14375TIP3    H264541   5.591   4.987  10.542 -3.2452  0.2807  0.9879
14376TIP3   OH264542   2.325   3.045  15.687 -0.8580 -0.2308  0.4185
14376TIP3    H164543   2.277   2.998  15.754 -0.2794  1.8697  2.3688
14376TIP3    H264544   2.300   3.137  15.699  2.5605  0.7402  0.6399
14377TIP3   OH264545   6.396   2.799   0.198  0.1018 -0.6124 -0.0694
14377TIP3    H164546   6.441   2.794   0.114 -1.3447 -0.8807 -0.8350
14377TIP3    H264547   6.458   2.761   0.260  1.0518 -0.7053 -1.0545
14378TIP3   OH264548   6.334   3.441   1.697  0.0822 -0.8322  0.0474
14378TIP3    H164549   6.345   3.514   1.758  1.0697 -1.2678  0.3967
14378TIP3    H264550   6.251   3.401   1.722  0.1289 -0.5648  0.6296
14379TIP3   OH264551   6.492   0.372  16.775 -0.1357  0.1158  0.1852
14379TIP3    H164552   6.500   0.296  16.832  1.6748  0.6708  0.7086
14379TIP3    H264553   6.563   0.361  16.711  0.1737  1.3620  0.2951
14380TIP3   OH264554   6.264   3.322  15.543  0.4180 -0.1901 -0.5031
14380TIP3    H164555   6.348   3.367  15.551  0.7445 -0.9419  0.3966
14380TIP3    H264556   6.273   3.245  15.599 -0.8656 -0.2869 -0.4213
14381TIP3   OH264557   4.299   3.218   2.499  0.0694 -0.0003  0.5726
14381TIP3    H164558   4.290   3.179   2.586  1.5349 -1.9630 -0.1262
14381TIP3    H264559   4.224   3.278   2.492 -0.3261 -0.1631  2.9882
14382TIP3   OH264560   4.175   3.608   5.957  0.0432 -0.0645  0.5878
14382TIP3    H164561   4.212   3.606   6.046  0.7672  1.9051  0.3622
14382TIP3    H264562   4.098   3.664   5.965  0.8094  1.1390 -0.2540
14383TIP3   OH264563   3.852   5.492   6.064 -0.5382  0.3337 -0.1819
14383TIP3    H164564   3.888   5.421   6.118  1.6624  1.9054  0.4865
14383TIP3    H264565   3.920   5.510   6.000 -1.3981  1.3530 -0.8149
14384TIP3   OH264566   6.598   3.285   0.432 -0.1281  0.4874 -0.3483
14384TIP3    H164567   6.581   3.325   0.517  1.7256  1.1505 -0.2889
14384TIP3    H264568   6.675   3.230   0.446 -0.0978  0.2307 -1.4875
14385TIP3   OH264569   2.539   5.189  13.514  0.1378 -0.1881  0.2798
14385TIP3    H164570   2.493   5.270  13.539 -0.9881 -0.5708 -0.5242
14385TIP3    H264571   2.607   5.219  13.453  0.1361  0.2279  0.4757
14386TIP3   OH264572   4.660   5.396  13.950  0.0350 -0.2514 -0.4946
14386TIP3    H164573   4.692   5.404  13.861  0.7221 -0.2456 -0.2476
14386TIP3    H264574   4.738   5.396  14.004 -0.2196 -2.6696 -0.0664
14387TIP3   OH264575   4.381   4.985   1.502  0.4802  0.2814 -0.4953
14387TIP3    H164576   4.342   4.907   1.462  1.2946  0.8966 -2.5349
14387TIP3    H264577   4.328   5.001   1.580 -0.3494 -1.6886 -0.6346
14388TIP3   OH264578   6.535   1.880  16.853  0.4038 -0.4684  0.0750
14388TIP3    H164579   6.596   1.881  16.927 -0.1675  0.3592  0.5310
14388TIP3    H264580   6.588   1.847  16.780  1.1524 -0.6450  0.6879
14389TIP3   OH264581   6.592   2.049   4.771  0.3223 -0.5641 -0.1967
14389TIP3    H164582   6.597   2.122   4.832  2.4841 -0.5588 -0.3657
14389TIP3    H264583   6.565   2.088   4.688 -0.0454 -0.1988  0.0930
14390TIP3   OH264584   3.378   6.774  11.098 -0.1300  0.0460  0.4526
14390TIP3    H164585   3.368   6.859  11.056 -0.8330  0.0545  0.6200
14390TIP3    H264586   3.288   6.742  11.109  0.0660 -0.2062  1.4196
14391TIP3   OH264587   5.538   4.038  17.176 -0.0891  0.0646 -0.3123
14391TIP3    H164588   5.631   4.030  17.158  0.1453  1.6337  0.1365
14391TIP3    H264589   5.533   4.097  17.251 -1.4700  0.3324 -0.6015
14392TIP3   OH264590   4.293   6.167  13.267  0.3297  0.3582  0.0247
14392TIP3    H164591   4.347   6.088  13.260  0.7286  0.6653 -0.4659
14392TIP3    H264592   4.204   6.135  13.277  0.4194 -0.1543 -0.7783
14393TIP3   OH264593   3.436   1.715  15.737 -0.1738  0.2643  0.5027
14393TIP3    H164594   3.374   1.703  15.809  1.9640 -0.5928  2.2726
14393TIP3    H264595   3.493   1.786  15.767  1.2455 -0.6667  0.0249
14394TIP3   OH264596   3.668   1.428  12.612 -0.0059  0.2532  0.3671
14394TIP3    H164597   3.676   1.391  12.524  1.7852  0.3381  0.4558
14394TIP3    H264598   3.629   1.358  12.664 -0.3875 -0.0667 -0.3381
14395TIP3   OH264599   4.386   2.638  15.795 -0.3447 -0.4899 -0.3546
14395TIP3    H164600   4.457   2.686  15.838 -1.2674  0.4230  0.1852
14395TIP3    H264601   4.426   2.601  15.717  0.1101  2.2138 -1.4479
14396TIP3   OH264602   6.422   3.774  16.299  0.1235  0.2708 -0.3043
14396TIP3    H164603   6.478   3.739  16.230  1.3968  0.5728  0.5587
14396TIP3    H264604   6.413   3.867  16.278  0.4742  0.3536 -0.0884
14397TIP3   OH264605   2.363   3.320  14.097 -0.3548  0.4088  0.7675
14397TIP3    H164606   2.415   3.250  14.136 -1.0924 -1.4024 -1.4065
14397TIP3    H264607   2.273   3.288  14.101 -0.7945  1.5542  0.4058
14398TIP3   OH264608   6.345   1.033   3.136 -0.1118  0.1408  0.1908
14398TIP3    H164609   6.387   0.982   3.067 -1.5393 -0.8455  0.0220
14398TIP3    H264610   6.355   0.980   3.215 -3.2921 -1.4180 -0.3517
14399TIP3   OH264611   4.224   2.792  15.600  0.1723 -0.7036 -0.1296
14399TIP3    H164612   4.281   2.732  15.648 -1.3974 -3.7563 -1.8485
14399TIP3    H264613   4.137   2.776  15.636 -0.1625  1.2333 -0.0196
14400TIP3   OH264614   0.937   6.325   0.049 -0.1331 -0.1524 -0.3565
14400TIP3    H164615   0.998   6.263   0.009  0.4198 -0.4089  0.8382
14400TIP3    H264616   0.988   6.367   0.118 -1.1027  0.1465  0.1910
14401TIP3   OH264617   1.860   2.053  17.141 -0.1475  0.0385  0.1530
14401TIP3    H164618   1.906   2.066  17.058 -2.2995 -0.0032 -1.0982
14401TIP3    H264619   1.767   2.061  17.118 -0.7412  1.3570  2.8115
14402TIP3   OH264620   4.606   2.237  13.569  0.3465  0.1760 -0.1705
14402TIP3    H164621   4.523   2.226  13.523 -0.9595  1.4415  1.8291
14402TIP3    H264622   4.643   2.148  13.573 -0.7772 -0.3598 -1.2454
14403TIP3   OH264623   1.566   4.998   4.944 -0.9322 -0.1753 -0.5508
14403TIP3    H164624   1.509   5.000   5.022  0.1003 -0.5385  0.2277
14403TIP3    H264625   1.582   5.090   4.925  0.2221 -0.0915  0.7355
14404TIP3   OH264626   5.829   6.281   0.952 -0.2251 -0.4989  0.4572
14404TIP3    H164627   5.803   6.287   0.860 -2.2931  1.6789  1.1293
14404TIP3    H264628   5.885   6.357   0.966  1.5122 -1.7823  0.5887
14405TIP3   OH264629   4.792   1.445   4.232 -0.1319  0.0547 -0.6515
14405TIP3    H164630   4.772   1.383   4.302 -0.3876  0.1797 -0.6133
14405TIP3    H264631   4.809   1.391   4.155 -1.6757 -0.0137 -0.9567
14406TIP3   OH264632   1.791   4.561   4.936 -0.6567 -0.4675  0.3189
14406TIP3    H164633   1.806   4.636   4.878  3.1584 -0.2311  1.5203
14406TIP3    H264634   1.801   4.484   4.880 -1.0455 -0.1647 -0.1704
14407TIP3   OH264635   2.284   1.188  11.312  0.7314  0.2654  0.0090
14407TIP3    H164636   2.335   1.220  11.237 -0.1733  0.9521 -0.3257
14407TIP3    H264637   2.275   1.265  11.369 -1.8457  0.7717 -1.0100
14408TIP3   OH264638   1.929   1.574  16.015  0.1687  0.1848  0.2622
14408TIP3    H164639   1.908   1.517  15.941  0.2153  0.9319 -0.3320
14408TIP3    H264640   1.844   1.605  16.047  0.2075  0.7119 -0.1518
14409TIP3   OH264641   6.598   4.173  10.985  0.0120 -0.3532 -0.6489
14409TIP3    H164642   6.669   4.198  10.926 -0.3447 -0.9873 -1.3531
14409TIP3    H264643   6.632   4.191  11.073  0.2381  1.4016 -1.0710
14410TIP3   OH264644   2.063   4.033  12.255  0.0912  0.1199 -0.0823
14410TIP3    H164645   2.007   4.108  12.236  1.3001  0.5057 -2.2380
14410TIP3    H264646   2.001   3.961  12.271 -1.0538  1.3343  1.1191
14411TIP3   OH264647   3.141   5.076  14.834 -0.1204  0.5472  0.1254
14411TIP3    H164648   3.119   5.159  14.877  1.5132  1.4056 -0.6336
14411TIP3    H264649   3.233   5.087  14.807 -0.4119 -0.8437 -1.5133
14412TIP3   OH264650   1.706   6.445  14.155 -0.2530 -0.0907  0.1541
14412TIP3    H164651   1.768   6.503  14.112 -1.3933 -0.2263 -1.7517
14412TIP3    H264652   1.644   6.504  14.198  0.6018  0.0494  1.2247
14413TIP3   OH264653   4.542   0.142  12.999 -0.6894  0.2192  0.1722
14413TIP3    H164654   4.461   0.192  13.000 -0.2309  0.9885 -0.6171
14413TIP3    H264655   4.598   0.187  12.936  0.4898 -0.0884  0.9748
14414TIP3   OH264656   0.039   5.781   1.164 -0.1250  0.2595 -0.4783
14414TIP3    H164657   0.120   5.738   1.193 -0.3275 -0.7754 -1.4202
14414TIP3    H264658   0.069   5.861   1.122  0.2869  0.8194  0.8541
14415TIP3   OH264659   4.855   2.946  12.510  0.0462 -0.0484 -0.5558
14415TIP3    H164660   4.824   2.864  12.549 -2.2213  0.8768 -0.3602
14415TIP3    H264661   4.916   2.982  12.574  1.1586 -1.6280 -0.6970
14416TIP3   OH264662   0.439   4.312  13.262 -0.8937 -0.0485 -0.2255
14416TIP3    H164663   0.493   4.369  13.317 -2.2396 -0.8536  2.0000
14416TIP3    H264664   0.352   4.351  13.265 -1.2118 -0.7070 -0.9077
14417TIP3   OH264665   6.627   4.859   4.381  0.1625  0.0438 -0.1060
14417TIP3    H164666   6.588   4.903   4.457  1.5239  1.9525 -0.4913
14417TIP3    H264667   6.660   4.776   4.417 -2.4245 -0.7420  0.6178
14418TIP3   OH264668   5.932   0.573   2.284  0.0760 -0.2154 -0.1210
14418TIP3    H164669   6.003   0.608   2.338  0.6765 -3.2971  1.2528
14418TIP3    H264670   5.857   0.569   2.343  0.0047 -1.1060 -0.2618
14419TIP3   OH264671   2.041   2.609  13.547  0.1051 -0.3607 -0.0188
14419TIP3    H164672   2.008   2.663  13.475  0.7050  2.1701  1.5559
14419TIP3    H264673   1.967   2.555  13.573 -0.5170 -0.3058 -1.5986
14420TIP3   OH264674   3.965   3.610   3.834 -0.0685  0.1655  0.1010
14420TIP3    H164675   3.975   3.568   3.919 -0.6050  1.9901  1.0883
14420TIP3    H264676   4.038   3.673   3.830  0.9937 -1.1069 -1.5423
14421TIP3   OH264677   6.758   0.959   5.458 -0.0635 -0.3851  0.6295
14421TIP3    H164678   6.700   0.894   5.419 -1.8734  1.4187  0.2094
14421TIP3    H264679   6.744   1.038   5.404  1.3807  0.6154  1.6874
14422TIP3   OH264680   0.164   4.138   6.294 -0.6403  1.0503  0.7294
14422TIP3    H164681   0.077   4.178   6.299 -0.2999  2.2224 -1.9763
14422TIP3    H264682   0.224   4.212   6.300  0.0728  0.6396 -1.1465
14423TIP3   OH264683   0.023   6.165  12.074 -0.1445  0.1163  0.1202
14423TIP3    H164684   0.100   6.216  12.100  0.7221 -1.2586  0.2983
14423TIP3    H264685  -0.038   6.175  12.148  0.6489 -0.3846  0.8580
14424TIP3   OH264686   1.810   1.692  13.692  0.0789  0.4773 -0.0742
14424TIP3    H164687   1.786   1.665  13.603  0.0511  0.7403 -0.1458
14424TIP3    H264688   1.822   1.609  13.739  0.9437  0.3336 -0.5486
14425TIP3   OH264689   0.779   3.648  14.145 -0.2974  0.0468 -0.0845
14425TIP3    H164690   0.752   3.583  14.210 -0.5581  0.7712  0.5496
14425TIP3    H264691   0.708   3.712  14.144  0.7871  1.2983  0.6677
14426TIP3   OH264692   4.756   3.192   5.396 -0.1432 -0.2654  0.0564
14426TIP3    H164693   4.673   3.233   5.372 -0.6065 -1.1456  0.1152
14426TIP3    H264694   4.804   3.260   5.444 -0.5501  0.4613 -0.5600
14427TIP3   OH264695   0.638   4.098   4.655 -0.2552  0.0725 -0.8308
14427TIP3    H164696   0.652   4.017   4.705 -0.5986  0.8402  0.5256
14427TIP3    H264697   0.573   4.075   4.590  0.0445 -0.8932 -0.7970
14428TIP3   OH264698   5.347   2.891   5.551 -0.5048 -0.4440  0.1258
14428TIP3    H164699   5.358   2.801   5.581  0.8478 -0.4596 -0.3643
14428TIP3    H264700   5.361   2.944   5.630  3.4774 -0.4636 -0.4455
14429TIP3   OH264701   0.404   5.484  15.248  0.5177  0.5750 -0.1956
14429TIP3    H164702   0.365   5.571  15.259  0.6308  0.6835 -0.6685
14429TIP3    H264703   0.343   5.438  15.190 -0.8441 -0.4852  2.0070
14430TIP3   OH264704   0.171   4.821  14.900 -0.0556 -0.9769 -0.2181
14430TIP3    H164705   0.208   4.763  14.833  0.2139 -1.6798  0.5371
14430TIP3    H264706   0.243   4.877  14.927 -0.0331 -1.0445 -0.1385
14431TIP3   OH264707   2.666   6.425  13.222 -0.4944  0.5220 -0.1067
14431TIP3    H164708   2.662   6.475  13.141  0.5745  1.7515  0.5808
14431TIP3    H264709   2.716   6.480  13.282 -2.0913  0.0712  1.7053
14432TIP3   OH264710   2.536   3.915  15.013 -0.7135 -0.1979  0.8176
14432TIP3    H164711   2.495   3.972  14.947  0.7490  0.2783  0.2955
14432TIP3    H264712   2.519   3.960  15.096 -0.4717  0.4666  0.5152
14433TIP3   OH264713   0.068   4.820  16.818 -0.1912 -0.1406 -0.6174
14433TIP3    H164714  -0.026   4.803  16.819 -0.1378 -0.5658  2.4849
14433TIP3    H264715   0.108   4.734  16.807 -0.1611 -0.5514  2.1520
14434TIP3   OH264716   5.303   3.221   3.030  0.5735 -0.1006  0.4001
14434TIP3    H164717   5.395   3.213   3.005  0.3729 -0.9286 -0.0747
14434TIP3    H264718   5.255   3.208   2.948 -0.0072 -0.8231  0.8548
14435TIP3   OH264719   5.206   1.739  12.689 -0.2280  0.1251  0.0371
14435TIP3    H164720   5.300   1.750  12.696  0.2152 -1.7743 -2.3405
14435TIP3    H264721   5.169   1.803  12.750  2.6120 -0.2988  2.2393
14436TIP3   OH264722   6.512   2.538  11.709  0.0444 -0.2020 -0.0335
14436TIP3    H164723   6.417   2.532  11.700 -0.0120 -1.4323  1.2519
14436TIP3    H264724   6.537   2.457  11.753  1.5646  0.6404  0.6766
14437TIP3   OH264725   1.394   6.150  13.130 -0.4517 -0.1127  0.2578
14437TIP3    H164726   1.321   6.165  13.189 -0.8767  1.2165 -0.5845
14437TIP3    H264727   1.472   6.155  13.186 -0.9638 -0.8540  1.0356
14438TIP3   OH264728   5.312   1.976   1.299  0.1752 -0.3845 -0.1127
14438TIP3    H164729   5.258   1.954   1.375 -0.8255 -1.0185 -0.9969
14438TIP3    H264730   5.400   1.984   1.334 -0.2468 -0.8676  1.0832
14439TIP3   OH264731   6.276   6.130   5.574  0.0773  0.0673 -0.8139
14439TIP3    H164732   6.330   6.209   5.568 -0.2088  0.4090  0.9900
14439TIP3    H264733   6.194   6.154   5.531 -0.1174  0.8501 -0.0157
14440TIP3   OH264734   2.002   2.626   3.665  0.4973 -0.2781  0.0395
14440TIP3    H164735   1.927   2.580   3.702  0.0199  0.2410 -0.2752
14440TIP3    H264736   2.001   2.712   3.708  0.3758  0.0594 -0.6245
14441TIP3   OH264737   0.728   1.421  13.035  0.1746 -0.3419 -0.0182
14441TIP3    H164738   0.747   1.409  13.128 -1.2285  0.6858  0.4002
14441TIP3    H264739   0.765   1.506  13.013  0.9358 -0.7960 -0.5291
14442TIP3   OH264740   0.621   0.168   5.246  0.0765  0.4774 -0.1892
14442TIP3    H164741   0.666   0.176   5.162  0.5596 -0.1796  0.0078
14442TIP3    H264742   0.619   0.074   5.264  2.9748  0.7818  2.1483
14443TIP3   OH264743   4.967   3.342   0.273  0.0749  0.3835 -0.1282
14443TIP3    H164744   4.922   3.262   0.248  1.1682 -0.2826 -0.0010
14443TIP3    H264745   4.962   3.399   0.196  0.6195 -0.4010 -0.7453
14444TIP3   OH264746   4.303   0.996   3.478 -0.4079  0.0502  0.4202
14444TIP3    H164747   4.389   0.977   3.440  1.1417  4.2431  1.6038
14444TIP3    H264748   4.312   0.976   3.571 -1.4620 -1.6519  0.1820
14445TIP3   OH264749   5.506   1.012   0.155 -0.3354  0.2778  0.1332
14445TIP3    H164750   5.522   1.044   0.067 -0.4103  0.4050  0.1666
14445TIP3    H264751   5.518   1.088   0.211 -0.3832  0.2187  0.2241
14446TIP3   OH264752   6.124   4.911   2.917 -0.6453 -0.4250 -0.3175
14446TIP3    H164753   6.131   4.816   2.908 -0.9334 -0.5576  0.8414
14446TIP3    H264754   6.161   4.945   2.835 -0.5725 -1.5295 -0.7542
14447TIP3   OH264755   3.800   2.110  11.270 -0.5696  0.3659 -0.1110
14447TIP3    H164756   3.712   2.146  11.265 -0.9587 -0.2284  1.8373
14447TIP3    H264757   3.855   2.184  11.295 -0.4692  0.7956 -1.5994
14448TIP3   OH264758   5.699   5.720  16.296  0.1027  0.3693  0.0553
14448TIP3    H164759   5.617   5.747  16.336  0.4591  2.3581 -0.4529
14448TIP3    H264760   5.673   5.662  16.224 -0.8358  0.6528  0.1568
14449TIP3   OH264761   2.068   6.066  17.095  0.1842  0.7077  0.1384
14449TIP3    H164762   2.029   6.096  17.176 -2.8292 -3.9936  0.6449
14449TIP3    H264763   2.124   5.993  17.121  1.1169  0.7174 -1.7486
14450TIP3   OH264764   0.542   0.477  14.658  0.3832 -0.2162  0.2528
14450TIP3    H164765   0.459   0.431  14.670 -2.4010  4.0065 -1.8370
14450TIP3    H264766   0.591   0.421  14.597 -0.6371 -2.9714  1.8541
14451TIP3   OH264767   6.123   1.394   6.361 -0.3424 -0.7064  0.4874
14451TIP3    H164768   6.151   1.418   6.449  1.6846  0.3637 -0.4014
14451TIP3    H264769   6.160   1.308   6.345 -0.7831 -0.9377  0.7080
14452TIP3   OH264770   1.064   0.542  15.664 -0.5484  0.1044  0.3998
14452TIP3    H164771   1.054   0.477  15.594 -1.4432  0.1379  0.4937
14452TIP3    H264772   1.041   0.625  15.622 -1.2654  0.1014  0.7750
14453TIP3   OH264773   1.105   2.407   0.568  0.1192  0.1145 -0.0136
14453TIP3    H164774   1.125   2.328   0.518 -3.3094  0.0950 -1.4648
14453TIP3    H264775   1.146   2.478   0.518  0.2169 -0.3621 -0.6100
14454TIP3   OH264776   6.440   0.352   2.719  0.4698 -0.1021 -0.0853
14454TIP3    H164777   6.353   0.312   2.719 -0.0896  1.0896  0.4839
14454TIP3    H264778   6.427   0.439   2.680  1.8262 -0.7727 -2.1451
14455TIP3   OH264779   2.276   0.798  14.083 -0.2058  0.6247  0.1165
14455TIP3    H164780   2.366   0.825  14.066 -0.1895  1.2616  1.1844
14455TIP3    H264781   2.284   0.711  14.123 -0.0749  0.6214  0.0834
14456TIP3   OH264782   4.738   6.229  14.712 -0.2377 -0.1111 -0.5664
14456TIP3    H164783   4.685   6.276  14.648  0.9087  0.9343 -0.7722
14456TIP3    H264784   4.816   6.283  14.723  0.1070 -0.8697  0.8554
14457TIP3   OH264785   1.154   2.883   0.224  0.5482 -0.1691 -0.1697
14457TIP3    H164786   1.187   2.925   0.304 -2.1394  1.6862  0.0152
14457TIP3    H264787   1.192   2.796   0.226  2.1024  0.5079  2.1362
14458TIP3   OH264788   3.950   2.712  16.665 -0.2459  0.2980  0.5554
14458TIP3    H164789   4.012   2.756  16.722 -0.3822  2.3818 -0.8490
14458TIP3    H264790   3.991   2.713  16.579 -0.2145 -2.4456  0.4853
14459TIP3   OH264791   4.491   1.351   5.397 -0.3322 -0.2861 -0.0501
14459TIP3    H164792   4.446   1.319   5.319  0.1188 -0.3910 -0.2659
14459TIP3    H264793   4.424   1.350   5.465 -0.8216  0.1279 -0.5167
14460TIP3   OH264794   1.817   3.579  14.533 -0.7016 -0.9377  0.1894
14460TIP3    H164795   1.844   3.495  14.495  2.3507 -0.5045  1.2108
14460TIP3    H264796   1.848   3.644  14.469  0.5544 -0.4290  1.2952
14461TIP3   OH264797   1.251   5.001  16.387  0.1293 -0.5022  0.0309
14461TIP3    H164798   1.237   5.009  16.481  0.6777  0.1770  0.0603
14461TIP3    H264799   1.344   5.021  16.375  0.1364 -0.8996 -0.6177
14462TIP3   OH264800   0.541   6.549  14.704 -0.1542 -0.5658  0.0751
14462TIP3    H164801   0.462   6.516  14.662 -0.7787  0.6297  0.2928
14462TIP3    H264802   0.608   6.484  14.682 -1.3789 -2.0564  0.6232
14463TIP3   OH264803   5.736   3.585   3.894  0.6761  0.0429  0.2098
14463TIP3    H164804   5.710   3.503   3.850 -1.5845  0.4342  0.7705
14463TIP3    H264805   5.751   3.647   3.822  0.3523 -0.2780 -0.1370
14464TIP3   OH264806   3.758   1.277   3.295  0.0445 -0.3603  0.4938
14464TIP3    H164807   3.715   1.335   3.359 -0.0607 -1.7304  1.6789
14464TIP3    H264808   3.687   1.252   3.235  0.3001  1.5365 -0.6464
14465TIP3   OH264809   5.674   1.472   5.072  0.2789 -0.4257  0.4032
14465TIP3    H164810   5.671   1.534   5.144  0.4394 -0.1654  0.1854
14465TIP3    H264811   5.742   1.409   5.097  0.6915 -0.0461  0.2458
14466TIP3   OH264812   0.550   2.753   5.693  0.5070 -0.2338  0.5877
14466TIP3    H164813   0.642   2.748   5.669  0.2643 -0.3370 -0.3241
14466TIP3    H264814   0.537   2.845   5.718  0.6381 -0.0048 -0.1780
14467TIP3   OH264815   6.398   4.365   3.749 -0.3855 -0.3432 -0.3570
14467TIP3    H164816   6.344   4.362   3.828 -1.3771  1.0545 -0.9516
14467TIP3    H264817   6.366   4.291   3.696  1.5203 -2.4142  1.2816
14468TIP3   OH264818   6.588   2.880  16.864  0.4273  0.1222  0.6458
14468TIP3    H164819   6.543   2.905  16.784  1.4221  0.3390  0.1456
14468TIP3    H264820   6.612   2.789  16.851 -0.1307 -0.0879  1.0441
14469TIP3   OH264821   3.618   2.008  13.346  0.5271  0.3303  0.5240
14469TIP3    H164822   3.635   1.933  13.403  0.4339  0.2606  0.4603
14469TIP3    H264823   3.602   2.081  13.406 -1.0302 -0.0614  0.6034
14470TIP3   OH264824   5.356   6.316   1.275 -0.3008  0.2947  0.0499
14470TIP3    H164825   5.267   6.352   1.269 -0.1112  0.7308 -0.1298
14470TIP3    H264826   5.393   6.357   1.353 -1.0540 -1.6381  1.4831
14471TIP3   OH264827   0.074   3.901  14.060 -0.2109  0.1778 -0.5396
14471TIP3    H164828   0.008   3.833  14.079 -0.6300  0.6162 -0.4252
14471TIP3    H264829   0.047   3.976  14.113  1.3278 -0.1901  0.8117
14472TIP3   OH264830   3.012   2.427   1.822 -0.4221 -0.1245 -0.1668
14472TIP3    H164831   3.017   2.402   1.730 -1.3540  0.2628 -0.3285
14472TIP3    H264832   3.056   2.512   1.826  1.7803 -1.2352  0.1921
14473TIP3   OH264833   2.206   4.791  16.243  0.9947 -0.2273  0.5775
14473TIP3    H164834   2.204   4.878  16.203 -1.6098 -1.3642 -1.9043
14473TIP3    H264835   2.277   4.797  16.308  0.3822  3.9306  1.0278
14474TIP3   OH264836   2.630   4.573   2.008 -0.3672  0.1983 -0.1350
14474TIP3    H164837   2.574   4.643   1.973 -0.4913 -0.3503 -1.0610
14474TIP3    H264838   2.603   4.564   2.099  0.0683  1.7706  0.1644
14475TIP3   OH264839   4.625   6.454   6.375  0.0916 -0.5467  0.3335
14475TIP3    H164840   4.659   6.371   6.409  0.8293 -0.4901 -0.2567
14475TIP3    H264841   4.649   6.519   6.441 -0.3071 -0.7714  0.6980
14476TIP3   OH264842   3.747   4.890   1.027  0.0181  0.3010  0.4037
14476TIP3    H164843   3.813   4.915   1.092 -0.5880 -0.7372  1.4318
14476TIP3    H264844   3.798   4.853   0.954  0.5394 -1.0021  1.4219
14477TIP3   OH264845   1.940   4.444   3.070  0.5385 -0.4813  0.2029
14477TIP3    H164846   1.922   4.352   3.053  3.0084 -1.0004  0.2169
14477TIP3    H264847   1.935   4.453   3.165  2.5409 -1.1197  0.3812
14478TIP3   OH264848   5.819   1.121  13.369 -0.1237 -0.1810 -0.0359
14478TIP3    H164849   5.765   1.132  13.446  1.4052  0.4866  0.9695
14478TIP3    H264850   5.817   1.027  13.351 -0.8196 -0.2809  0.5604
14479TIP3   OH264851   1.092   2.174  16.108 -0.3376  0.1872  0.1082
14479TIP3    H164852   1.011   2.183  16.059  0.4056 -3.1537 -1.9548
14479TIP3    H264853   1.067   2.129  16.189 -0.5548 -0.7825 -0.4969
14480TIP3   OH264854   3.443   0.964   5.437 -0.4269  0.2542  0.5156
14480TIP3    H164855   3.502   1.024   5.391 -0.1294 -0.4872 -0.0844
14480TIP3    H264856   3.499   0.918   5.499 -0.0198 -1.6558 -1.2227
14481TIP3   OH264857   5.871   2.176   0.404 -0.1291 -0.1176  0.0184
14481TIP3    H164858   5.960   2.144   0.393  0.9207  1.8074  2.4193
14481TIP3    H264859   5.825   2.106   0.450  0.3832 -0.7486 -0.4317
14482TIP3   OH264860   0.888   0.688  11.535  0.2188  0.6650  0.2971
14482TIP3    H164861   0.824   0.726  11.596  0.2552  1.4007 -0.1182
14482TIP3    H264862   0.872   0.733  11.452  0.4091 -0.0822 -0.1469
14483TIP3   OH264863   1.679   0.577  17.092  0.4490  0.0790  0.0481
14483TIP3    H164864   1.676   0.482  17.080  0.5660  0.1002 -0.1682
14483TIP3    H264865   1.725   0.590  17.175 -0.1222 -0.0702  0.3906
14484TIP3   OH264866   5.219   5.657   2.768  0.4911 -0.4922  0.2329
14484TIP3    H164867   5.182   5.702   2.692 -1.3650 -0.3286  1.2102
14484TIP3    H264868   5.249   5.728   2.825  0.9903 -0.5944  0.1012
14485TIP3   OH264869   6.464   2.601  12.615 -0.4557 -0.6825 -0.6416
14485TIP3    H164870   6.437   2.652  12.539  1.2933  1.4755  0.1278
14485TIP3    H264871   6.559   2.593  12.606 -0.1857 -0.1276  1.4471
14486TIP3   OH264872   2.113   5.682   1.884  0.2421  0.7787  0.4875
14486TIP3    H164873   2.020   5.706   1.883 -0.0268 -0.1841 -2.3286
14486TIP3    H264874   2.156   5.747   1.829  0.8888  0.0035  0.0552
14487TIP3   OH264875   5.992   0.439  11.660  0.1229  0.0487  0.1349
14487TIP3    H164876   5.929   0.512  11.665 -1.5712 -1.4234  0.8139
14487TIP3    H264877   6.047   0.460  11.584 -0.5355  1.8708  0.1255
14488TIP3   OH264878   1.050   1.457   2.982  0.6345 -0.0626 -0.4972
14488TIP3    H164879   1.026   1.439   3.073 -1.6473  1.0105 -0.8604
14488TIP3    H264880   1.119   1.523   2.987  0.5990 -0.0993  0.4423
14489TIP3   OH264881   4.805   2.802  11.162 -0.3453  0.2327 -0.1378
14489TIP3    H164882   4.881   2.813  11.219  0.7431 -0.1161 -1.4754
14489TIP3    H264883   4.780   2.892  11.139  0.4452  0.3217 -0.6824
14490TIP3   OH264884   2.501   3.931  15.395 -0.4533  0.9422  0.0169
14490TIP3    H164885   2.477   3.989  15.468 -1.5001  2.6179 -1.6211
14490TIP3    H264886   2.442   3.957  15.324 -0.4176 -1.6439 -0.9835
14491TIP3   OH264887   0.158   2.015   4.222  0.1106  0.7002 -0.6786
14491TIP3    H164888   0.154   2.047   4.131 -0.7641  2.0811 -0.1724
14491TIP3    H264889   0.156   2.095   4.275 -1.3014 -0.1833  0.6073
14492TIP3   OH264890   5.607   1.946  10.304  0.0670  0.2557 -0.4092
14492TIP3    H164891   5.557   1.892  10.366 -3.3176  1.6183 -1.8095
14492TIP3    H264892   5.620   1.889  10.229  0.1240  0.0607 -0.2529
14493TIP3   OH264893   4.063   3.787   2.226 -0.8297  0.0789 -0.3384
14493TIP3    H164894   4.042   3.822   2.139  0.8957 -0.8660 -1.1588
14493TIP3    H264895   4.054   3.692   2.216 -0.5223 -0.0349  0.4859
14494TIP3   OH264896   5.194   6.189   4.560 -0.3159 -0.6470 -0.6207
14494TIP3    H164897   5.109   6.154   4.532 -0.4292 -0.5253 -0.4277
14494TIP3    H264898   5.214   6.256   4.494  0.0704 -1.3181 -1.1914
14495TIP3   OH264899   1.090   2.259   4.066  0.4982 -0.3404 -0.4269
14495TIP3    H164900   1.153   2.259   4.138 -0.4542  0.7179  0.4142
14495TIP3    H264901   1.104   2.343   4.022 -0.8524  0.2244  0.2224
14496TIP3   OH264902   6.469   2.698  12.156 -0.5088  0.4682  0.0663
14496TIP3    H164903   6.564   2.689  12.156 -0.5120  0.3251  0.9143
14496TIP3    H264904   6.437   2.622  12.108 -0.1749  0.8273 -0.7267
14497TIP3   OH264905   1.323   1.072   1.159 -0.0560  0.4126  0.8145
14497TIP3    H164906   1.397   1.098   1.104  1.1171 -0.9668  1.7023
14497TIP3    H264907   1.254   1.048   1.096  0.5752  0.7857 -0.0350
14498TIP3   OH264908   2.519   4.904   2.117 -0.1865  0.3863 -0.3432
14498TIP3    H164909   2.607   4.876   2.141 -0.8094 -0.6159  0.8193
14498TIP3    H264910   2.532   4.985   2.068  1.3575  0.4538  0.1606
14499TIP3   OH264911   5.703   5.197   1.069 -0.7380  0.1839  0.3750
14499TIP3    H164912   5.767   5.180   1.138  0.9867 -1.0510 -1.4917
14499TIP3    H264913   5.704   5.292   1.058 -0.7584  0.3533  1.7737
14500TIP3   OH264914   6.612   1.451   5.281  0.5550  0.1265  0.0636
14500TIP3    H164915   6.549   1.513   5.244  1.4362  0.9080 -0.1805
14500TIP3    H264916   6.641   1.491   5.363  1.1616  0.0671 -0.1137
14501TIP3   OH264917   1.044   5.687   1.232  0.2775 -0.6532 -0.6467
14501TIP3    H164918   0.959   5.683   1.188  0.5140 -0.3102 -1.1256
14501TIP3    H264919   1.093   5.755   1.186  0.6487 -0.5336 -0.0790
14502TIP3   OH264920   0.368   3.512  17.020 -0.3572 -0.4175 -0.3693
14502TIP3    H164921   0.455   3.471  17.021  0.6054  1.5282  2.2042
14502TIP3    H264922   0.319   3.464  17.087  0.2001  1.3289  1.3475
14503TIP3   OH264923   1.078   1.305  12.135 -0.2220  0.5166  0.2171
14503TIP3    H164924   1.108   1.371  12.198  1.3760 -0.0461  0.0690
14503TIP3    H264925   1.028   1.243  12.188  1.6256 -0.2806  1.0489
14504TIP3   OH264926   3.430   1.220   4.889 -0.2950  0.3261 -0.0811
14504TIP3    H164927   3.424   1.315   4.887  1.2985  0.4441  0.5133
14504TIP3    H264928   3.389   1.191   4.807 -1.9741  1.4485  0.3464
14505TIP3   OH264929   2.270   4.623   4.686  0.4001 -0.6754 -0.0766
14505TIP3    H164930   2.223   4.679   4.624 -0.8619 -0.2117  1.2932
14505TIP3    H264931   2.248   4.534   4.659  1.0775 -0.5106 -1.2264
14506TIP3   OH264932   1.860   4.957  12.560  0.1897  0.0701 -0.2126
14506TIP3    H164933   1.791   4.990  12.617  1.3480  1.6571  0.3095
14506TIP3    H264934   1.826   4.969  12.471 -0.1847  0.8999  0.0417
14507TIP3   OH264935   6.699   3.639   4.243  1.0972  0.4068  0.0464
14507TIP3    H164936   6.629   3.693   4.207  1.3650  0.2691 -0.6864
14507TIP3    H264937   6.780   3.687   4.225  1.2012  0.5231  0.8075
14508TIP3   OH264938   5.472   2.381   2.919 -0.4413  0.1304  0.2010
14508TIP3    H164939   5.517   2.449   2.970  0.3319 -0.4637  0.3305
14508TIP3    H264940   5.501   2.395   2.829 -0.7319  0.3219  0.1350
14509TIP3   OH264941   4.226   0.079   2.131 -0.3385  0.9876 -0.9290
14509TIP3    H164942   4.204   0.045   2.044  0.2932 -0.1517 -0.6538
14509TIP3    H264943   4.141   0.100   2.170 -0.8625 -1.5327 -0.6096
14510TIP3   OH264944   5.303   3.899  14.551 -0.0632 -0.0486 -0.1248
14510TIP3    H164945   5.290   3.953  14.473  3.3787  3.3035  1.4922
14510TIP3    H264946   5.362   3.950  14.607 -0.2573 -3.5398  3.5154
14511TIP3   OH264947   5.146   1.276  11.124 -0.0240  0.0232  0.0078
14511TIP3    H164948   5.097   1.232  11.056 -0.4521 -0.4885  0.6375
14511TIP3    H264949   5.233   1.236  11.121 -0.4032 -0.8708  0.5636
14512TIP3   OH264950   5.104   1.096  10.581 -0.8524 -0.5432 -0.2542
14512TIP3    H164951   5.123   1.003  10.576  1.3007 -0.2140  1.1539
14512TIP3    H264952   5.009   1.101  10.590 -1.0855 -2.5400 -1.4254
14513TIP3   OH264953   4.185   4.222  12.617  0.0541 -0.5571 -0.6649
14513TIP3    H164954   4.154   4.177  12.696 -1.9448  1.7671 -0.0443
14513TIP3    H264955   4.245   4.289  12.650  2.1110 -1.9593 -1.4717
14514TIP3   OH264956   2.638   5.121   5.492 -0.4922  0.2613 -0.3709
14514TIP3    H164957   2.676   5.183   5.430 -0.9181 -0.5699 -1.4801
14514TIP3    H264958   2.682   5.038   5.472 -2.2386 -0.5054 -1.0481
14515TIP3   OH264959   5.151   2.734   3.660  0.4494  0.2704 -0.1153
14515TIP3    H164960   5.246   2.743   3.650  0.5723 -1.3564 -0.4995
14515TIP3    H264961   5.122   2.690   3.580 -0.5992  0.5129  0.1237
14516TIP3   OH264962   3.159   4.271  10.813 -0.1071 -0.1219 -0.0480
14516TIP3    H164963   3.190   4.209  10.747  0.3362  1.6474 -1.5330
14516TIP3    H264964   3.164   4.357  10.770 -0.1221  1.0264  2.1670
14517TIP3   OH264965   4.573   6.281   1.957  0.3829  0.1729 -0.2487
14517TIP3    H164966   4.553   6.217   1.889  3.5491 -1.6905  0.4610
14517TIP3    H264967   4.572   6.231   2.038  1.0348  1.4180  0.5454
14518TIP3   OH264968   3.136   4.468   0.495 -0.2808  0.5373  0.2764
14518TIP3    H164969   3.084   4.499   0.570  0.2962 -0.0083  0.9103
14518TIP3    H264970   3.197   4.405   0.533 -0.3220 -0.1214 -0.7417
14519TIP3   OH264971   6.237   1.171   5.807 -0.2581  0.0297 -0.1545
14519TIP3    H164972   6.229   1.134   5.719 -0.7934 -2.9984  1.1067
14519TIP3    H264973   6.183   1.250   5.804 -1.5445 -0.8646 -2.1214
14520TIP3   OH264974   4.446   3.458  11.679  0.1236 -0.4370  0.3016
14520TIP3    H164975   4.369   3.453  11.736  1.9446 -1.8074  2.7353
14520TIP3    H264976   4.520   3.442  11.737  2.4937  3.0668 -1.5407
14521TIP3   OH264977   5.847   0.545   3.327  0.0529 -0.5212  0.1390
14521TIP3    H164978   5.929   0.553   3.376  0.4014  0.1605 -0.5613
14521TIP3    H264979   5.874   0.521   3.239 -0.3050  2.7061 -0.8972
14522TIP3   OH264980   2.384   3.350  16.016  0.6823 -0.2455 -0.0940
14522TIP3    H164981   2.320   3.281  15.997 -0.0110  0.3716  0.0030
14522TIP3    H264982   2.333   3.430  16.022  1.1961 -0.0472  1.9270
14523TIP3   OH264983   3.537   5.782  13.829 -0.5770 -0.1949 -0.3144
14523TIP3    H164984   3.479   5.784  13.904  0.4040  0.6989  0.4346
14523TIP3    H264985   3.481   5.804  13.754 -1.3601 -0.1787  0.2766
14524TIP3   OH264986   6.272   2.241   2.092  0.0910  0.4346 -0.3528
14524TIP3    H164987   6.301   2.150   2.083 -2.1251 -0.4445  0.9264
14524TIP3    H264988   6.225   2.259   2.010 -0.2031  0.1156 -0.2599
14525TIP3   OH264989   0.408   3.072  12.160 -0.1874  0.2419 -0.3648
14525TIP3    H164990   0.336   3.052  12.101 -0.3655  1.2525 -0.5018
14525TIP3    H264991   0.458   2.991  12.166 -0.7113 -0.1410 -1.1479
14526TIP3   OH264992   0.070   3.951  17.159  0.3903  0.2448 -0.5784
14526TIP3    H164993   0.007   3.894  17.204  0.4672  0.9524  0.4258
14526TIP3    H264994   0.043   4.040  17.182  1.9076  0.5516  0.0876
14527TIP3   OH264995   1.138   1.571   5.878  0.2486 -0.4183 -0.1513
14527TIP3    H164996   1.157   1.514   5.803  0.0549 -0.0485 -0.4860
14527TIP3    H264997   1.087   1.516   5.938 -2.6833  0.2904 -1.8602
14528TIP3   OH264998   5.147   3.230   2.820 -0.6843  0.2260 -0.3803
14528TIP3    H164999   5.187   3.264   2.740 -1.1659  0.3399 -0.5731
14528TIP3    H265000   5.053   3.249   2.810 -0.7483  0.2190  0.1979
14529TIP3   OH265001   3.780   2.559  15.869 -0.5387 -0.5144  0.1524
14529TIP3    H165002   3.701   2.582  15.917 -0.3188 -1.8391  1.1446
14529TIP3    H265003   3.755   2.486  15.813 -0.6017  0.5399 -1.2421
14530TIP3   OH265004   2.503   2.307   5.358 -0.2355 -0.6827  0.5322
14530TIP3    H165005   2.447   2.363   5.412  1.4840  1.6878 -0.0330
14530TIP3    H265006   2.451   2.291   5.279 -0.6654  0.3739  0.5839
14531TIP3   OH265007   4.196   6.532  15.248  0.3271 -0.4122  0.6397
14531TIP3    H165008   4.128   6.497  15.306 -0.6312  0.6535  0.1849
14531TIP3    H265009   4.209   6.464  15.182 -1.3815 -0.0089 -0.1337
14532TIP3   OH265010   2.575   3.691  16.953 -0.6759 -0.0337  1.0623
14532TIP3    H165011   2.565   3.777  16.911  0.0529  0.2869  1.5444
14532TIP3    H265012   2.580   3.711  17.047 -0.9998 -0.6454  1.2093
14533TIP3   OH265013   3.756   1.018  15.884 -0.5736  0.2344 -0.3680
14533TIP3    H165014   3.834   1.018  15.939 -0.0181  2.0983 -1.1204
14533TIP3    H265015   3.684   1.036  15.945 -0.2429 -0.0188  0.1038
14534TIP3   OH265016   4.433   1.424   1.115 -0.1640  0.5391  0.1537
14534TIP3    H165017   4.449   1.519   1.112 -1.4788  0.8323  1.5102
14534TIP3    H265018   4.357   1.411   1.058 -0.3978  0.4102  0.4897
14535TIP3   OH265019   1.683   5.982   4.247 -0.0018  0.4516  0.9939
14535TIP3    H165020   1.650   5.934   4.171 -1.0982  0.7994  1.2425
14535TIP3    H265021   1.771   5.947   4.261  0.2639  0.4597 -0.5043
14536TIP3   OH265022   5.183   5.946   2.392 -0.3251  0.1714  0.2823
14536TIP3    H165023   5.265   5.944   2.442  0.4529  1.5404 -0.8936
14536TIP3    H265024   5.116   5.917   2.454  0.5900  1.9399  2.1436
14537TIP3   OH265025   1.945   2.286  11.942 -0.2087  0.1591  0.4127
14537TIP3    H165026   1.900   2.298  11.858 -1.2688  2.1637  1.2421
14537TIP3    H265027   2.038   2.296  11.922 -0.1743 -2.7458 -1.1011
14538TIP3   OH265028   3.313   3.657   4.370 -0.5098  0.0071 -0.3952
14538TIP3    H165029   3.381   3.601   4.405  0.4001  1.7525  0.7122
14538TIP3    H265030   3.359   3.721   4.317 -1.1511  1.7745  1.1116
14539TIP3   OH265031   2.536   0.221   2.263  0.6251 -0.1171 -0.2702
14539TIP3    H165032   2.553   0.128   2.277  0.2415 -0.1377  0.0596
14539TIP3    H265033   2.577   0.265   2.337  1.0691  0.0044 -0.5836
14540TIP3   OH265034   3.987   2.151   5.596 -0.7252 -0.0464 -0.2097
14540TIP3    H165035   4.024   2.087   5.656  1.5559  0.4491 -1.0262
14540TIP3    H265036   3.893   2.129   5.592 -0.5870 -1.2169  2.0580
14541TIP3   OH265037   3.111   2.408  11.883  0.3806 -0.0157  0.1978
14541TIP3    H165038   3.031   2.364  11.911 -0.5495  2.0069  0.8227
14541TIP3    H265039   3.092   2.501  11.895  2.5735  0.5187 -0.3433
14542TIP3   OH265040   3.067   6.619  11.971  0.1971 -0.5478  0.1058
14542TIP3    H165041   3.155   6.612  12.009  0.5205 -0.9723 -0.7150
14542TIP3    H265042   3.037   6.528  11.966  0.0785 -0.4750 -0.4775
14543TIP3   OH265043   4.952   1.586  16.673  0.0396 -0.1041  0.0609
14543TIP3    H165044   4.933   1.679  16.662  1.5006  0.0979 -0.9893
14543TIP3    H265045   5.034   1.584  16.723 -0.3140 -0.8381  0.6197
14544TIP3   OH265046   2.073   3.663  16.938 -0.0421 -0.7176  0.3716
14544TIP3    H165047   2.127   3.738  16.913  1.1210 -1.1843  1.4413
14544TIP3    H265048   2.002   3.701  16.990 -0.0627 -0.2548  0.0118
14545TIP3   OH265049   3.454   3.342   5.644  0.2809  0.2684 -0.4941
14545TIP3    H165050   3.361   3.361   5.631  0.0822 -1.0761 -1.1811
14545TIP3    H265051   3.456   3.249   5.666  1.3342  0.6517  1.1300
14546TIP3   OH265052   5.495   6.665  13.389  0.0401 -0.5027 -0.2662
14546TIP3    H165053   5.515   6.683  13.297  0.9269 -0.8764 -0.1574
14546TIP3    H265054   5.531   6.577  13.404 -1.0971 -0.9167  0.1420
14547TIP3   OH265055   5.608   0.526  12.007 -0.2834  0.2185 -0.7589
14547TIP3    H165056   5.605   0.459  11.938 -2.2024 -0.3474 -0.1571
14547TIP3    H265057   5.541   0.498  12.069  0.5037  1.4715  0.6581
14548TIP3   OH265058   2.427   1.952  14.813 -0.0658  0.1533 -0.1307
14548TIP3    H165059   2.380   1.870  14.797 -1.7454  1.3363 -1.4685
14548TIP3    H265060   2.370   2.001  14.871  2.3714 -0.8371  3.2206
14549TIP3   OH265061   2.640   4.357  17.224 -0.8693 -0.1662 -0.6929
14549TIP3    H165062   2.717   4.306  17.198 -1.4362 -1.9360  1.0352
14549TIP3    H265063   2.661   4.447  17.197  0.8010 -1.0196 -2.3547
14550TIP3   OH265064   1.474   1.891   0.575  0.1817 -0.3047 -0.3050
14550TIP3    H165065   1.460   1.882   0.669  1.0929  0.6455 -0.0703
14550TIP3    H265066   1.559   1.932   0.567 -0.6887  1.3244 -1.5018
14551TIP3   OH265067   6.620   1.446  15.564  0.4921 -0.3413  0.1022
14551TIP3    H165068   6.584   1.430  15.651  0.7515 -0.1006  0.2570
14551TIP3    H265069   6.545   1.438  15.505  0.3226 -0.5400  0.3445
14552TIP3   OH265070   5.539   3.561   5.281  0.2310 -0.2999 -0.0944
14552TIP3    H165071   5.516   3.618   5.355 -1.8757 -0.4941 -0.5650
14552TIP3    H265072   5.626   3.527   5.303 -0.1716 -0.0007  2.0679
14553TIP3   OH265073   4.304   4.119   1.175 -0.0285  0.4596 -0.2273
14553TIP3    H165074   4.394   4.146   1.194  0.6072 -1.2874 -0.6837
14553TIP3    H265075   4.288   4.046   1.235 -0.8428  0.1771 -0.7837
14554TIP3   OH265076   6.558   2.960  14.740 -0.3963  0.0232  0.0129
14554TIP3    H165077   6.600   3.016  14.675 -0.8520  1.4120  0.9069
14554TIP3    H265078   6.628   2.938  14.802 -0.2062 -0.4459 -0.3657
14555TIP3   OH265079   5.824   0.141   3.344 -0.5568  0.3930 -0.4070
14555TIP3    H165080   5.870   0.219   3.376 -0.2019  0.8524 -1.9812
14555TIP3    H265081   5.817   0.084   3.421 -0.3331  1.7403  0.6354
14556TIP3   OH265082   1.265   6.524   0.812 -0.4636 -0.6403  0.0334
14556TIP3    H165083   1.332   6.591   0.797 -0.3814 -0.7186  0.0516
14556TIP3    H265084   1.295   6.477   0.889  0.1135 -1.4864 -0.6919
14557TIP3   OH265085   2.989   6.494   3.015 -0.9881  0.1767 -0.3430
14557TIP3    H165086   2.980   6.589   3.010 -1.2334  0.1292 -0.8015
14557TIP3    H265087   2.908   6.460   2.977 -0.0278 -0.2346 -2.0335
14558TIP3   OH265088   0.495   5.015   1.177  0.1718  0.4368  0.4793
14558TIP3    H165089   0.414   5.055   1.146  0.2000  0.5743  0.5854
14558TIP3    H265090   0.467   4.940   1.228  0.1430 -0.2491 -0.5327
14559TIP3   OH265091   1.885   4.954   2.511  0.2562 -0.0874  0.3145
14559TIP3    H165092   1.830   4.897   2.565 -1.1463  1.5674  0.6948
14559TIP3    H265093   1.949   4.990   2.573  1.8123 -2.0479 -0.1362
14560TIP3   OH265094   2.425   1.565   5.132  0.0565  0.1041  0.0096
14560TIP3    H165095   2.427   1.471   5.118  0.0313  0.1586 -0.3485
14560TIP3    H265096   2.333   1.584   5.155 -0.1060  0.1538 -0.6772
14561TIP3   OH265097   2.500   5.706   0.479  0.2539 -0.6651 -0.0267
14561TIP3    H165098   2.558   5.773   0.443 -1.2077  0.4138 -0.4359
14561TIP3    H265099   2.488   5.731   0.571  1.9326 -1.9751  0.5870
14562TIP3   OH265100   3.167   5.483   2.412 -0.1595 -0.7144 -0.7507
14562TIP3    H165101   3.086   5.532   2.403  1.2260  1.2640 -2.8311
14562TIP3    H265102   3.170   5.425   2.336 -0.3546 -1.9622  0.1580
14563TIP3   OH265103   0.411   5.710   0.180  0.0284 -0.0412 -0.0212
14563TIP3    H165104   0.410   5.766   0.102  1.9856  0.5923  0.3673
14563TIP3    H265105   0.343   5.747   0.236  1.6020  2.3313  0.4295
14564TIP3   OH265106   2.758   1.540  13.410 -0.3131 -0.1960  0.2512
14564TIP3    H165107   2.839   1.584  13.435 -0.1705 -0.5878  0.4824
14564TIP3    H265108   2.716   1.518  13.493 -0.4185 -0.4314  0.1361
14565TIP3   OH265109   5.832   4.993  12.618  0.4992 -0.1905  1.0697
14565TIP3    H165110   5.810   4.920  12.676 -0.5183  0.0369  0.9790
14565TIP3    H265111   5.918   4.970  12.583  0.6875 -0.8028  1.9103
14566TIP3   OH265112   1.628   5.504  13.691 -0.2641  0.0277  0.5788
14566TIP3    H165113   1.609   5.598  13.694 -1.0991 -0.1368  0.6214
14566TIP3    H265114   1.574   5.471  13.619 -0.5138 -0.5389  1.0214
14567TIP3   OH265115   2.434   2.609   2.236  0.3683  0.0945 -1.0274
14567TIP3    H165116   2.513   2.658   2.261 -0.2406 -0.4162  2.1542
14567TIP3    H265117   2.364   2.673   2.239  0.4427  0.2502 -2.5039
14568TIP3   OH265118   5.905   5.747   3.570 -0.2572 -0.0097 -0.3384
14568TIP3    H165119   5.989   5.739   3.616  0.0477 -0.5267 -0.9732
14568TIP3    H265120   5.873   5.834   3.593 -0.3014 -0.4077  1.1699
14569TIP3   OH265121   0.214   6.423   3.497  0.0191 -0.6472  0.6391
14569TIP3    H165122   0.128   6.452   3.466  0.5869 -2.6959 -3.1311
14569TIP3    H265123   0.210   6.328   3.494  2.7871 -0.7739 -0.7898
14570TIP3   OH265124   1.885   2.765   2.706  0.1925 -0.1676  0.0123
14570TIP3    H165125   1.830   2.689   2.684 -0.9017  0.8503 -0.8395
14570TIP3    H265126   1.938   2.779   2.627 -0.4737  0.6907 -0.2865
14571TIP3   OH265127   6.180   4.973   4.424 -0.1784 -0.1526  0.2374
14571TIP3    H165128   6.245   4.922   4.375 -0.7678 -0.9255  0.2472
14571TIP3    H265129   6.232   5.024   4.486  0.3774 -1.4111  0.8371
14572TIP3   OH265130   2.358   3.355   5.479 -0.0602  0.0195 -0.5772
14572TIP3    H165131   2.355   3.439   5.523 -0.2954  0.4298 -1.3701
14572TIP3    H265132   2.443   3.353   5.436 -0.0224 -0.1846 -0.4975
14573TIP3   OH265133   2.886   1.135   4.567  0.4735 -0.0320 -0.0071
14573TIP3    H165134   2.817   1.069   4.566 -0.1029  0.5414  0.8815
14573TIP3    H265135   2.860   1.200   4.502  0.1288  0.2361  0.4018
14574TIP3   OH265136   4.192   1.045   5.418  0.4913 -0.5568  0.1967
14574TIP3    H165137   4.281   1.073   5.439  0.0927  1.0035 -0.1128
14574TIP3    H265138   4.200   0.997   5.336  1.0037 -0.0957 -0.0249
14575TIP3   OH265139   0.669   4.117  12.216 -0.3931 -0.1790 -0.7384
14575TIP3    H165140   0.686   4.177  12.289  0.9580  0.4788 -1.5865
14575TIP3    H265141   0.582   4.143  12.184 -0.7411 -0.0887  0.2444
14576TIP3   OH265142   5.939   4.929   4.887 -0.1305  0.5145  0.4546
14576TIP3    H165143   5.970   4.912   4.798 -1.3299  1.0024 -0.0644
14576TIP3    H265144   5.861   4.874   4.896  0.7071 -0.5214  1.6655
14577TIP3   OH265145   6.252   2.412  12.650  1.0795 -0.0846 -0.0130
14577TIP3    H165146   6.250   2.381  12.560  0.5611 -0.0631 -0.0157
14577TIP3    H265147   6.330   2.466  12.656  1.1747 -0.1757 -0.4194
14578TIP3   OH265148   1.355   2.628   1.161 -0.4060 -0.7153 -0.0658
14578TIP3    H165149   1.403   2.697   1.114 -0.8767 -0.9464 -0.8928
14578TIP3    H265150   1.410   2.550   1.152 -0.6793 -0.8530 -0.5684
14579TIP3   OH265151   0.501   2.344   3.838  0.3791 -0.3490  0.1544
14579TIP3    H165152   0.453   2.306   3.765  1.3523  0.2135 -0.7966
14579TIP3    H265153   0.515   2.271   3.899  1.6597 -1.3832 -1.3460
14580TIP3   OH265154   4.044   1.775  12.952  0.1161 -0.0785 -0.1922
14580TIP3    H165155   4.104   1.803  12.883  0.9379  0.1023  0.5863
14580TIP3    H265156   3.975   1.727  12.906  0.0274  1.0487 -1.2739
14581TIP3   OH265157   3.387   0.913  11.703  0.2526  0.2412  0.1971
14581TIP3    H165158   3.477   0.882  11.711  0.5351  1.2272  0.9347
14581TIP3    H265159   3.376   0.973  11.777 -0.5475  1.2261 -0.7064
14582TIP3   OH265160   6.728   4.125  12.189  0.3188 -0.5468 -0.3582
14582TIP3    H165161   6.787   4.097  12.258 -2.2108 -1.0576  1.6544
14582TIP3    H265162   6.689   4.044  12.156 -0.3084 -0.1192 -0.6839
14583TIP3   OH265163   4.769   4.580  11.931  0.2566 -0.6394 -0.1075
14583TIP3    H165164   4.821   4.591  11.851 -1.3468  0.7528 -0.9863
14583TIP3    H265165   4.734   4.491  11.924  0.7318 -0.7924 -0.5840
14584TIP3   OH265166   5.049   2.736   1.596  0.1931 -0.5681  0.0757
14584TIP3    H165167   5.057   2.787   1.516 -0.5665  0.6589  0.7673
14584TIP3    H265168   5.133   2.746   1.640  0.2285 -0.3578 -0.0420
14585TIP3   OH265169   1.126   1.083   2.481  0.8374  0.2020 -0.0911
14585TIP3    H165170   1.093   1.138   2.552  0.2449 -0.7646  0.3908
14585TIP3    H265171   1.054   1.078   2.418  1.3568  1.0474 -0.7677
14586TIP3   OH265172   1.420   2.825  11.359 -0.6117  0.2837 -0.7140
14586TIP3    H165173   1.456   2.737  11.368 -1.3145 -0.3770 -3.7905
14586TIP3    H265174   1.470   2.865  11.288 -1.7901  1.5549 -0.8533
14587TIP3   OH265175   6.526   1.699   5.172  0.1980 -0.0769 -0.8599
14587TIP3    H165176   6.528   1.749   5.091 -1.4938 -0.3661 -1.0815
14587TIP3    H265177   6.520   1.766   5.241 -2.0660  0.0422 -1.1560
14588TIP3   OH265178   1.710   1.732  16.604 -0.1753 -0.4741  0.3235
14588TIP3    H165179   1.715   1.669  16.677 -1.4789 -0.2514  0.6294
14588TIP3    H265180   1.666   1.683  16.534  0.9438 -0.6404 -0.2650
14589TIP3   OH265181   6.234   5.184  16.743 -0.1182 -0.1195  0.0154
14589TIP3    H165182   6.243   5.249  16.813 -1.5827  1.6127 -1.3413
14589TIP3    H265183   6.281   5.223  16.669  1.1001 -1.7691 -0.0973
14590TIP3   OH265184   4.729   2.366   6.403 -0.3794  0.5620  0.3883
14590TIP3    H165185   4.768   2.410   6.479  0.4089  0.8246 -0.1653
14590TIP3    H265186   4.741   2.428   6.331  0.8554 -0.6075 -0.4279
14591TIP3   OH265187   2.129   1.484   2.941 -0.0057  0.5469 -0.3179
14591TIP3    H165188   2.049   1.454   2.897  0.5711 -1.0794 -0.2920
14591TIP3    H265189   2.199   1.436   2.897  0.7283  0.0911  1.3377
14592TIP3   OH265190   2.186   0.877   4.201  0.0718 -0.3315  0.1692
14592TIP3    H165191   2.156   0.947   4.144 -1.9291 -0.4804  0.9859
14592TIP3    H265192   2.161   0.796   4.156  1.1169 -0.5071 -0.1121
14593TIP3   OH265193   2.528   5.128   1.859 -0.6906 -0.0358  0.0792
14593TIP3    H165194   2.496   5.048   1.817  0.8091 -0.0945 -1.0098
14593TIP3    H265195   2.622   5.129   1.840 -0.4270  1.2283  1.3474
14594TIP3   OH265196   3.838   6.610  16.880 -0.1593 -0.2869 -0.3037
14594TIP3    H165197   3.903   6.680  16.882  0.2914 -0.7460  1.0061
14594TIP3    H265198   3.803   6.607  16.969 -0.8256 -1.1362 -0.5870
14595TIP3   OH265199   2.136   2.236  12.907  0.1741  0.8022 -0.0856
14595TIP3    H165200   2.049   2.232  12.945  0.5266 -0.1187  0.6362
14595TIP3    H265201   2.124   2.207  12.817 -0.1215 -0.1137  0.2520
14596TIP3   OH265202   6.057   6.149  10.419 -0.4791  0.6912  0.1837
14596TIP3    H165203   6.067   6.077  10.483  1.5342  0.4683 -0.3504
14596TIP3    H265204   6.118   6.216  10.450  1.3598  0.1348 -2.0711
14597TIP3   OH265205   3.078   2.473   4.414 -0.5574 -0.8375  0.4506
14597TIP3    H165206   3.126   2.402   4.456 -0.4079 -0.9266  0.1370
14597TIP3    H265207   3.015   2.429   4.356  0.6403 -0.7275 -0.9786
14598TIP3   OH265208   5.795   4.485   0.661  0.2723  0.2290  0.0822
14598TIP3    H165209   5.873   4.472   0.715  0.5353 -0.9486 -0.5743
14598TIP3    H265210   5.829   4.508   0.574 -0.1484  2.2258  0.4156
14599TIP3   OH265211   6.136   2.037  16.156  0.6137 -0.2357 -0.0997
14599TIP3    H165212   6.059   2.094  16.153  1.2380  0.6172 -0.1555
14599TIP3    H265213   6.172   2.049  16.244  0.8277 -0.4417 -0.1575
14600TIP3   OH265214   3.422   2.732   0.143  0.6839 -0.5490  0.0707
14600TIP3    H165215   3.389   2.655   0.098  1.6234 -0.6047 -0.5246
14600TIP3    H265216   3.356   2.800   0.126  0.3237 -0.9605 -0.1763
14601TIP3   OH265217   4.823   6.342   0.956 -0.7629 -0.3310 -0.4114
14601TIP3    H165218   4.779   6.313   1.036  0.7103 -1.3973  0.0428
14601TIP3    H265219   4.853   6.262   0.914  0.9609  0.3521 -0.5553
14602TIP3   OH265220   4.904   2.870   1.084  0.6497 -0.5307 -0.5889
14602TIP3    H165221   4.936   2.903   1.000  1.1219 -0.9442 -0.5792
14602TIP3    H265222   4.876   2.947   1.132 -1.0342 -0.4283 -1.7150
14603TIP3   OH265223   1.584   5.001   0.454 -0.1185 -0.3555  0.1353
14603TIP3    H165224   1.626   5.054   0.386  1.2678  0.9812  1.9852
14603TIP3    H265225   1.491   5.010   0.436  0.0911  2.6668  0.3320
14604TIP3   OH265226   1.392   3.614  13.683  0.6245 -0.3166  0.2236
14604TIP3    H165227   1.337   3.581  13.612  0.6653 -1.0617  0.5298
14604TIP3    H265228   1.333   3.623  13.757  0.4943  0.8718 -0.0183
14605TIP3   OH265229   1.784   3.178  12.573  0.4068  0.2597  0.2076
14605TIP3    H165230   1.840   3.218  12.639  0.2586 -1.2846  1.3065
14605TIP3    H265231   1.830   3.098  12.548 -0.5207 -0.1932 -0.0580
14606TIP3   OH265232   4.098   1.696  16.623 -0.5827 -0.1595  0.4578
14606TIP3    H165233   4.009   1.703  16.590 -0.4118  0.3876  0.0822
14606TIP3    H265234   4.112   1.603  16.637 -1.5859 -0.1564  1.5794
14607TIP3   OH265235   1.480   3.882  16.936 -0.8226 -0.1218  0.5425
14607TIP3    H165236   1.499   3.843  17.021  0.6902 -1.2362 -0.2714
14607TIP3    H265237   1.450   3.809  16.881  2.8273 -0.4377 -1.2290
14608TIP3   OH265238   3.725   6.588   0.877 -1.0824 -0.1159 -0.5940
14608TIP3    H165239   3.661   6.560   0.942 -0.2352 -1.5529 -0.3470
14608TIP3    H265240   3.760   6.670   0.911  0.4519 -1.6234  1.5606
14609TIP3   OH265241   0.725   3.118   3.979 -0.5912  0.3704 -0.2235
14609TIP3    H165242   0.768   3.198   4.011  1.1931 -0.8744  0.5758
14609TIP3    H265243   0.672   3.088   4.053  1.0076 -0.7471  0.4878
14610TIP3   OH265244   6.774   3.490   5.654  0.0082  0.1851 -0.5421
14610TIP3    H165245   6.795   3.482   5.561  0.1315  1.3783 -0.6204
14610TIP3    H265246   6.823   3.419   5.696  2.1288  1.3189 -1.0541
14611TIP3   OH265247   5.119   6.028  13.070 -0.3029 -0.2459 -0.0649
14611TIP3    H165248   5.098   5.994  13.157  1.3713 -0.6650  0.1888
14611TIP3    H265249   5.191   5.973  13.039 -0.6381  0.1412 -1.5620
14612TIP3   OH265250   0.802   2.966  15.944  0.1641  0.0542  0.3690
14612TIP3    H165251   0.888   2.945  15.908  0.4264  0.1960  0.9104
14612TIP3    H265252   0.819   2.989  16.035 -0.5425 -0.6596  0.6915
14613TIP3   OH265253   4.407   5.542   3.662 -0.1848 -0.1528  0.0426
14613TIP3    H165254   4.341   5.559   3.730 -0.4988  1.3758 -0.6325
14613TIP3    H265255   4.356   5.534   3.581  0.3395 -0.3087 -0.2743
14614TIP3   OH265256   3.187   1.710   2.036  0.0434 -0.4154 -0.6159
14614TIP3    H165257   3.105   1.694   1.989 -0.3687  0.9968 -0.3970
14614TIP3    H265258   3.188   1.804   2.052  1.6629 -0.4290 -0.5084
14615TIP3   OH265259   2.291   4.802  11.691  0.0514 -0.1176  0.5515
14615TIP3    H165260   2.229   4.732  11.710 -0.1834 -0.0825 -0.0645
14615TIP3    H265261   2.244   4.882  11.716 -0.0965 -0.1026  0.2343
14616TIP3   OH265262   0.883   2.488   3.980 -0.0776 -0.2917 -0.3892
14616TIP3    H165263   0.857   2.423   3.915  0.0217  0.9259 -1.6902
14616TIP3    H265264   0.810   2.493   4.041 -0.1319 -1.5195 -0.3530
14617TIP3   OH265265   3.830   1.044  11.613  0.2485  0.0346  0.4206
14617TIP3    H165266   3.919   1.009  11.614  0.0293 -0.5284  0.8691
14617TIP3    H265267   3.832   1.119  11.672  0.7515  0.8720 -0.6392
14618TIP3   OH265268   0.166   1.221   2.861 -0.2761 -0.0229 -0.6482
14618TIP3    H165269   0.239   1.181   2.908 -3.2355 -2.7826  1.8272
14618TIP3    H265270   0.143   1.298   2.914 -1.5296 -1.3001  0.7101
14619TIP3   OH265271   5.653   5.449   1.856 -0.2110  0.0245 -0.2463
14619TIP3    H165272   5.717   5.505   1.900 -0.4363  0.1550 -0.0825
14619TIP3    H265273   5.602   5.410   1.927 -2.2040  2.1731 -0.4244
14620TIP3   OH265274   2.738   1.167  10.329  0.4147 -0.1152  0.6806
14620TIP3    H165275   2.816   1.167  10.385  1.4617  4.0161 -0.6190
14620TIP3    H265276   2.771   1.142  10.242 -0.2091 -0.9346  0.6701
14621TIP3   OH265277   6.739   0.173  14.132 -0.1843  0.2912  0.3619
14621TIP3    H165278   6.787   0.256  14.124  0.8942 -0.5410 -2.2549
14621TIP3    H265279   6.807   0.107  14.140 -0.9478 -0.6882 -1.1518
14622TIP3   OH265280   0.468   6.274  13.362  0.3293 -0.5630  0.7349
14622TIP3    H165281   0.507   6.327  13.430 -0.2603  2.2827 -1.0477
14622TIP3    H265282   0.526   6.285  13.286 -1.0446 -0.5643 -0.3441
14623TIP3   OH265283   3.436   0.938   3.283 -0.3905 -0.2886 -0.2093
14623TIP3    H165284   3.344   0.958   3.264 -0.6930 -0.0566  1.4052
14623TIP3    H265285   3.476   0.922   3.197 -2.0573 -0.9102 -0.8871
14624TIP3   OH265286   5.566   4.978   0.097  0.2217 -0.3308  0.1119
14624TIP3    H165287   5.530   5.065   0.113 -0.9923 -1.0078  1.1151
14624TIP3    H265288   5.615   4.987   0.015 -0.8617  1.0096 -0.4006
14625TIP3   OH265289   2.453   4.933  12.869  0.4716  0.1048 -0.4782
14625TIP3    H165290   2.494   4.870  12.929  0.3942  4.1288  4.1781
14625TIP3    H265291   2.364   4.901  12.857  0.3249 -0.5891  2.0955
14626TIP3   OH265292   5.227   5.866  17.194  0.2048  0.1910  0.0878
14626TIP3    H165293   5.178   5.824  17.124  1.2669 -0.3364 -0.3567
14626TIP3    H265294   5.161   5.909  17.249 -0.8821 -1.9885  0.5125
14627TIP3   OH265295   1.974   4.384   3.350 -0.7891  0.5283  0.2678
14627TIP3    H165296   1.958   4.291   3.363 -0.5729  0.4810  0.2090
14627TIP3    H265297   2.069   4.390   3.338 -0.6421  0.9149  1.5872
14628TIP3   OH265298   6.153   1.446   2.462 -0.2944  0.5860 -0.1588
14628TIP3    H165299   6.123   1.536   2.445  1.0093  0.6861 -2.0383
14628TIP3    H265300   6.168   1.409   2.376 -0.3619 -1.3085  0.6279
14629TIP3   OH265301   5.754   3.952   0.168  0.2984 -0.2330 -0.1741
14629TIP3    H165302   5.751   3.880   0.106 -1.6772  0.4547 -0.9170
14629TIP3    H265303   5.777   3.911   0.252  0.7078 -1.4850 -0.8901
14630TIP3   OH265304   3.169   4.656   3.265 -0.3852  0.0251 -0.6747
14630TIP3    H165305   3.176   4.703   3.182 -2.2128  0.0766 -0.8162
14630TIP3    H265306   3.205   4.570   3.247  0.6379  0.5372 -1.1086
14631TIP3   OH265307   6.665   5.845   0.595 -0.4213 -0.1697 -1.1079
14631TIP3    H165308   6.576   5.813   0.611  0.4497 -1.7608  0.8014
14631TIP3    H265309   6.687   5.814   0.507 -0.2452 -3.4182  0.0176
14632TIP3   OH265310   0.078   1.438  17.047  0.2334  0.1851  0.3050
14632TIP3    H165311   0.128   1.367  17.006 -1.1358 -0.2344 -0.6963
14632TIP3    H265312   0.018   1.393  17.106 -0.6361  0.4945 -0.3293
14633TIP3   OH265313   2.250   1.399  15.661 -0.4461 -0.4021 -0.2779
14633TIP3    H165314   2.245   1.481  15.709 -1.9325 -1.1269  0.8264
14633TIP3    H265315   2.331   1.357  15.692 -0.3221  0.0833  0.0503
14634TIP3   OH265316   1.336   3.918  11.707 -0.2953  0.1260 -0.2577
14634TIP3    H165317   1.401   3.847  11.708 -0.1370  0.2711  0.4506
14634TIP3    H265318   1.264   3.886  11.762  0.2203  0.9057  0.9018
14635TIP3   OH265319   4.651   2.723  14.176 -0.3811  0.0742 -0.2814
14635TIP3    H165320   4.558   2.740  14.165 -0.1716  0.3482 -1.7399
14635TIP3    H265321   4.657   2.629  14.193 -1.0235  0.2980  1.2398
14636TIP3   OH265322   2.229   6.280   5.167 -0.2559 -0.8355  0.2838
14636TIP3    H165323   2.318   6.270   5.200  0.3187  0.1258 -0.9227
14636TIP3    H265324   2.217   6.207   5.106  0.2697 -0.1297 -0.6967
14637TIP3   OH265325   4.992   1.485   5.755  0.2958 -0.4760  0.0080
14637TIP3    H165326   5.027   1.524   5.674 -0.4245  0.5556  0.1858
14637TIP3    H265327   4.928   1.549   5.787 -1.4117 -2.1061 -0.0525
14638TIP3   OH265328   5.096   2.668  12.584  0.2048  0.3112 -0.1661
14638TIP3    H165329   5.033   2.659  12.513  0.5493  1.6557 -0.6617
14638TIP3    H265330   5.137   2.753  12.569  1.1967  0.0406  0.9059
14639TIP3   OH265331   1.085   0.185   3.936  0.2035 -0.1672 -0.8494
14639TIP3    H165332   1.090   0.094   3.906 -0.3703 -0.4110 -0.2271
14639TIP3    H265333   1.176   0.215   3.936  0.3949 -0.7400 -1.0696
14640TIP3   OH265334   2.422   4.061   3.871  0.2785 -0.0599 -0.1066
14640TIP3    H165335   2.514   4.086   3.876  0.7204 -1.1192 -2.6018
14640TIP3    H265336   2.412   3.994   3.939  1.7395 -1.0525 -0.8381
14641TIP3   OH265337   3.405   1.913  11.368 -0.1596 -0.4788 -0.0576
14641TIP3    H165338   3.461   1.878  11.438 -0.9279 -0.5767  0.5221
14641TIP3    H265339   3.405   1.846  11.301 -1.8257 -1.7520  1.1595
14642TIP3   OH265340   4.415   3.796  11.485  0.1531 -0.1110 -0.4936
14642TIP3    H165341   4.460   3.759  11.561  2.0291  0.2250 -1.4109
14642TIP3    H265342   4.429   3.732  11.415 -1.1998 -0.2218 -0.6715
14643TIP3   OH265343   6.631   6.399   3.038  0.7518  0.4302  0.1577
14643TIP3    H165344   6.562   6.446   2.992 -0.0536 -1.6249 -0.8170
14643TIP3    H265345   6.634   6.313   2.995  1.7052 -0.6502  2.3148
14644TIP3   OH265346   1.195   2.056   1.144  0.5901 -0.7890 -0.1253
14644TIP3    H165347   1.240   1.972   1.133 -0.6469 -1.4838  0.1144
14644TIP3    H265348   1.210   2.078   1.236 -1.4329 -2.1233  0.5534
14645TIP3   OH265349   2.590   5.144   0.041 -0.3071  0.0519 -0.3130
14645TIP3    H165350   2.508   5.159   0.089 -0.5445 -2.2720  0.0638
14645TIP3    H265351   2.566   5.083  -0.028  1.1713 -0.9461  0.0232
14646TIP3   OH265352   2.099   3.934  11.996  0.4045 -0.3704  0.1058
14646TIP3    H165353   2.109   3.978  12.081  1.0645 -0.2257 -0.0443
14646TIP3    H265354   2.029   3.871  12.010 -1.2178  1.3634  0.0861
14647TIP3   OH265355   0.233   1.565   0.167 -0.4234 -0.1960  0.4807
14647TIP3    H165356   0.279   1.525   0.094  0.1059  0.4869  0.4390
14647TIP3    H265357   0.140   1.552   0.147 -0.2555 -1.1475  0.3304
14648TIP3   OH265358   0.739   6.665  10.798 -0.4042  0.0026  0.0881
14648TIP3    H165359   0.702   6.734  10.853  0.0865 -0.2339  0.7209
14648TIP3    H265360   0.755   6.708  10.714  0.1817  0.7476  0.5728
14649TIP3   OH265361   0.478   1.245   2.757 -0.4670 -0.0505  0.1024
14649TIP3    H165362   0.435   1.183   2.816 -1.0099 -1.4753 -1.7444
14649TIP3    H265363   0.419   1.320   2.753 -1.0973 -0.5413  0.2495
14650TIP3   OH265364   2.881   5.905   6.336  0.0480  0.2606 -0.7443
14650TIP3    H165365   2.906   5.994   6.359  2.8901  0.2419 -3.4721
14650TIP3    H265366   2.787   5.911   6.317  0.0353  2.4956 -0.1197
14651TIP3   OH265367   5.789   4.784  12.801 -0.7300  0.2919 -0.0116
14651TIP3    H165368   5.763   4.745  12.885  2.2817  2.0980  1.8255
14651TIP3    H265369   5.820   4.709  12.750 -2.2889 -0.7936  0.5730
14652TIP3   OH265370   6.015   2.753   0.083  0.5717 -0.2908 -0.8343
14652TIP3    H165371   5.944   2.808   0.050 -0.1280 -1.2633 -0.9757
14652TIP3    H265372   6.045   2.798   0.162  2.2312  2.0317 -2.6892
14653TIP3   OH265373   1.016   1.185   5.944 -0.0625  0.3601  0.0183
14653TIP3    H165374   1.005   1.276   5.973 -0.7860 -0.0972  1.2014
14653TIP3    H265375   0.945   1.137   5.987  0.6400 -0.8684 -0.1690
14654TIP3   OH265376   4.113   3.594  16.186  0.7172 -0.0914  0.1464
14654TIP3    H165377   4.147   3.545  16.261  2.8156  1.8539  0.5215
14654TIP3    H265378   4.130   3.685  16.207  2.2903  0.4554 -3.1207
14655TIP3   OH265379   2.116   2.964   2.954  0.2204 -0.2774 -0.2264
14655TIP3    H165380   2.043   2.983   3.012  1.4000  0.6904  0.9706
14655TIP3    H265381   2.103   2.874   2.927 -0.1104 -0.8961  1.9103
14656TIP3   OH265382   0.063   2.937   4.886 -0.4740 -0.1066  0.1936
14656TIP3    H165383  -0.008   2.987   4.926 -1.8377 -1.2595 -0.6727
14656TIP3    H265384   0.121   3.002   4.849 -1.9378  0.8591 -0.4604
14657TIP3   OH265385   0.520   5.577  10.781 -0.5335  0.1522 -0.0634
14657TIP3    H165386   0.485   5.550  10.866  0.7713  0.7602  0.6845
14657TIP3    H265387   0.473   5.658  10.761  0.3724  0.9375  0.9110
14658TIP3   OH265388   2.335   0.383   4.777  0.0916 -0.2402 -0.1834
14658TIP3    H165389   2.350   0.438   4.854  0.4036  1.2243 -1.2916
14658TIP3    H265390   2.243   0.395   4.756 -0.0402 -0.7882  0.0595
14659TIP3   OH265391   0.725   6.471  11.373  0.1948  0.4524  0.3528
14659TIP3    H165392   0.719   6.481  11.278 -0.7627 -0.1343  0.3462
14659TIP3    H265393   0.732   6.377  11.387  0.0711  0.5199  0.8833
14660TIP3   OH265394   4.074   6.095   3.228  0.5125 -0.4641  0.3553
14660TIP3    H165395   4.095   6.058   3.314  3.1284  1.3212  0.5612
14660TIP3    H265396   4.091   6.024   3.166 -0.3508 -1.4285  1.2053
14661TIP3   OH265397   5.979   6.693   3.867  0.1318  0.3200 -0.2178
14661TIP3    H165398   5.924   6.691   3.789  0.6273 -1.9106 -0.5453
14661TIP3    H265399   5.916   6.697   3.940 -0.4303 -0.2126 -0.6643
14662TIP3   OH265400   3.375   1.694  15.468 -0.2840 -0.4873  0.3841
14662TIP3    H165401   3.402   1.665  15.555  1.0407 -0.0150  0.1358
14662TIP3    H265402   3.445   1.664  15.410  0.3008  1.7511 -0.1144
14663TIP3   OH265403   2.293   6.183   5.664 -0.4535  0.0434 -0.1410
14663TIP3    H165404   2.281   6.163   5.571 -0.1041  0.6452 -0.3158
14663TIP3    H265405   2.356   6.254   5.666 -0.0850 -0.2960  0.5888
14664TIP3   OH265406   6.463   4.352   0.073  0.3535 -0.1332 -0.0105
14664TIP3    H165407   6.451   4.299   0.152  1.0910 -0.5520 -0.1761
14664TIP3    H265408   6.534   4.412   0.095  1.0367 -0.7250 -0.5987
14665TIP3   OH265409   6.707   0.710  11.916  0.0693 -0.6999 -0.6017
14665TIP3    H165410   6.754   0.762  11.981  1.3555 -1.2201 -1.1061
14665TIP3    H265411   6.615   0.722  11.938  0.4723 -0.4288  0.9824
14666TIP3   OH265412   2.060   0.315  14.290  1.3328  0.1220 -0.2957
14666TIP3    H165413   2.022   0.402  14.277  0.6000 -0.4027 -1.7205
14666TIP3    H265414   2.105   0.322  14.374 -1.0783  1.0573  0.9682
14667TIP3   OH265415   3.081   3.975  13.409 -0.3325 -0.4935 -0.2155
14667TIP3    H165416   3.173   3.995  13.392 -0.5228 -0.0141 -0.6996
14667TIP3    H265417   3.038   3.985  13.324 -0.8517 -0.6080  0.0297
14668TIP3   OH265418   2.943   2.138   2.279 -0.1383  0.2348 -0.4925
14668TIP3    H165419   3.007   2.068   2.265 -1.2515 -0.9126  0.0883
14668TIP3    H265420   2.867   2.111   2.227 -1.1094  0.2894  0.8953
14669TIP3   OH265421   5.750   1.525   1.190 -0.9153 -0.1515  0.6261
14669TIP3    H165422   5.728   1.493   1.277  1.0759 -1.3856  0.7113
14669TIP3    H265423   5.717   1.457   1.131  2.5308 -2.0583  0.7593
14670TIP3   OH265424   3.302   1.414   5.437  0.2890 -0.3150 -0.2706
14670TIP3    H165425   3.317   1.323   5.461  0.5337 -0.1829  0.0885
14670TIP3    H265426   3.283   1.411   5.343  1.1644 -0.6487 -0.4488
14671TIP3   OH265427   2.598   1.632  16.694  0.0920 -0.2690 -0.0956
14671TIP3    H165428   2.641   1.717  16.695 -1.0690  0.3768 -2.3881
14671TIP3    H265429   2.656   1.576  16.643 -0.1945 -0.2566 -0.4387
14672TIP3   OH265430   1.356   3.838  16.638 -0.2146  0.6743  0.2580
14672TIP3    H165431   1.297   3.912  16.625 -2.6241 -0.8852  2.0588
14672TIP3    H265432   1.299   3.762  16.639  2.3055 -1.3551 -2.3479
14673TIP3   OH265433   0.155   6.110  16.701  0.0541  0.3273  0.4344
14673TIP3    H165434   0.078   6.061  16.670  0.0943  0.6012 -0.1150
14673TIP3    H265435   0.208   6.046  16.747  0.5939 -0.3909 -1.1402
14674TIP3   OH265436   5.146   4.154   2.500 -0.0559 -0.2795  0.2020
14674TIP3    H165437   5.235   4.181   2.477  0.0701 -0.3501  0.6076
14674TIP3    H265438   5.113   4.111   2.421 -0.0594  0.5711 -0.2686
14675TIP3   OH265439   4.580   3.841  16.270  0.1772  0.1247 -0.6077
14675TIP3    H165440   4.582   3.812  16.361  0.9935  0.8994 -0.3735
14675TIP3    H265441   4.543   3.930  16.274 -1.8550 -0.6623 -1.2590
14676TIP3   OH265442   3.140   1.751   5.683 -0.1740  0.8001 -0.2027
14676TIP3    H165443   3.056   1.708   5.693  0.2922 -0.0150  0.2560
14676TIP3    H265444   3.159   1.744   5.589  0.0725 -0.3417 -0.0788
14677TIP3   OH265445   2.260   6.570  12.949 -0.0935  0.4233  0.0148
14677TIP3    H165446   2.326   6.627  12.989  1.5397 -1.3141 -0.1427
14677TIP3    H265447   2.235   6.509  13.019 -0.3476  0.0611 -0.3870
14678TIP3   OH265448   6.336   1.621  15.209 -0.0673 -0.5657  0.3909
14678TIP3    H165449   6.242   1.633  15.195 -0.5033 -1.5342  2.2588
14678TIP3    H265450   6.353   1.532  15.177  0.1889 -0.4364  0.1713
14679TIP3   OH265451   4.615   5.211  11.396  0.1532  0.1913 -0.3182
14679TIP3    H165452   4.579   5.147  11.334 -0.1653 -0.2103  0.2749
14679TIP3    H265453   4.592   5.296  11.359 -2.2924 -0.0634  0.5559
14680TIP3   OH265454   2.940   5.889   0.875  0.9266 -0.0103 -0.2458
14680TIP3    H165455   2.865   5.945   0.896  1.3194  1.0027 -1.5199
14680TIP3    H265456   3.002   5.904   0.947  0.0325 -0.6390  0.6655
14681TIP3   OH265457   4.031   4.946   5.087  0.1498  0.3070  0.2388
14681TIP3    H165458   4.075   5.026   5.117  0.5276  0.4134 -0.5975
14681TIP3    H265459   3.978   4.974   5.013  0.2904 -0.2249 -0.0631
14682TIP3   OH265460   0.829   5.375  14.816  0.2032  0.1992  0.3804
14682TIP3    H165461   0.918   5.342  14.805  0.4389  0.8259  0.3925
14682TIP3    H265462   0.830   5.417  14.902 -0.3808 -0.6614  0.8234
14683TIP3   OH265463   4.087   3.349   4.046 -0.1179 -0.0931  0.8279
14683TIP3    H165464   4.052   3.379   4.130 -1.0210 -0.8416  0.7282
14683TIP3    H265465   4.151   3.416   4.021  1.0274 -0.4615  2.6740
14684TIP3   OH265466   1.228   4.522  17.164  0.0898  0.3636  0.1700
14684TIP3    H165467   1.284   4.566  17.227  0.9000 -1.6385  0.8790
14684TIP3    H265468   1.188   4.450  17.213 -0.7973 -0.0208 -1.0952
14685TIP3   OH265469   6.047   6.664  10.607  0.2041  0.0793 -0.3770
14685TIP3    H165470   6.014   6.584  10.564 -0.3447  0.7391 -1.1918
14685TIP3    H265471   6.118   6.633  10.663  2.1597 -0.5900 -3.1372
14686TIP3   OH265472   5.907   0.632  16.732 -0.4803 -0.3400 -0.5314
14686TIP3    H165473   5.898   0.575  16.656  0.6217 -0.6687 -0.4250
14686TIP3    H265474   5.838   0.603  16.792  0.7184 -2.2801 -0.0421
14687TIP3   OH265475   3.844   2.030   3.732  0.5114  0.3051  0.1508
14687TIP3    H165476   3.842   2.122   3.759  0.2412  0.1036  0.8359
14687TIP3    H265477   3.856   1.982   3.814 -0.8138 -0.3492 -0.0226
14688TIP3   OH265478   4.123   3.975   3.297  0.1879  0.4882  0.0409
14688TIP3    H165479   4.060   3.923   3.247  0.3189  0.3345  0.0318
14688TIP3    H265480   4.208   3.936   3.275  0.1106 -0.5717  1.5738
14689TIP3   OH265481   2.617   2.086  11.722  0.0294  0.0158  0.5048
14689TIP3    H165482   2.652   2.172  11.746  1.0426  0.1539 -1.4349
14689TIP3    H265483   2.679   2.023  11.761  0.0871  0.1791  0.6785
14690TIP3   OH265484   0.101   2.646  13.777 -0.0953 -0.0380 -0.0743
14690TIP3    H165485   0.136   2.568  13.820  2.1694  1.1544  0.2729
14690TIP3    H265486   0.171   2.676  13.720 -1.1435  1.4805 -0.5967
14691TIP3   OH265487   2.470   3.636  13.748 -0.3430  0.1854  0.0678
14691TIP3    H165488   2.412   3.580  13.800 -1.8710  1.7863  0.1456
14691TIP3    H265489   2.551   3.585  13.739 -1.4254 -1.7149  0.7389
14692TIP3   OH265490   6.269   2.967  14.738 -0.2513  0.2243 -0.4769
14692TIP3    H165491   6.363   2.954  14.722  0.0972  0.9083  0.9244
14692TIP3    H265492   6.253   2.925  14.822 -1.0007  0.9421 -0.2487
14693TIP3   OH265493   4.809   3.293  15.508  0.3668  0.4323 -0.0906
14693TIP3    H165494   4.818   3.377  15.463  1.6229 -0.3275 -1.2886
14693TIP3    H265495   4.758   3.238  15.449  0.8613 -0.1295 -0.0112
14694TIP3   OH265496   0.517   4.969   0.494  0.1058 -0.2848 -0.0830
14694TIP3    H165497   0.569   4.946   0.418 -0.0044  0.4667 -0.3878
14694TIP3    H265498   0.437   4.917   0.485  0.3321 -0.6106 -0.1917
14695TIP3   OH265499   5.274   6.414  13.876 -0.4310 -0.1957  0.2019
14695TIP3    H165500   5.369   6.425  13.886 -0.5484 -0.2010  1.4629
14695TIP3    H265501   5.243   6.391  13.964 -1.6925  0.5038 -0.0360
14696TIP3   OH265502   5.055   0.491   4.072 -0.2728  0.1701  0.4617
14696TIP3    H165503   4.981   0.473   4.014 -0.1243 -1.7447  0.8187
14696TIP3    H265504   5.019   0.483   4.160  0.4162 -1.2104  0.6414
14697TIP3   OH265505   3.161   6.010   3.479 -0.0127  0.1154 -0.2008
14697TIP3    H165506   3.091   6.010   3.414  0.8110  0.9669 -1.1003
14697TIP3    H265507   3.239   6.039   3.431  0.9164 -0.6159  0.8348
14698TIP3   OH265508   2.777   5.614   4.465 -0.1534  0.2963 -0.0829
14698TIP3    H165509   2.719   5.689   4.473 -0.5054 -0.1057  1.2510
14698TIP3    H265510   2.841   5.640   4.398 -1.2528  1.1263 -0.8262
14699TIP3   OH265511   6.535   5.595   5.434 -0.4561  0.8263  1.0076
14699TIP3    H165512   6.593   5.538   5.485 -0.1472  0.6342  0.4497
14699TIP3    H265513   6.453   5.595   5.482 -0.6027 -0.4542  0.7829
14700TIP3   OH265514   6.421   1.547   1.576 -0.1169  0.3225  0.2494
14700TIP3    H165515   6.475   1.521   1.650  1.2248  2.8299  0.2285
14700TIP3    H265516   6.335   1.565   1.613 -0.0009 -0.3588  0.8573
14701TIP3   OH265517   5.439   5.751   4.922 -0.1047 -0.3290 -0.9439
14701TIP3    H165518   5.396   5.709   4.996  0.4556  1.2560  0.3002
14701TIP3    H265519   5.444   5.843   4.946  1.2529 -0.0083 -2.3905
14702TIP3   OH265520   0.506   5.427  10.558  0.3253  0.1255 -0.0021
14702TIP3    H165521   0.411   5.431  10.552  0.3276  1.9251  1.0204
14702TIP3    H265522   0.528   5.476  10.638  2.0812 -0.5691 -0.0281
14703TIP3   OH265523   0.317   0.174  17.021 -0.4440 -0.2741 -0.2242
14703TIP3    H165524   0.380   0.213  17.081 -0.2767 -1.4542  0.3892
14703TIP3    H265525   0.235   0.173  17.070 -0.4366 -0.7156 -0.2111
14704TIP3   OH265526   5.666   4.267   2.805  0.0671 -0.4822  0.5681
14704TIP3    H165527   5.736   4.291   2.865  0.3739  1.7430 -0.6134
14704TIP3    H265528   5.586   4.270   2.857  0.2883  1.7287  0.8527
14705TIP3   OH265529   0.947   3.693  13.929  0.4908  0.4302 -0.4010
14705TIP3    H165530   0.883   3.660  13.992  0.7572 -1.9806 -1.3277
14705TIP3    H265531   0.895   3.739  13.864 -0.2516 -0.9446 -0.7963
14706TIP3   OH265532   2.785   6.714   5.007  0.3947 -0.4272  0.2473
14706TIP3    H165533   2.816   6.696   5.096 -0.0281 -1.8303  0.1288
14706TIP3    H265534   2.751   6.803   5.011  1.1209 -0.1928  1.2895
14707TIP3   OH265535   2.238   3.007   3.693  0.0466  0.0487 -0.5309
14707TIP3    H165536   2.144   3.024   3.692 -0.0110 -0.2517 -0.4491
14707TIP3    H265537   2.250   2.944   3.765  0.2475 -0.2756 -0.8482
14708TIP3   OH265538   3.399   5.296   1.731 -0.0066  0.0455 -0.2702
14708TIP3    H165539   3.445   5.245   1.664  0.9198  1.5973 -0.8475
14708TIP3    H265540   3.444   5.275   1.813  0.3015 -0.1435 -0.4859
14709TIP3   OH265541   5.336   4.226  12.798 -0.3583  0.5099 -0.2324
14709TIP3    H165542   5.421   4.198  12.762  0.6096  3.3825 -0.2918
14709TIP3    H265543   5.353   4.240  12.891 -1.7604 -2.5862  0.5402
14710TIP3   OH265544   4.319   2.177  14.955  0.2838  0.0046  0.5658
14710TIP3    H165545   4.224   2.186  14.956  0.2246 -0.5954  0.8764
14710TIP3    H265546   4.348   2.225  15.033  0.2692  0.5383  0.2431
14711TIP3   OH265547   3.929   3.194  14.160  0.2731 -0.6111  0.0191
14711TIP3    H165548   3.858   3.211  14.098 -2.9500  2.7814  4.3443
14711TIP3    H265549   3.985   3.272  14.153  0.2141 -0.4839  0.9266
14712TIP3   OH265550   6.062   1.580   0.951  0.2165  0.5886 -0.5687
14712TIP3    H165551   6.124   1.558   1.020 -1.6748 -0.4617  0.8672
14712TIP3    H265552   5.976   1.562   0.990 -0.8894 -0.1007 -3.2321
14713TIP3   OH265553   6.317   0.737   1.203 -0.1480 -0.2610  0.3752
14713TIP3    H165554   6.392   0.740   1.263  0.2555  0.1238 -0.1406
14713TIP3    H265555   6.338   0.666   1.142  0.4366  0.7341 -0.5949
14714TIP3   OH265556   2.142   0.345   4.183 -0.4662 -0.1539 -0.0019
14714TIP3    H165557   2.133   0.287   4.107 -3.2326  2.8359 -2.0928
14714TIP3    H265558   2.076   0.314   4.245 -0.2003 -0.7720 -0.0193
14715TIP3   OH265559   6.676   2.009   1.352  0.3150 -0.0516 -0.1125
14715TIP3    H165560   6.734   1.956   1.297  1.0488 -0.8008  1.3652
14715TIP3    H265561   6.724   2.019   1.434 -0.9104  0.7914  0.5053
14716TIP3   OH265562   5.227   3.512  11.279 -0.1762  0.2584 -0.1630
14716TIP3    H165563   5.283   3.582  11.312 -1.4156  1.2172 -0.0461
14716TIP3    H265564   5.255   3.499  11.189 -0.5020  1.5073 -0.4526
14717TIP3   OH265565   5.020   6.581  14.523  0.6309 -0.0882  0.1183
14717TIP3    H165566   4.927   6.600  14.535  0.0391 -3.4602  1.3244
14717TIP3    H265567   5.040   6.617  14.436 -2.4776 -1.5297 -1.2961
14718TIP3   OH265568   4.784   2.688   0.177  0.2512 -0.5829 -0.4172
14718TIP3    H165569   4.780   2.593   0.166 -0.3001 -0.9800  2.8799
14718TIP3    H265570   4.737   2.705   0.258  0.0686  2.5616 -1.1233
14719TIP3   OH265571   5.380   1.388   0.062  0.1367 -0.2841  0.2862
14719TIP3    H165572   5.400   1.438   0.141  0.8655 -1.1207  0.6455
14719TIP3    H265573   5.285   1.375   0.065  0.0124  0.6779  0.4231
14720TIP3   OH265574   2.899   5.912  13.389 -0.1219  0.0860 -0.2309
14720TIP3    H165575   2.976   5.867  13.354  0.3288  1.2517 -0.7686
14720TIP3    H265576   2.928   5.946  13.473  0.3692  1.6595 -1.0231
14721TIP3   OH265577   5.881   0.586  14.428  0.1224  0.3135  0.1034
14721TIP3    H165578   5.843   0.601  14.515  0.1296 -1.6197  0.4601
14721TIP3    H265579   5.815   0.535  14.381  0.3848  0.8184 -0.8188
14722TIP3   OH265580   2.819   1.133  16.631 -0.0890 -0.0506  0.3394
14722TIP3    H165581   2.772   1.053  16.654 -1.7541  0.5442 -0.8747
14722TIP3    H265582   2.896   1.102  16.583 -2.0493 -0.8815 -2.4209
14723TIP3   OH265583   3.029   0.184   3.180  0.3530 -0.2743 -0.5129
14723TIP3    H165584   3.082   0.108   3.156 -0.1534 -0.3558 -1.3864
14723TIP3    H265585   2.970   0.151   3.248  0.9400 -0.3622 -0.0434
14724TIP3   OH265586   5.031   4.318   0.301 -0.8092 -0.0747 -0.3067
14724TIP3    H165587   5.080   4.399   0.314 -1.7490  0.4924 -0.3110
14724TIP3    H265588   5.099   4.253   0.280  0.1364  0.2794  1.5802
14725TIP3   OH265589   6.412   5.527   0.860  0.3561  0.1374 -0.1744
14725TIP3    H165590   6.433   5.600   0.801  2.8798 -0.0391  0.4487
14725TIP3    H265591   6.428   5.449   0.807 -1.1949  0.0116 -0.4695
14726TIP3   OH265592   0.617   1.606   4.639 -0.0700 -0.2846  0.4439
14726TIP3    H165593   0.711   1.611   4.620 -0.3611  1.4902 -0.6014
14726TIP3    H265594   0.604   1.673   4.707 -0.8629  0.6151 -0.5934
14727TIP3   OH265595   6.444   5.028   0.621  0.2124  0.0407 -0.3589
14727TIP3    H165596   6.412   4.997   0.536 -0.1478  0.0044 -0.2125
14727TIP3    H265597   6.365   5.054   0.667  0.4820  0.8301 -0.3404
14728TIP3   OH265598   1.101   5.757   5.431 -0.2538 -0.0352  0.0147
14728TIP3    H165599   1.035   5.758   5.501 -1.7612  3.0142 -1.3462
14728TIP3    H265600   1.179   5.794   5.472  1.3188 -5.1973  2.1197
14729TIP3   OH265601   5.722   1.106  16.411 -0.5411  0.8013  0.0423
14729TIP3    H165602   5.666   1.142  16.342 -0.4624  1.0417  0.0996
14729TIP3    H265603   5.810   1.134  16.386 -0.2151 -1.0540 -0.9973
14730TIP3   OH265604   3.806   1.840   1.757 -0.1275 -0.4510 -0.2250
14730TIP3    H165605   3.814   1.824   1.663 -0.1771  3.8859 -1.0903
14730TIP3    H265606   3.744   1.774   1.787 -0.3901 -1.7173 -3.2946
14731TIP3   OH265607   2.351   5.125   5.516 -0.4644 -0.6035  0.1293
14731TIP3    H165608   2.444   5.138   5.497 -0.4559 -1.1477 -0.2052
14731TIP3    H265609   2.331   5.038   5.481 -1.0280 -0.6138  0.4710
14732TIP3   OH265610   5.597   3.349  12.498  0.5775 -0.0867 -0.0197
14732TIP3    H165611   5.508   3.320  12.520  0.5724 -0.5302 -0.6179
14732TIP3    H265612   5.597   3.355  12.402  0.7977  1.1820  0.0497
14733TIP3   OH265613   6.361   3.750  14.362 -0.5038  0.0866  0.8427
14733TIP3    H165614   6.311   3.728  14.284 -1.2390  1.5806  0.8672
14733TIP3    H265615   6.349   3.676  14.421  1.5853 -1.8974 -1.1460
14734TIP3   OH265616   4.591   0.908   0.068  0.1341 -0.1294  0.5662
14734TIP3    H165617   4.503   0.933   0.039  0.4522  0.8095  0.4206
14734TIP3    H265618   4.590   0.812   0.064 -1.2557 -0.1740  1.6720
14735TIP3   OH265619   3.224   2.762  11.829  0.1413 -0.3132 -0.3645
14735TIP3    H165620   3.257   2.804  11.750 -0.1740  1.4378  0.4179
14735TIP3    H265621   3.285   2.689  11.844 -0.2788 -1.1904 -2.6644
14736TIP3   OH265622   5.740   6.291   0.685  0.1758  0.4679  0.4691
14736TIP3    H165623   5.794   6.232   0.632  0.4017  1.2522 -0.1851
14736TIP3    H265624   5.653   6.286   0.646  0.2097  0.6124  0.3739
14737TIP3   OH265625   5.019   0.206   0.061 -0.1628  0.2616  0.4783
14737TIP3    H165626   5.043   0.245   0.145  0.8712  2.2430 -0.6857
14737TIP3    H265627   5.099   0.212   0.009 -0.9585 -0.3912 -0.8373
14738TIP3   OH265628   5.566   5.299   5.396  0.2622 -0.5063  0.1736
14738TIP3    H165629   5.646   5.252   5.419 -0.2951 -1.1147  0.8733
14738TIP3    H265630   5.562   5.371   5.459  1.1863  0.5629 -0.9843
14739TIP3   OH265631   6.100   5.315   5.886  1.0133 -0.1130 -0.1653
14739TIP3    H165632   6.111   5.362   5.803 -0.5071 -0.9355 -0.8570
14739TIP3    H265633   6.189   5.292   5.912  1.4869 -0.2902 -1.8462
14740TIP3   OH265634   3.890   3.998  17.156  0.5007  0.4501  0.3871
14740TIP3    H165635   3.951   4.018  17.226 -0.6979  2.1439  0.9976
14740TIP3    H265636   3.877   4.082  17.111  0.2428 -0.3340 -1.0347
14741TIP3   OH265637   0.527   2.120   6.311 -0.1290  0.0425  0.3450
14741TIP3    H165638   0.619   2.137   6.330 -0.3638  1.0699  0.6007
14741TIP3    H265639   0.489   2.095   6.395  0.4734 -3.0355 -0.2490
14742TIP3   OH265640   4.670   2.920  11.853 -0.1190  0.6348 -0.6605
14742TIP3    H165641   4.619   2.848  11.892  0.0693  1.1259  0.5248
14742TIP3    H265642   4.629   2.936  11.768 -0.1645 -0.8814 -0.9383
14743TIP3   OH265643   3.615   0.954   0.266 -0.0596  0.0084 -0.1343
14743TIP3    H165644   3.596   0.866   0.299 -0.6755  0.3494  0.4383
14743TIP3    H265645   3.680   0.989   0.328  0.2212 -0.0530 -0.3884
14744TIP3   OH265646   0.917   5.983   3.939  0.4120  0.1661 -0.1746
14744TIP3    H165647   0.825   5.955   3.938  0.7349 -0.8687 -1.9341
14744TIP3    H265648   0.953   5.943   4.018 -0.1349 -1.1301 -0.5760
14745TIP3   OH265649   2.800   4.403  10.910 -0.0315 -0.3532  0.1338
14745TIP3    H165650   2.881   4.453  10.917 -1.0219  1.6473 -1.9180
14745TIP3    H265651   2.760   4.409  10.997  0.6114  1.1702  0.3279
14746TIP3   OH265652   1.108   0.494  15.939 -0.4726 -0.0579  0.3131
14746TIP3    H165653   1.147   0.407  15.943  1.3034  0.6416 -1.0131
14746TIP3    H265654   1.086   0.506  15.846  0.6318  1.4399  0.2103
14747TIP3   OH265655   4.623   3.264   2.908 -0.4413 -0.1505 -0.1687
14747TIP3    H165656   4.641   3.255   3.002 -2.0426  0.4422  0.2214
14747TIP3    H265657   4.629   3.175   2.874  1.9029 -0.1312  0.1518
14748TIP3   OH265658   1.392   0.783   3.442  0.6921 -0.3713 -0.2109
14748TIP3    H165659   1.474   0.785   3.394  1.4690  0.0545  1.1186
14748TIP3    H265660   1.384   0.870   3.481 -1.4649  0.3305 -2.0554
14749TIP3   OH265661   0.835   6.002   2.058  0.3013  0.4758 -1.0176
14749TIP3    H165662   0.801   6.027   1.973 -0.9251  1.0959 -0.3592
14749TIP3    H265663   0.806   5.912   2.070 -0.6141  0.8056 -0.7161
14750TIP3   OH265664   2.401   0.090  12.222 -0.1481  0.3116  0.0508
14750TIP3    H165665   2.406   0.186  12.213  0.4244  0.4638  1.8657
14750TIP3    H265666   2.462   0.057  12.155 -0.6108  1.1956 -0.8223
14751TIP3   OH265667   2.700   2.895  16.521  0.1691  0.1408 -0.0612
14751TIP3    H165668   2.605   2.888  16.531  0.2961 -0.0587  1.1788
14751TIP3    H265669   2.729   2.806  16.502  0.0717  0.2724 -0.8418
14752TIP3   OH265670   3.927   2.952  12.754 -0.0396 -0.0125 -0.0296
14752TIP3    H165671   4.019   2.971  12.736 -0.2477  0.2544 -0.7935
14752TIP3    H265672   3.887   2.941  12.668 -1.1154  1.7065  0.2408
14753TIP3   OH265673   1.518   4.249   6.522 -0.8015  0.2507  0.3097
14753TIP3    H165674   1.435   4.276   6.482  1.0805  1.6911 -2.7984
14753TIP3    H265675   1.543   4.323   6.578  0.0008  1.2545 -1.3484
14754TIP3   OH265676   5.942   0.183  12.797 -0.0884  0.2845 -0.1829
14754TIP3    H165677   5.958   0.247  12.728 -1.3706 -0.0126 -0.7752
14754TIP3    H265678   5.987   0.104  12.768  0.8243  0.6714  0.1627
14755TIP3   OH265679   1.720   6.665  11.529 -0.3143  0.0398 -0.2651
14755TIP3    H165680   1.683   6.625  11.451  0.2246 -2.7562  0.8672
14755TIP3    H265681   1.723   6.595  11.594 -0.1778  2.1310  2.1015
14756TIP3   OH265682   4.402   4.187  12.467  0.3586 -0.4994 -0.0026
14756TIP3    H165683   4.373   4.204  12.378 -0.1257  4.2555  0.9009
14756TIP3    H265684   4.323   4.196  12.520  1.2376  0.1560  1.2322
14757TIP3   OH265685   4.885   1.496  15.486  0.3839 -0.0446 -0.0590
14757TIP3    H165686   4.831   1.426  15.524  1.2743 -0.3983  0.5819
14757TIP3    H265687   4.965   1.494  15.538  0.6916  1.0039 -0.4920
14758TIP3   OH265688   2.987   3.928  12.531  0.9672 -0.4995 -0.0129
14758TIP3    H165689   2.897   3.894  12.534  0.8741 -0.3185 -0.6877
14758TIP3    H265690   3.017   3.907  12.443  1.7014 -0.8349  0.3157
14759TIP3   OH265691   4.441   3.456  10.807 -0.2761 -0.4439  0.2120
14759TIP3    H165692   4.497   3.532  10.821  0.0073 -0.3485 -1.3578
14759TIP3    H265693   4.493   3.397  10.752 -1.6340 -0.4122 -1.1425
14760TIP3   OH265694   2.330   4.768   0.537 -0.0089  0.0556 -0.1197
14760TIP3    H165695   2.243   4.777   0.575  0.1485  1.6197 -0.0683
14760TIP3    H265696   2.375   4.706   0.594 -1.1225 -0.8826 -0.2356
14761TIP3   OH265697   3.567   3.603   3.915 -0.0146  0.0984 -0.0620
14761TIP3    H165698   3.641   3.554   3.877  0.6038  0.6904  0.3570
14761TIP3    H265699   3.497   3.538   3.923  0.9223 -0.8258  0.8415
14762TIP3   OH265700   3.059   1.775  16.809  0.6239  1.0408  0.1993
14762TIP3    H165701   2.997   1.814  16.871  0.0948  0.7435 -0.1346
14762TIP3    H265702   3.139   1.826  16.820 -0.1222  2.3590 -0.3776
14763TIP3   OH265703   5.330   2.904  11.782 -0.3875  0.7725  0.0839
14763TIP3    H165704   5.283   2.946  11.854  0.5911  1.0276  0.5915
14763TIP3    H265705   5.283   2.821  11.768 -0.8057  0.8822  0.7785
14764TIP3   OH265706   1.598   6.274   6.317 -0.0397  0.0615 -0.8392
14764TIP3    H165707   1.689   6.275   6.347 -0.6675  0.8961  1.1055
14764TIP3    H265708   1.579   6.181   6.303  0.2274 -0.3736  1.5312
14765TIP3   OH265709   4.223   2.568  12.620 -0.3271 -0.2616 -0.1867
14765TIP3    H165710   4.288   2.499  12.635  3.1050  2.9502  0.3979
14765TIP3    H265711   4.193   2.591  12.707  0.3936  0.6488 -0.1694
14766TIP3   OH265712   2.327   2.693  11.752 -0.1647  0.3627  0.0558
14766TIP3    H165713   2.404   2.639  11.773 -0.7791 -0.4526  0.2309
14766TIP3    H265714   2.356   2.747  11.678  0.6286  0.1656  0.2136
14767TIP3   OH265715   1.431   0.409  16.933  0.0453 -0.6251 -0.5441
14767TIP3    H165716   1.355   0.462  16.907 -0.7007 -1.4425 -0.0642
14767TIP3    H265717   1.465   0.374  16.851  0.5508  0.5907 -0.8704
14768TIP3   OH265718   5.016   2.211  16.598  0.0173  0.0268  0.0577
14768TIP3    H165719   5.058   2.168  16.524 -0.4646  0.0565 -0.2387
14768TIP3    H265720   4.927   2.174  16.600 -1.0023  2.3259 -1.3263
14769TIP3   OH265721   4.383   4.616  15.190  0.5711  0.2494  0.0875
14769TIP3    H165722   4.433   4.662  15.123  0.9348 -1.8007 -1.0580
14769TIP3    H265723   4.295   4.654  15.183  1.1101  1.4938 -0.1370
14770TIP3   OH265724   3.558   2.315  15.749  0.5889 -0.1211  0.1000
14770TIP3    H165725   3.476   2.266  15.742  0.1015  0.7842 -0.5291
14770TIP3    H265726   3.596   2.286  15.832 -0.5415 -0.2618  0.5777
14771TIP3   OH265727   2.310   3.931   4.417  0.7633 -0.3775  0.4473
14771TIP3    H165728   2.395   3.958   4.451  1.4371 -2.5187  0.5026
14771TIP3    H265729   2.329   3.885   4.336 -0.5933  1.5811 -1.0386
14772TIP3   OH265730   4.411   0.343   5.034 -0.3652 -0.2903  0.4250
14772TIP3    H165731   4.442   0.253   5.035 -0.4022 -0.3081  0.0794
14772TIP3    H265732   4.334   0.342   5.091  0.0724 -0.3152  1.0101
14773TIP3   OH265733   6.710   5.633  16.870  0.3116 -0.3592  0.5067
14773TIP3    H165734   6.639   5.585  16.826  0.6373  0.1085 -0.5519
14773TIP3    H265735   6.688   5.725  16.856  1.1425 -0.2144  0.1471
14774TIP3   OH265736   2.881   5.085  12.880 -0.2701  0.1826  0.8642
14774TIP3    H165737   2.792   5.068  12.910 -0.1559  1.0494  1.7113
14774TIP3    H265738   2.886   5.180  12.869  0.5808  0.1580  0.9373
14775TIP3   OH265739   5.977   4.785   2.554  0.4181  0.4997  0.2376
14775TIP3    H165740   6.070   4.783   2.577  0.7861 -1.1359 -1.3141
14775TIP3    H265741   5.932   4.773   2.638  1.5238  3.2003  1.2738
14776TIP3   OH265742   5.626   4.714  11.903  0.0134  0.0012  0.1248
14776TIP3    H165743   5.664   4.801  11.890 -0.1219  0.1729  0.8523
14776TIP3    H265744   5.692   4.654  11.870  1.0986  0.2773  1.7317
14777TIP3   OH265745   0.749   0.145   4.998 -0.1463 -0.0859  0.7599
14777TIP3    H165746   0.676   0.108   4.949 -0.7052  1.9031  0.0413
14777TIP3    H265747   0.823   0.140   4.938 -0.4110  0.6884  0.3616
14778TIP3   OH265748   4.130   4.678  11.098 -0.1969  0.2778  0.1255
14778TIP3    H165749   4.076   4.750  11.066  0.9682  1.7243  1.3748
14778TIP3    H265750   4.153   4.628  11.020  0.4663  2.2750 -0.9753
14779TIP3   OH265751   6.331   0.634  14.151 -0.0756  0.2493  0.1683
14779TIP3    H165752   6.350   0.543  14.127 -2.2472 -0.1419 -0.2080
14779TIP3    H265753   6.304   0.676  14.069  0.1986  1.0258  0.4737
14780TIP3   OH265754   3.937   5.799  14.104  0.5983  0.0444  0.5547
14780TIP3    H165755   3.881   5.860  14.057  1.1642  0.9012  0.9967
14780TIP3    H265756   3.923   5.715  14.060  0.9840  0.7915 -1.0161
14781TIP3   OH265757   5.514   2.462   0.118  0.1337  0.1682 -0.5256
14781TIP3    H165758   5.565   2.396   0.165  0.7647  0.9069 -0.1743
14781TIP3    H265759   5.522   2.436   0.026  0.9831  0.1698 -0.4560
14782TIP3   OH265760   4.676   1.616  16.055  0.1233  0.0416 -0.0485
14782TIP3    H165761   4.616   1.687  16.031 -0.0313  0.3159  1.1193
14782TIP3    H265762   4.751   1.661  16.094 -1.0009 -0.5141  2.9006
14783TIP3   OH265763   0.554   0.021  16.951 -0.2888 -0.1522  0.1534
14783TIP3    H165764   0.475   0.072  16.969  0.3537  1.2958 -1.0247
14783TIP3    H265765   0.525  -0.049  16.892 -0.0796  2.5213 -3.2676
14784TIP3   OH265766   4.602   6.766  15.904 -0.0904 -0.0049  0.0567
14784TIP3    H165767   4.634   6.757  15.993 -2.0432  1.1519  0.8999
14784TIP3    H265768   4.614   6.679  15.865 -0.9340 -1.0452  2.0405
14785TIP3   OH265769   6.150   1.182   1.627 -0.2756  0.5157 -0.3257
14785TIP3    H165770   6.142   1.185   1.531 -1.4235  0.0030 -0.2515
14785TIP3    H265771   6.240   1.210   1.644 -0.0854  0.6874 -1.5523
14786TIP3   OH265772   1.498   3.482   6.153  0.7426 -0.2621 -0.1075
14786TIP3    H165773   1.447   3.467   6.073  0.2361  0.9428 -0.0283
14786TIP3    H265774   1.560   3.410   6.155 -1.6325 -2.3786  0.3249
14787TIP3   OH265775   3.629   2.055  10.356  0.6333 -0.0392  0.5775
14787TIP3    H165776   3.711   2.056  10.307 -0.1170 -0.8850 -0.7415
14787TIP3    H265777   3.594   2.144  10.345  0.8163 -0.0158  0.1740
14788TIP3   OH265778   2.349   0.095  10.581 -0.0464  0.4929  0.2727
14788TIP3    H165779   2.408   0.025  10.610 -0.2811  0.0438 -0.3153
14788TIP3    H265780   2.408   0.167  10.558  0.1769  0.6077  1.1923
14789TIP3   OH265781   5.618   2.631  15.141  0.2055 -0.2852 -0.2201
14789TIP3    H165782   5.614   2.725  15.158 -0.3459 -0.0653 -1.5010
14789TIP3    H265783   5.712   2.611  15.137  0.3253  0.1657  0.2252
14790TIP3   OH265784   5.439   6.342  11.784  1.0217 -0.0908 -0.6322
14790TIP3    H165785   5.476   6.429  11.768  1.4154 -0.1795 -0.2165
14790TIP3    H265786   5.508   6.282  11.757  1.7519 -0.2408  1.4835
14791TIP3   OH265787   6.210   0.762   5.465  0.7304 -0.0337  0.5293
14791TIP3    H165788   6.226   0.854   5.443  2.7860 -0.5119 -0.1253
14791TIP3    H265789   6.258   0.748   5.546  1.4582 -0.8224 -0.0235
14792TIP3   OH265790   4.550   4.184   1.963  0.2281 -0.0095 -0.2701
14792TIP3    H165791   4.498   4.205   2.041  0.7252  0.5111 -0.0765
14792TIP3    H265792   4.640   4.202   1.990  0.6385 -2.0901 -0.1987
14793TIP3   OH265793   2.944   2.201  16.769  0.1481 -0.4911  0.5633
14793TIP3    H165794   3.000   2.225  16.844 -0.8863  1.5733  0.7107
14793TIP3    H265795   2.861   2.246  16.786 -0.3163 -0.5322 -1.5161
14794TIP3   OH265796   5.573   1.754   0.370  0.5844 -0.1142  0.3528
14794TIP3    H165797   5.559   1.780   0.461  2.5620  0.7771  0.4336
14794TIP3    H265798   5.590   1.836   0.324  1.4738 -0.7415 -0.4558
14795TIP3   OH265799   6.536   5.994   2.106  0.1256  0.3899  0.2913
14795TIP3    H165800   6.477   5.993   2.181 -0.2648 -2.6178  0.0270
14795TIP3    H265801   6.485   5.954   2.035  1.7506 -0.2601 -0.5348
14796TIP3   OH265802   1.057   1.359  12.911  0.3159  0.0080 -0.0291
14796TIP3    H165803   1.013   1.306  12.977  0.4416  0.3821  0.3611
14796TIP3    H265804   1.104   1.426  12.962  0.7012  0.0815 -0.4774
14797TIP3   OH265805   6.348   6.191  16.267  0.5504  0.7314  0.9150
14797TIP3    H165806   6.263   6.213  16.305  1.0994  2.1308  1.3634
14797TIP3    H265807   6.334   6.197  16.172  0.2911  1.5261  1.0019
14798TIP3   OH265808   4.755   2.410   3.575  0.5145  0.2167  0.1852
14798TIP3    H165809   4.816   2.369   3.513 -0.4187 -0.1629 -0.5134
14798TIP3    H265810   4.677   2.429   3.522  0.1133  0.9059  1.0050
14799TIP3   OH265811   1.777   3.550  13.152  0.0596  0.4392  0.4161
14799TIP3    H165812   1.870   3.553  13.129  0.4998 -2.7596  1.6609
14799TIP3    H265813   1.742   3.634  13.120  3.2094  1.4079 -0.6346
14800TIP3   OH265814   4.399   6.643   3.309  0.2940  0.2384 -0.6135
14800TIP3    H165815   4.375   6.551   3.318  0.6333  0.1609 -0.4847
14800TIP3    H265816   4.359   6.687   3.383  1.7284 -0.1274  0.4033
14801TIP3   OH265817   0.811   1.557   1.274  0.0304  0.2476  0.4625
14801TIP3    H165818   0.873   1.629   1.286  1.8415 -1.1492 -0.2600
14801TIP3    H265819   0.785   1.562   1.182 -0.9780  0.8657  0.7798
14802TIP3   OH265820   2.849   0.853  13.977  0.2100 -0.4760  0.2198
14802TIP3    H165821   2.876   0.882  13.890  0.4440 -2.0551 -0.2472
14802TIP3    H265822   2.770   0.904  13.996  1.6161  1.7506  0.1968
14803TIP3   OH265823   0.402   1.716   1.808 -0.9588  0.0044  0.0048
14803TIP3    H165824   0.432   1.689   1.721 -2.8549 -1.0483 -0.3499
14803TIP3    H265825   0.395   1.634   1.857  1.2767  0.7128  1.5473
14804TIP3   OH265826   3.761   3.394   4.673 -0.8112 -0.0861 -0.4140
14804TIP3    H165827   3.705   3.369   4.599 -0.9921 -3.2480  0.7009
14804TIP3    H265828   3.700   3.399   4.747 -0.1404 -0.1472  0.1421
14805TIP3   OH265829   3.087   5.119   1.777 -0.1276 -0.1990  0.5124
14805TIP3    H165830   3.138   5.147   1.854 -2.0793  1.9000  1.0796
14805TIP3    H265831   3.137   5.045   1.741  2.7700  1.1354  1.6433
14806TIP3   OH265832   0.783   5.442   5.492 -0.1980  0.1165  0.3444
14806TIP3    H165833   0.772   5.356   5.533 -0.2859  0.2658  0.6417
14806TIP3    H265834   0.813   5.424   5.403 -2.0886 -0.3004 -0.2362
14807TIP3   OH265835   1.727   4.501  15.476  0.0022 -0.1799 -0.2784
14807TIP3    H165836   1.806   4.448  15.473  0.0903  0.0513 -2.8543
14807TIP3    H265837   1.694   4.501  15.386 -2.1586  0.8760  0.4744
14808TIP3   OH265838   4.837   0.524   0.822 -0.4617  0.2725 -0.0119
14808TIP3    H165839   4.889   0.453   0.784  1.8500  1.1477  1.4693
14808TIP3    H265840   4.842   0.510   0.917 -0.0142  2.3927  0.2943
14809TIP3   OH265841   5.596   5.915   2.348  0.0956  0.0078  0.2231
14809TIP3    H165842   5.589   5.983   2.415 -0.6797 -0.4969  0.6684
14809TIP3    H265843   5.570   5.835   2.393 -0.4639 -0.3319 -0.6855
14810TIP3   OH265844   4.768   3.773  11.917 -0.0322  0.0168 -0.2607
14810TIP3    H165845   4.824   3.725  11.979 -0.5240  1.4307  1.2998
14810TIP3    H265846   4.750   3.856  11.960 -2.6564 -0.0756 -1.1194
14811TIP3   OH265847   6.155   2.329  11.279 -0.3219 -0.3706  0.1172
14811TIP3    H165848   6.125   2.340  11.369  0.1264 -1.2248  0.3777
14811TIP3    H265849   6.187   2.238  11.275  0.2979 -0.1244 -0.7134
14812TIP3   OH265850   5.763   5.105  10.787 -0.3404 -0.3889  0.4009
14812TIP3    H165851   5.706   5.181  10.797  1.3552  0.9502  0.3120
14812TIP3    H265852   5.715   5.046  10.729 -1.1163  1.2309 -0.6534
14813TIP3   OH265853   6.683   2.215  16.479  0.5251  0.3180 -0.0992
14813TIP3    H165854   6.690   2.300  16.435  1.1822  0.7566  0.8007
14813TIP3    H265855   6.621   2.165  16.427 -1.0571  1.9049  0.2070
14814TIP3   OH265856   4.634   2.313   3.935  0.2227  0.4704 -0.2125
14814TIP3    H165857   4.698   2.244   3.953 -0.7507 -0.6508 -0.9039
14814TIP3    H265858   4.676   2.393   3.965  2.4766 -0.0452 -1.8181
14815TIP3   OH265859   1.549   6.331  13.663 -0.1293 -0.1799 -0.2212
14815TIP3    H165860   1.554   6.349  13.757 -0.5733 -2.2234  0.2024
14815TIP3    H265861   1.615   6.264  13.647 -1.0225 -0.8668 -1.1140
14816TIP3   OH265862   6.209   2.516  14.193  0.1368  0.3303 -0.2496
14816TIP3    H165863   6.285   2.479  14.239 -0.4856 -1.6327 -0.7212
14816TIP3    H265864   6.142   2.447  14.200 -1.2947  1.6689 -0.6194
14817TIP3   OH265865   0.643   4.623   3.467  0.3851 -0.0390 -0.2822
14817TIP3    H165866   0.651   4.704   3.416 -1.2840  0.2272 -0.1598
14817TIP3    H265867   0.670   4.647   3.556  2.6224 -0.3295 -0.8698
14818TIP3   OH265868   1.986   1.681   5.307 -0.3181  0.3946  0.1203
14818TIP3    H165869   2.072   1.642   5.321 -0.6771  0.0959  1.6402
14818TIP3    H265870   1.926   1.627   5.358 -1.7126 -0.5062 -2.4048
14819TIP3   OH265871   5.985   5.631  16.423  0.0981  0.3351  0.1130
14819TIP3    H165872   6.042   5.708  16.429 -1.0165  1.1445  0.4419
14819TIP3    H265873   5.896   5.667  16.427 -0.4487 -0.8248 -1.4476
14820TIP3   OH265874   5.949   4.707   1.218  0.4696 -0.0545 -0.0751
14820TIP3    H165875   5.979   4.645   1.285 -0.8184  1.2612  1.7734
14820TIP3    H265876   6.028   4.752   1.190  1.3103 -1.9894 -0.8953
14821TIP3   OH265877   4.884   0.253   1.568  0.0263 -0.7673  0.4534
14821TIP3    H165878   4.909   0.336   1.610 -1.2755 -0.3018  0.3408
14821TIP3    H265879   4.961   0.228   1.518  0.6521  0.0678  0.9717
14822TIP3   OH265880   4.703   3.499   0.993  0.3086 -0.0290  0.1249
14822TIP3    H165881   4.672   3.505   1.083 -1.6014 -1.0774 -0.4270
14822TIP3    H265882   4.657   3.569   0.947  1.3876  0.5953 -0.0397
14823TIP3   OH265883   0.152   4.713   0.888 -0.2269 -0.1787  0.6749
14823TIP3    H165884   0.202   4.793   0.905 -1.7533  1.2639 -1.4265
14823TIP3    H265885   0.199   4.671   0.816 -1.0497  0.2839 -0.1310
14824TIP3   OH265886   4.922   5.755  12.941  0.0338 -0.3211 -0.3016
14824TIP3    H165887   4.873   5.814  12.998  0.4285 -0.6946  0.4253
14824TIP3    H265888   4.866   5.746  12.863 -1.1322 -0.8498  0.5761
14825TIP3   OH265889   4.271   1.620  16.917 -0.4173 -0.1870  0.5658
14825TIP3    H165890   4.245   1.678  16.989 -1.7781 -1.3665  1.0382
14825TIP3    H265891   4.310   1.544  16.960 -0.1773 -0.3868 -0.0017
14826TIP3   OH265892   5.474   1.474  16.641 -0.1419 -0.2326  0.4807
14826TIP3    H165893   5.565   1.463  16.615 -0.1306 -0.9424  0.8075
14826TIP3    H265894   5.478   1.501  16.733 -0.2993 -2.2034  1.0998
14827TIP3   OH265895   3.670   3.134  10.870  0.2106 -0.5103  0.0162
14827TIP3    H165896   3.737   3.115  10.804 -0.2304 -0.3839 -0.4784
14827TIP3    H265897   3.674   3.228  10.883  1.9152 -0.8123  1.9448
14828TIP3   OH265898   4.107   1.196   0.110  0.4165 -0.1497 -0.0309
14828TIP3    H165899   4.146   1.254   0.175 -1.6853  0.0837  1.0436
14828TIP3    H265900   4.126   1.108   0.142  2.3790 -0.0928 -0.9341
14829TIP3   OH265901   0.268   3.777   2.301  0.3630 -0.1929 -0.1296
14829TIP3    H165902   0.281   3.711   2.369  1.5592  0.1297 -0.0264
14829TIP3    H265903   0.343   3.767   2.243 -0.4255 -0.1660 -1.1691
14830TIP3   OH265904   2.951   5.497   3.898 -0.4963  0.0045 -0.5784
14830TIP3    H165905   2.912   5.486   3.811 -0.3169  1.7091 -0.8941
14830TIP3    H265906   2.886   5.461   3.958 -0.6601 -1.1172 -1.3920
14831TIP3   OH265907   5.347   2.018  14.126  0.0878 -0.4682 -1.0615
14831TIP3    H165908   5.342   2.113  14.117  0.9011 -0.4344 -1.1584
14831TIP3    H265909   5.277   1.996  14.188 -0.4176  0.1340 -1.4090
14832TIP3   OH265910   0.053   2.268  14.571 -0.4932 -0.2649 -0.1352
14832TIP3    H165911   0.092   2.338  14.624 -0.4163  0.4894 -1.1754
14832TIP3    H265912   0.125   2.207  14.557 -0.6836 -0.8142  1.1886
14833TIP3   OH265913   2.998   0.796   4.198 -0.4423  0.6253  0.1672
14833TIP3    H165914   3.025   0.878   4.155  0.9066  0.3993  0.5581
14833TIP3    H265915   3.075   0.739   4.190 -1.3644 -0.5837 -0.0524
14834TIP3   OH265916   4.498   0.250  12.622 -0.3535 -0.7164  0.3769
14834TIP3    H165917   4.432   0.319  12.629  0.8828  0.4579  0.5151
14834TIP3    H265918   4.557   0.266  12.696  0.1756 -1.6609  0.1638
14835TIP3   OH265919   4.737   1.396   2.332 -0.3940 -0.0392  0.1450
14835TIP3    H165920   4.698   1.483   2.319  0.2345  0.1775 -0.3237
14835TIP3    H265921   4.738   1.384   2.427 -1.4920  0.0003  0.1690
14836TIP3   OH265922   0.936   1.911   6.666  0.1931  0.0238  0.0731
14836TIP3    H165923   0.877   1.850   6.622 -0.6516  0.4000  0.6889
14836TIP3    H265924   0.883   1.989   6.682  0.9637  0.5149  0.2755
14837TIP3   OH265925   2.904   6.334   3.535 -0.7170  0.6206 -0.3660
14837TIP3    H165926   2.855   6.305   3.457  0.4288 -0.4391 -0.6991
14837TIP3    H265927   2.936   6.421   3.511 -0.5605  0.3934 -1.0043
14838TIP3   OH265928   4.085   1.346  11.878  0.0752  0.1314  0.0783
14838TIP3    H165929   4.162   1.388  11.917 -0.9360  1.0800  1.0824
14838TIP3    H265930   4.017   1.413  11.882 -1.5567 -1.5775  1.6650
14839TIP3   OH265931   2.272   3.924   0.833 -0.2062 -0.3843  0.0790
14839TIP3    H165932   2.186   3.963   0.847 -0.9179 -2.3010  1.2609
14839TIP3    H265933   2.276   3.910   0.738 -1.0749 -0.0051 -0.0240
14840TIP3   OH265934   2.375   3.809   5.474  0.1271 -0.0836 -0.4281
14840TIP3    H165935   2.395   3.736   5.533  2.2382  1.5341  0.9159
14840TIP3    H265936   2.284   3.832   5.496  0.1251 -0.9885  0.5830
14841TIP3   OH265937   0.576   5.721  12.502  0.8027 -0.5068  0.5982
14841TIP3    H165938   0.545   5.795  12.450  1.7531 -1.0262 -0.7113
14841TIP3    H265939   0.627   5.761  12.572  1.5587  0.0620 -0.2752
14842TIP3   OH265940   2.075   2.050  15.131  0.2873 -0.8019 -0.7598
14842TIP3    H165941   1.985   2.053  15.097  0.5210  3.1085 -1.2631
14842TIP3    H265942   2.067   2.070  15.224  0.8098  3.4232 -1.4882
14843TIP3   OH265943   5.627   4.543  15.597  0.2523  0.1207 -0.0231
14843TIP3    H165944   5.662   4.576  15.514  0.3371  0.8020  0.2855
14843TIP3    H265945   5.533   4.532  15.579  0.4107 -0.5366 -0.4655
14844TIP3   OH265946   6.542   1.224  12.773 -0.4052  0.0565  0.3159
14844TIP3    H165947   6.516   1.144  12.819  0.7465 -1.5843 -1.7469
14844TIP3    H265948   6.634   1.235  12.796 -0.0021 -0.4077 -1.0231
14845TIP3   OH265949   6.212   5.115   0.727 -0.2803 -0.1037 -0.0856
14845TIP3    H165950   6.205   5.021   0.742  0.7696 -0.4219 -1.5035
14845TIP3    H265951   6.162   5.131   0.647 -1.3830  0.7211  0.7599
14846TIP3   OH265952   3.074   2.638   5.068 -0.5519 -0.8307 -0.2877
14846TIP3    H165953   3.054   2.728   5.041 -3.4243 -0.9711  1.1335
14846TIP3    H265954   3.043   2.584   4.995  0.1045 -0.7227 -0.6448
14847TIP3   OH265955   2.851   5.146   0.209 -0.1537  0.7094 -0.4831
14847TIP3    H165956   2.922   5.115   0.153 -0.4317  0.3434 -0.6324
14847TIP3    H265957   2.771   5.122   0.162 -0.4405 -1.7818  1.2301
14848TIP3   OH265958   2.604   5.901  12.744 -0.3464 -0.1196 -0.2920
14848TIP3    H165959   2.528   5.896  12.685 -0.2582  0.0577 -0.4211
14848TIP3    H265960   2.663   5.963  12.701  1.3346 -2.7537 -1.8586
14849TIP3   OH265961   4.944   2.250   5.477 -0.5639 -0.0469 -0.0138
14849TIP3    H165962   4.854   2.241   5.446 -0.7601  0.9870  0.2273
14849TIP3    H265963   4.994   2.188   5.424 -1.7746 -2.3543  1.4624
14850TIP3   OH265964   2.558   0.384   2.513 -0.0248  0.2952 -0.7538
14850TIP3    H165965   2.490   0.447   2.489 -0.3569 -0.3400 -1.4924
14850TIP3    H265966   2.633   0.439   2.538 -0.5165  0.9886 -0.7754
14851TIP3   OH265967   1.780   5.085   2.862  0.1350 -0.1398 -0.0556
14851TIP3    H165968   1.840   5.028   2.812  0.8200  1.0402 -0.6037
14851TIP3    H265969   1.716   5.025   2.899  1.5257 -1.4117  0.3443
14852TIP3   OH265970   3.867   2.724   0.468 -0.4899  0.4720 -0.2081
14852TIP3    H165971   3.858   2.674   0.387 -1.3936  1.4913 -0.7588
14852TIP3    H265972   3.917   2.802   0.442  2.2321 -0.8266  0.9495
14853TIP3   OH265973   4.841   5.791  16.106 -0.1887  0.7022 -0.0511
14853TIP3    H165974   4.842   5.706  16.151 -1.6056  0.5076 -0.3526
14853TIP3    H265975   4.932   5.820  16.106  0.7408 -2.0214 -2.2463
14854TIP3   OH265976   5.973   5.764   0.544  0.6909  0.8131 -0.1924
14854TIP3    H165977   6.046   5.717   0.503  0.0775  0.7606 -1.2172
14854TIP3    H265978   5.937   5.819   0.475 -0.4805  0.5587  0.2044
14855TIP3   OH265979   6.298   4.460  11.122 -0.5362  0.2436  0.2046
14855TIP3    H165980   6.294   4.409  11.042 -1.9398 -0.7885  0.9114
14855TIP3    H265981   6.226   4.523  11.115 -0.7273  0.0803  0.7098
14856TIP3   OH265982   4.601   1.607   3.575 -0.7579 -0.2469  0.5741
14856TIP3    H165983   4.550   1.671   3.624  0.1508  1.2402 -0.3746
14856TIP3    H265984   4.645   1.555   3.642 -1.2164  0.3595  1.3520
14857TIP3   OH265985   0.286   2.619   1.521  0.2525 -0.3833 -0.5959
14857TIP3    H165986   0.229   2.686   1.483  1.1559  0.7224 -0.0442
14857TIP3    H265987   0.246   2.598   1.605 -0.3736 -0.9812 -1.0491
14858TIP3   OH265988   3.529   2.501  10.639  0.7800 -0.6574  0.4011
14858TIP3    H165989   3.623   2.510  10.623  0.3399 -0.5385 -2.4697
14858TIP3    H265990   3.506   2.579  10.689  2.0283 -0.1595  0.2360
14859TIP3   OH265991   1.363   0.667  16.322  0.2912  0.1343  0.4775
14859TIP3    H165992   1.376   0.679  16.416  0.5166  3.0104  0.1444
14859TIP3    H265993   1.390   0.751  16.283  1.6449 -1.5093 -2.3103
14860TIP3   OH265994   6.292   3.027  16.950 -0.4872  0.2566 -0.1150
14860TIP3    H165995   6.215   3.039  16.895 -0.4010  2.5258  0.2286
14860TIP3    H265996   6.314   2.934  16.940 -2.4375 -0.1091 -1.2799
14861TIP3   OH265997   0.836   6.783  11.264  0.1607  0.3840  0.0096
14861TIP3    H165998   0.766   6.721  11.242  0.8992 -0.5263  0.1553
14861TIP3    H265999   0.877   6.803  11.180  1.0257 -0.6918  0.1664
14862TIP3   OH266000   2.860   1.319  15.297 -0.7051  0.1175  0.6807
14862TIP3    H166001   2.780   1.332  15.349 -0.1188 -0.4782  1.7545
14862TIP3    H266002   2.846   1.236  15.251 -1.2704  0.6989 -0.2199
14863TIP3   OH266003   0.614   4.222   3.219 -0.1700 -0.0522  0.4216
14863TIP3    H166004   0.560   4.291   3.180  0.9392  0.9648  0.6348
14863TIP3    H266005   0.588   4.221   3.311 -0.0146  0.2426  0.4677
14864TIP3   OH266006   3.405   6.664   1.552  0.6570 -0.2286  0.3398
14864TIP3    H166007   3.472   6.728   1.528  0.9145 -0.8883 -0.7158
14864TIP3    H266008   3.453   6.584   1.571  0.1292 -0.9192 -1.1605
14865TIP3   OH266009   5.509   6.106   3.567 -0.6454 -0.1609  0.2303
14865TIP3    H166010   5.516   6.175   3.633  0.7130  0.9226 -1.0400
14865TIP3    H266011   5.436   6.133   3.511 -1.4483 -0.8139  0.9316
14866TIP3   OH266012   2.389   4.875  12.030  0.2738 -0.2710 -0.2246
14866TIP3    H166013   2.409   4.932  12.104 -1.9274  0.6151 -0.2664
14866TIP3    H266014   2.474   4.842  12.001  1.3565  1.0739  1.3279
14867TIP3   OH266015   4.914   4.859   1.906 -0.1959  0.3432 -0.4816
14867TIP3    H166016   4.876   4.835   1.991  0.3122  2.7726  0.4700
14867TIP3    H266017   4.862   4.934   1.877  2.1379  2.0486 -0.3993
14868TIP3   OH266018   3.796   0.196   2.756  0.3492 -0.5775 -0.6280
14868TIP3    H166019   3.702   0.210   2.770  0.9182  2.2749  0.7308
14868TIP3    H266020   3.802   0.172   2.663 -1.6604 -0.1071 -0.9162
14869TIP3   OH266021   5.272   1.341  14.628 -0.2960  0.1372 -0.0640
14869TIP3    H166022   5.355   1.375  14.662  0.4294 -0.6915 -0.9811
14869TIP3    H266023   5.234   1.415  14.580  1.8577 -0.6495 -3.0915
14870TIP3   OH266024   5.032   5.123  15.630  0.2662  0.5603 -0.3976
14870TIP3    H166025   5.016   5.190  15.564  2.1805  1.2857 -0.1738
14870TIP3    H266026   5.059   5.046  15.580 -2.3589 -0.1968 -0.6796
14871TIP3   OH266027   5.023   6.706  15.524 -0.4608  0.0288  0.0395
14871TIP3    H166028   4.969   6.784  15.529  0.0493  0.5814 -2.0953
14871TIP3    H266029   5.111   6.736  15.548 -0.3611  0.0104 -0.2957
14872TIP3   OH266030   1.717   4.677  10.727 -0.2501  0.1562 -0.8110
14872TIP3    H166031   1.701   4.743  10.795 -0.0171 -0.7663  0.1332
14872TIP3    H266032   1.632   4.634  10.715 -0.8440  1.7011 -2.6131
14873TIP3   OH266033   4.088   5.111  17.198 -0.5478 -0.5232 -0.0662
14873TIP3    H166034   4.093   5.096  17.104 -2.2883 -1.9267  0.0546
14873TIP3    H266035   4.119   5.029  17.237 -1.6226 -0.6223  0.5874
14874TIP3   OH266036   2.582   0.595  12.724 -0.0078  0.1475 -0.4977
14874TIP3    H166037   2.602   0.506  12.754  0.7137  0.9132  1.3717
14874TIP3    H266038   2.487   0.595  12.709  0.1256 -1.1886 -1.4346
14875TIP3   OH266039   1.387   0.972  15.023  0.2077  0.7753  0.4345
14875TIP3    H166040   1.461   1.030  15.041  0.4926  1.1099 -1.6069
14875TIP3    H266041   1.377   0.975  14.927 -0.1210 -2.1041  0.3098
14876TIP3   OH266042   4.703   4.836  16.652 -0.3856 -0.1018 -0.3612
14876TIP3    H166043   4.726   4.745  16.637 -1.2487 -0.8641  2.5614
14876TIP3    H266044   4.608   4.837  16.657 -0.3058  0.4613  2.1083
14877TIP3   OH266045   5.508   2.881  14.817  0.7175  1.1017 -0.4066
14877TIP3    H166046   5.570   2.914  14.882  1.6337  0.2385 -0.8288
14877TIP3    H266047   5.525   2.786  14.814 -2.1640  0.4750  1.1205
14878TIP3   OH266048   6.604   3.330   5.032  0.1737 -0.1186 -0.3325
14878TIP3    H166049   6.690   3.308   5.069 -1.0096 -1.0829  1.9186
14878TIP3    H266050   6.542   3.307   5.101 -1.6688  4.1373 -0.4697
14879TIP3   OH266051   2.354   3.200  15.058 -0.6080  0.1647  0.3645
14879TIP3    H166052   2.346   3.105  15.049  1.1633  0.2316 -2.4972
14879TIP3    H266053   2.439   3.214  15.098 -0.5305  0.5569  0.0731
14880TIP3   OH266054   0.025   3.143   0.472 -0.3999 -0.3553 -0.2910
14880TIP3    H166055   0.077   3.209   0.518 -0.4655 -0.1104 -0.5654
14880TIP3    H266056   0.088   3.096   0.418 -0.2504 -0.9444  0.3977
14881TIP3   OH266057   6.566   3.368  16.531  0.3767 -0.1708  0.3713
14881TIP3    H166058   6.608   3.355  16.617  0.0534 -0.7712  0.4396
14881TIP3    H266059   6.636   3.350  16.468  0.5924  0.1847  0.5070
14882TIP3   OH266060   2.349   0.478   5.290 -0.1164 -0.2889  0.0494
14882TIP3    H166061   2.297   0.398   5.280  0.9570 -1.0215  0.3099
14882TIP3    H266062   2.299   0.530   5.354 -1.6889  0.0063 -1.3676
14883TIP3   OH266063   0.802   1.368   1.849 -0.0860  0.1161 -0.6678
14883TIP3    H166064   0.820   1.274   1.839 -1.0383 -0.1730  0.3230
14883TIP3    H266065   0.775   1.378   1.940  0.0531  1.3708 -0.7573
14884TIP3   OH266066   2.404   6.299   3.164 -0.2713  0.2975 -0.2362
14884TIP3    H166067   2.471   6.282   3.097  0.6859 -1.2186  1.0671
14884TIP3    H266068   2.371   6.386   3.143  1.6666  0.8190 -1.2817
14885TIP3   OH266069   5.164   0.659   0.428  0.0230  0.3073 -0.4888
14885TIP3    H166070   5.082   0.697   0.462  0.0724 -0.0278  0.0046
14885TIP3    H266071   5.229   0.677   0.496  0.4248  0.8007 -0.9948
14886TIP3   OH266072   4.136   3.596   1.465 -0.5628  0.1515 -0.3043
14886TIP3    H166073   4.115   3.648   1.387 -1.5395  0.5888  0.2422
14886TIP3    H266074   4.169   3.660   1.528  0.1917 -0.1956 -0.3452
14887TIP3   OH266075   4.798   2.453   0.675 -0.0607 -0.2012  0.0778
14887TIP3    H166076   4.702   2.458   0.678  0.0354  0.7445  1.6650
14887TIP3    H266077   4.816   2.369   0.631 -1.5947 -1.6820  2.2050
14888TIP3   OH266078   1.417   0.864  12.368 -0.5946 -0.0062  0.3743
14888TIP3    H166079   1.415   0.911  12.284 -0.1166  1.2415  1.0446
14888TIP3    H266080   1.509   0.867  12.394 -0.4989 -1.6346  0.2654
14889TIP3   OH266081   2.982   5.427  13.014 -0.4373  0.5760  0.0822
14889TIP3    H166082   3.020   5.482  12.946 -0.7923  0.6714 -0.0358
14889TIP3    H266083   2.985   5.338  12.978 -0.7907  0.6504 -0.1278
14890TIP3   OH266084   5.213   0.273   3.168  0.0789 -0.1563 -0.2926
14890TIP3    H166085   5.187   0.219   3.243  0.3981  1.5927  1.1314
14890TIP3    H266086   5.133   0.321   3.144  0.5307  0.9663  0.4039
14891TIP3   OH266087   0.514   2.655   2.935  0.1821 -0.2097 -0.3435
14891TIP3    H166088   0.572   2.721   2.897  0.9285 -0.5414  0.2008
14891TIP3    H266089   0.567   2.576   2.938  0.2748 -0.0812  1.7799
14892TIP3   OH266090   3.387   4.809  11.345  0.7128 -0.2052 -0.2569
14892TIP3    H166091   3.407   4.880  11.284 -0.0802 -0.8700 -1.3274
14892TIP3    H266092   3.444   4.825  11.420  1.8687  0.5104 -1.2564
14893TIP3   OH266093   0.325   1.206  13.327  0.0086  0.1851 -0.1984
14893TIP3    H166094   0.286   1.123  13.352  0.6851 -0.5041 -1.4041
14893TIP3    H266095   0.251   1.264  13.311 -0.4678 -0.3689  0.0064
14894TIP3   OH266096   1.013   6.626   4.317  0.4140  0.3095 -0.3819
14894TIP3    H166097   0.999   6.715   4.349  0.3072  0.2942 -0.3857
14894TIP3    H266098   0.944   6.613   4.252  0.8262  0.4623 -0.8588
14895TIP3   OH266099   2.943   2.181  14.792 -0.2311 -0.8795 -0.5699
14895TIP3    H166100   3.007   2.111  14.809  0.6559 -0.1817 -1.0549
14895TIP3    H266101   2.866   2.155  14.844  1.0248 -0.8703  1.3657
14896TIP3   OH266102   2.142   3.767   3.274 -0.2459 -0.0083 -0.0782
14896TIP3    H166103   2.054   3.746   3.244  0.0981 -0.1324 -1.0146
14896TIP3    H266104   2.190   3.791   3.194  0.6897 -0.3852  0.3591
14897TIP3   OH266105   4.562   3.619  12.020 -0.1917  0.6414 -0.5507
14897TIP3    H166106   4.644   3.600  11.975 -0.2064  0.7068 -0.6055
14897TIP3    H266107   4.520   3.533  12.030  1.2225  0.2075  2.1535
14898TIP3   OH266108   1.836   3.780  11.570  0.0067 -0.1452 -0.1373
14898TIP3    H166109   1.819   3.781  11.475  0.0572  0.1377 -0.1428
14898TIP3    H266110   1.893   3.855  11.585 -0.9865  0.5297  0.3033
14899TIP3   OH266111   4.117   0.569  10.873  0.1647 -0.0143 -0.4318
14899TIP3    H166112   4.131   0.482  10.838 -0.1780 -0.4910  0.6074
14899TIP3    H266113   4.035   0.563  10.922 -1.2848  1.5519 -2.5322
14900TIP3   OH266114   5.979   4.843   0.475  0.2716  0.4703  0.3617
14900TIP3    H166115   5.919   4.861   0.403  0.5429 -0.2218 -0.0514
14900TIP3    H266116   5.940   4.885   0.551  0.0142  1.2704 -0.2022
14901TIP3   OH266117   4.103   6.282   4.950 -0.1373 -0.3606  0.0778
14901TIP3    H166118   4.166   6.217   4.981 -0.5908 -0.6242  0.4452
14901TIP3    H266119   4.021   6.234   4.940 -0.9890  0.5916  2.3016
14902TIP3   OH266120   4.225   2.969  13.410 -0.0681  0.3991  0.2492
14902TIP3    H166121   4.159   3.019  13.361  0.8442 -0.1563 -1.5800
14902TIP3    H266122   4.223   2.882  13.372  1.7266  0.3761  0.1674
14903TIP3   OH266123   2.518   1.165  13.176 -0.5754  0.0869 -0.3114
14903TIP3    H166124   2.582   1.152  13.246  0.3378 -1.3989 -1.3921
14903TIP3    H266125   2.550   1.242  13.128 -0.3092  0.1230 -0.0733
14904TIP3   OH266126   0.855   0.952   0.782 -0.3968  0.2924  0.0579
14904TIP3    H166127   0.885   0.953   0.691  1.8522 -0.9330  0.7717
14904TIP3    H266128   0.759   0.952   0.775 -0.2584 -1.8392 -2.3399
14905TIP3   OH266129   0.045   0.026   0.781 -0.0345 -0.3726  0.3509
14905TIP3    H166130   0.067   0.099   0.724  3.7653 -0.8506  1.1095
14905TIP3    H266131   0.079   0.052   0.867 -0.0439 -2.3518  0.9648
14906TIP3   OH266132   2.766   6.553   1.268 -0.3326  0.4826 -0.0120
14906TIP3    H166133   2.787   6.538   1.175 -1.7226 -2.0362  0.0364
14906TIP3    H266134   2.672   6.565   1.270 -0.5241 -1.0424  1.2286
14907TIP3   OH266135   1.334   5.887  16.378  0.3886  0.1984  0.3895
14907TIP3    H166136   1.268   5.949  16.409 -0.1933 -0.5869  0.7692
14907TIP3    H266137   1.298   5.801  16.402 -0.2260 -0.4869 -2.7424
14908TIP3   OH266138   6.624   4.200   2.798  0.2052  0.1271  0.3889
14908TIP3    H166139   6.657   4.241   2.717 -0.3148  1.9139  1.0530
14908TIP3    H266140   6.700   4.194   2.855  0.4221 -0.4657  0.0421
14909TIP3   OH266141   4.299   4.941   5.803 -0.2859  0.4850 -0.8600
14909TIP3    H166142   4.210   4.909   5.818  0.0862 -0.2140 -0.0911
14909TIP3    H266143   4.347   4.865   5.771  0.0802  0.8068 -1.0728
14910TIP3   OH266144   0.884   0.187   4.124 -0.0797 -0.2817 -0.1704
14910TIP3    H166145   0.829   0.260   4.153 -0.1152  0.2972 -1.6430
14910TIP3    H266146   0.944   0.225   4.061  0.2415 -1.4302 -0.5825
14911TIP3   OH266147   2.518   0.259  12.461 -0.0254  0.0498 -0.9853
14911TIP3    H166148   2.494   0.167  12.473 -2.2814  0.7641  0.1217
14911TIP3    H266149   2.504   0.275  12.367 -1.7783 -0.1566 -0.7759
14912TIP3   OH266150   3.205   0.626   5.935  0.1044  0.4315 -0.2005
14912TIP3    H166151   3.220   0.696   5.999 -0.2440  0.5743 -0.2705
14912TIP3    H266152   3.120   0.647   5.897 -0.2103 -0.2774  0.0990
14913TIP3   OH266153   1.882   0.775   4.659  0.4939  0.5493 -0.0262
14913TIP3    H166154   1.867   0.728   4.741  0.3710  1.1572  0.3033
14913TIP3    H266155   1.900   0.865   4.686  1.3907  0.5525 -0.6078
14914TIP3   OH266156   4.978   3.217  12.965 -0.1419  0.2791 -0.2413
14914TIP3    H166157   4.972   3.274  12.888 -1.0879  0.7246  0.1529
14914TIP3    H266158   4.932   3.138  12.940 -0.9869  0.6629  0.0678
14915TIP3   OH266159   0.531   1.047   3.944  0.2210  0.1177 -0.1174
14915TIP3    H166160   0.606   0.996   3.912  0.1237 -1.0323  1.4521
14915TIP3    H266161   0.560   1.138   3.939  1.3013 -0.2456 -0.6136
14916TIP3   OH266162   2.373   0.077   0.099  0.0068 -0.0643 -0.6879
14916TIP3    H166163   2.294   0.089   0.151  0.3028 -1.4781  0.1263
14916TIP3    H266164   2.343   0.078   0.009 -1.0665 -1.4827 -0.3540
14917TIP3   OH266165   2.175   5.391  14.681  0.0326  0.1037  0.5767
14917TIP3    H166166   2.227   5.316  14.656 -0.5088 -0.5195  1.2715
14917TIP3    H266167   2.198   5.459  14.618  0.3545 -0.7127 -0.1969
14918TIP3   OH266168   0.360   3.858  11.873  0.0627  0.5534 -0.3178
14918TIP3    H166169   0.373   3.932  11.813  3.0406  0.7041  0.4248
14918TIP3    H266170   0.437   3.860  11.930 -1.7765 -0.7074  2.3225
14919TIP3   OH266171   5.989   5.379   5.285 -0.0667 -0.7084 -0.3535
14919TIP3    H166172   6.008   5.286   5.290 -2.5611 -1.3256 -1.3422
14919TIP3    H266173   5.978   5.396   5.191 -0.9861  0.2476 -0.0860
14920TIP3   OH266174   0.965   2.653   2.036  0.6349 -0.2710 -0.5275
14920TIP3    H166175   1.029   2.724   2.026 -0.7342  0.7851 -1.9035
14920TIP3    H266176   1.007   2.593   2.098  3.0320  0.3403 -1.4625
14921TIP3   OH266177   4.545   0.565  16.026  0.5675 -0.2547 -0.1509
14921TIP3    H166178   4.464   0.513  16.023 -0.3749  1.0991  1.1314
14921TIP3    H266179   4.577   0.552  16.115  1.0791  0.2488 -0.2651
14922TIP3   OH266180   0.453   1.976   1.397 -0.3142  0.4944  0.4241
14922TIP3    H166181   0.454   1.887   1.362  1.5136  1.2440 -1.5196
14922TIP3    H266182   0.409   2.028   1.330  0.4368  1.3923  0.6167
14923TIP3   OH266183   0.211   2.645   3.537 -0.2617 -0.2250  0.0812
14923TIP3    H166184   0.148   2.651   3.608  1.6839  2.3751  1.6421
14923TIP3    H266185   0.190   2.719   3.480  1.1871  0.5038  0.4787
14924TIP3   OH266186   4.239   3.927  13.543  0.4164 -0.2997  0.5160
14924TIP3    H166187   4.215   3.962  13.629 -0.5024  1.3174 -0.3847
14924TIP3    H266188   4.319   3.973  13.520  0.3540 -0.3289  0.2440
14925TIP3   OH266189   2.902   6.709  16.775  0.3200 -0.1807 -0.4915
14925TIP3    H166190   2.977   6.690  16.831  0.1145  1.8981  0.5102
14925TIP3    H266191   2.863   6.623  16.759  2.9784 -1.3091 -1.1666
14926TIP3   OH266192   3.667   6.549   4.766 -0.5246 -0.5230  0.3314
14926TIP3    H166193   3.625   6.569   4.849  0.9011 -0.8209  1.1469
14926TIP3    H266194   3.612   6.590   4.700 -0.4305  1.6814  1.5958
14927TIP3   OH266195   0.807   2.545  15.471 -0.4815 -0.1000  0.4232
14927TIP3    H166196   0.863   2.467  15.469 -0.2175  0.0651  1.1918
14927TIP3    H266197   0.843   2.602  15.403 -1.0883 -0.9143 -0.6134
14928TIP3   OH266198   0.279   5.647   1.225 -0.3118  0.6310 -1.1472
14928TIP3    H166199   0.324   5.720   1.182 -1.0998  1.5594 -0.3837
14928TIP3    H266200   0.348   5.581   1.237  1.4465  2.9372  2.1446
14929TIP3   OH266201   0.241   0.311   5.578 -0.2435 -0.0416  0.2128
14929TIP3    H166202   0.148   0.301   5.557 -0.3088  1.5044 -0.3668
14929TIP3    H266203   0.285   0.246   5.524 -0.8452  0.5382 -1.0209
14930TIP3   OH266204   4.056   5.997  15.118  0.4488 -0.0573 -0.4616
14930TIP3    H166205   4.083   5.959  15.202  2.6872  1.7606 -0.3164
14930TIP3    H266206   4.137   6.002  15.067  0.3028  4.4067 -0.4853
14931TIP3   OH266207   3.482   4.052   1.004 -0.8769 -0.7053 -0.2911
14931TIP3    H166208   3.445   3.972   0.968 -0.1750 -0.7735 -0.8630
14931TIP3    H266209   3.423   4.076   1.076 -1.9438 -0.8921 -1.0982
14932TIP3   OH266210   3.737   5.972  15.484  0.2894 -0.6147  0.0250
14932TIP3    H166211   3.763   5.914  15.413  1.8380  2.8634 -2.3626
14932TIP3    H266212   3.657   6.015  15.452 -0.2028 -0.5578  1.2856
14933TIP3   OH266213   4.583   3.656   0.807 -0.2467 -0.5237 -0.4537
14933TIP3    H166214   4.491   3.642   0.787 -0.5934 -0.5036  1.0831
14933TIP3    H266215   4.622   3.681   0.723 -1.7520  0.0570 -1.0006
14934TIP3   OH266216   1.860   3.475  11.649 -0.1187  0.5153  0.7291
14934TIP3    H166217   1.854   3.452  11.556 -1.7219  1.0143  0.6830
14934TIP3    H266218   1.840   3.569  11.651  0.3362  0.5985  1.5398
14935TIP3   OH266219   4.572   1.978  17.069 -0.1402 -0.4615 -0.4967
14935TIP3    H166220   4.622   2.036  17.011 -0.7992 -0.9730 -1.5808
14935TIP3    H266221   4.598   1.890  17.043 -0.6305 -0.7003 -0.1776
14936TIP3   OH266222   4.882   5.470   6.136 -0.3873  0.1489  0.2771
14936TIP3    H166223   4.888   5.400   6.201  2.9162  1.1807  1.2133
14936TIP3    H266224   4.795   5.507   6.148 -1.4040 -2.4403  1.1901
14937TIP3   OH266225   2.815   0.367  15.283  0.2170 -0.6814 -0.3253
14937TIP3    H166226   2.874   0.427  15.239  0.4909 -0.0565  0.8586
14937TIP3    H266227   2.862   0.283  15.285  0.4180 -0.5801 -0.7341
14938TIP3   OH266228   3.691   6.674  14.615  0.1310  0.3798  0.1273
14938TIP3    H166229   3.754   6.616  14.657  1.7555  0.2529 -2.3856
14938TIP3    H266230   3.692   6.754  14.668  0.3383 -0.6337  1.6824
14939TIP3   OH266231   2.747   1.624   3.785 -0.0101 -0.5392 -0.7196
14939TIP3    H166232   2.772   1.541   3.825 -1.5863 -2.0078 -2.6431
14939TIP3    H266233   2.676   1.656   3.841  0.1668 -0.8024 -0.3359
14940TIP3   OH266234   4.143   0.186  13.533  0.4738  0.6726 -0.2407
14940TIP3    H166235   4.066   0.158  13.583  0.5420  0.7329 -0.1041
14940TIP3    H266236   4.107   0.240  13.462  0.2966 -0.2595 -0.8575
14941TIP3   OH266237   1.986   1.947   3.575  0.3818  0.7147 -0.4363
14941TIP3    H166238   2.071   1.915   3.605 -0.9755 -3.1284 -0.4246
14941TIP3    H266239   1.936   1.960   3.655 -0.8460 -2.5096 -0.6247
14942TIP3   OH266240   5.042   3.048  15.447  0.0505 -0.0690 -0.5198
14942TIP3    H166241   5.005   3.012  15.527  1.9123 -3.3972 -1.0414
14942TIP3    H266242   4.969   3.094  15.405 -1.1124  1.0962  2.6874
14943TIP3   OH266243   5.885   1.418  13.553  0.0541  0.6753  0.4504
14943TIP3    H166244   5.919   1.365  13.481  0.4527  0.1461  1.0219
14943TIP3    H266245   5.953   1.483  13.569  0.1080  0.5965  0.5495
14944TIP3   OH266246   6.600   2.908   1.905 -0.2079 -1.0435  0.1572
14944TIP3    H166247   6.594   2.961   1.825  1.5397 -0.4925  0.3796
14944TIP3    H266248   6.631   2.822   1.875 -1.1773 -1.3557  0.0386
14945TIP3   OH266249   6.735   0.805   2.120 -0.0214 -0.1639 -0.1791
14945TIP3    H166250   6.649   0.843   2.137 -0.0143  0.1798 -0.8744
14945TIP3    H266251   6.753   0.750   2.196 -1.4627 -1.3146 -0.6546
14946TIP3   OH266252   5.202   5.141   3.561 -0.0375  0.5029 -0.1665
14946TIP3    H166253   5.141   5.215   3.557  0.8602  1.2573 -0.1033
14946TIP3    H266254   5.147   5.066   3.582 -0.9224  1.2034  0.0694
14947TIP3   OH266255   2.755   3.383  13.049  0.3199  0.2638  1.1865
14947TIP3    H166256   2.779   3.368  13.141  0.9180  2.4386  1.4017
14947TIP3    H266257   2.778   3.301  13.005 -0.0781 -0.8633  2.9762
14948TIP3   OH266258   3.481   3.416   1.278  0.1673  0.3080 -0.3824
14948TIP3    H166259   3.429   3.379   1.206  0.5312 -0.3348 -0.3160
14948TIP3    H266260   3.416   3.441   1.344 -0.0593 -0.6295 -0.2364
14949TIP3   OH266261   0.344   5.470   2.916 -0.2359 -0.2990  0.4448
14949TIP3    H166262   0.267   5.413   2.912  0.4263 -1.0990 -1.5945
14949TIP3    H266263   0.415   5.413   2.946  0.1365 -0.2262 -0.2843
14950TIP3   OH266264   5.091   2.778  14.183  0.0424  0.1387  0.5999
14950TIP3    H166265   5.089   2.871  14.208  0.2006  0.1659  0.5172
14950TIP3    H266266   5.020   2.768  14.120 -0.2210  0.1179  0.8978
14951TIP3   OH266267   0.236   0.996  13.646  0.5389 -0.1917 -0.1896
14951TIP3    H166268   0.235   1.091  13.636 -1.4271 -0.3613 -2.0438
14951TIP3    H266269   0.326   0.971  13.629  0.3176  1.0230 -3.4056
14952TIP3   OH266270   3.465   1.739  16.425  0.2180  0.0696  0.2691
14952TIP3    H166271   3.500   1.656  16.457 -1.3825 -1.0757 -0.8635
14952TIP3    H266272   3.406   1.714  16.354  0.0670  2.2183 -0.3841
14953TIP3   OH266273   4.391   5.238  12.405 -0.2818 -0.8530 -0.2287
14953TIP3    H166274   4.430   5.179  12.340  2.0499  2.5813 -2.1733
14953TIP3    H266275   4.332   5.294  12.354  0.4055  0.8969  0.8397
14954TIP3   OH266276   5.654   0.708  16.227 -0.1716 -0.2047 -0.1764
14954TIP3    H166277   5.680   0.753  16.308 -1.8644  1.6418 -0.6025
14954TIP3    H266278   5.563   0.683  16.241 -0.3025 -0.3888 -1.2871
14955TIP3   OH266279   6.643   4.147   5.598  0.1026  0.2834  0.1358
14955TIP3    H166280   6.568   4.115   5.548 -0.3841  0.6643  0.6066
14955TIP3    H266281   6.719   4.105   5.558 -0.3780 -0.2207 -0.2553
14956TIP3   OH266282   5.453   4.735   0.050  0.0393  0.1868 -0.0849
14956TIP3    H166283   5.490   4.820   0.074  0.3607 -0.1963  0.7958
14956TIP3    H266284   5.458   4.733  -0.045  0.3807  0.9987 -0.0878
14957TIP3   OH266285   6.332   6.656  11.213 -0.5871 -0.1098  0.8052
14957TIP3    H166286   6.322   6.700  11.128 -1.6924  0.9024  1.4303
14957TIP3    H266287   6.264   6.588  11.213  0.0818 -0.7799  0.4728
14958TIP3   OH266288   2.918   6.754   1.826  0.0880 -0.3769  0.1299
14958TIP3    H166289   2.827   6.741   1.853 -0.2819  0.2119 -0.8171
14958TIP3    H266290   2.967   6.686   1.873 -0.4462  0.9057  2.6707
14959TIP3   OH266291   2.794   4.316   5.162  0.4417 -0.3245  0.2822
14959TIP3    H166292   2.711   4.271   5.176  0.1606  0.0668 -0.1334
14959TIP3    H266293   2.789   4.395   5.216  1.4606 -1.4142  2.0486
14960TIP3   OH266294   1.297   1.905  12.981  0.6888 -0.4090 -0.1153
14960TIP3    H166295   1.386   1.940  12.976  0.3297  0.3462 -1.3098
14960TIP3    H266296   1.278   1.900  13.074  2.1256 -0.9355  0.1636
14961TIP3   OH266297   0.035   3.909   2.266 -0.3044 -0.0897 -0.2854
14961TIP3    H166298   0.115   3.857   2.265  0.6268  1.2931 -0.0079
14961TIP3    H266299  -0.034   3.849   2.240  0.5770 -1.7326  1.0631
14962TIP3   OH266300   1.035   3.999   3.898  0.0313 -0.0405  0.5462
14962TIP3    H166301   1.102   4.036   3.840  1.2109 -2.4581  0.2901
14962TIP3    H266302   1.085   3.967   3.974 -0.6025 -3.2756 -0.3555
14963TIP3   OH266303   1.000   2.831   0.558 -0.2278  0.5817  0.0803
14963TIP3    H166304   0.915   2.873   0.570 -0.4700  1.2558 -3.3773
14963TIP3    H266305   1.062   2.887   0.603 -1.5497  0.2149  2.4336
14964TIP3   OH266306   4.384   5.084   5.571 -1.0826 -0.1821  0.7039
14964TIP3    H166307   4.408   5.102   5.662 -2.9376 -0.0604  1.1969
14964TIP3    H266308   4.359   4.992   5.570  0.1702 -0.5344  0.0162
14965TIP3   OH266309   4.862   5.039   5.949 -0.8257 -0.1072  0.7380
14965TIP3    H166310   4.924   5.112   5.939 -0.0644 -0.7126  0.9985
14965TIP3    H266311   4.893   4.974   5.887 -0.8731 -0.6325  1.2630
14966TIP3   OH266312   5.068   2.566   2.033 -0.4805  0.2498 -0.2152
14966TIP3    H166313   5.062   2.527   2.120 -2.4872  0.7651 -0.1118
14966TIP3    H266314   5.162   2.571   2.016 -0.0498  0.4043  2.0410
14967TIP3   OH266315   1.980   5.782   3.680  0.1130  0.0428  0.3149
14967TIP3    H166316   2.060   5.757   3.634  0.6374  1.8276  0.2313
14967TIP3    H266317   1.942   5.851   3.627 -0.3225  0.7373  1.5011
14968TIP3   OH266318   3.977   5.042   3.405 -0.2675 -0.0993 -0.7747
14968TIP3    H166319   3.889   5.008   3.391 -0.5213  1.2727 -2.6364
14968TIP3    H266320   4.032   4.964   3.410 -1.4253 -0.9255 -0.6586
14969TIP3   OH266321   5.994   1.826  15.543  0.4727  0.3652 -0.2576
14969TIP3    H166322   6.002   1.730  15.540  1.0088  0.3794  0.5313
14969TIP3    H266323   6.070   1.854  15.594  0.7977  1.2848 -1.2542
14970TIP3   OH266324   1.394   5.228   4.437  0.2741  0.5352 -0.3354
14970TIP3    H166325   1.422   5.156   4.494  0.6796 -0.6680 -2.0213
14970TIP3    H266326   1.336   5.186   4.373  0.6029  1.7030 -1.4124
14971TIP3   OH266327   3.117   0.650   5.486  0.1364  0.1149 -0.2170
14971TIP3    H166328   3.126   0.600   5.567  1.9740 -1.7934 -1.5541
14971TIP3    H266329   3.077   0.590   5.424 -0.6045  1.3365 -0.9572
14972TIP3   OH266330   5.637   4.341  10.598  0.2899  0.1940 -0.3815
14972TIP3    H166331   5.704   4.345  10.530  0.4067  0.8980 -0.2324
14972TIP3    H266332   5.557   4.369  10.554  0.7641  2.6386  0.2459
14973TIP3   OH266333   0.623   6.031   1.545 -0.1999 -0.2386  0.3071
14973TIP3    H166334   0.529   6.051   1.553 -0.8268 -2.2998 -1.2855
14973TIP3    H266335   0.625   5.941   1.513  2.3082  0.3662 -1.3453
14974TIP3   OH266336   3.915   3.158   2.523  0.2335  0.4121  0.8547
14974TIP3    H166337   3.950   3.139   2.610  1.2753 -0.7466  0.2095
14974TIP3    H266338   3.849   3.225   2.538 -0.4058 -0.5863  2.6901
14975TIP3   OH266339   6.429   0.050   3.244 -0.3918 -0.2870 -0.5709
14975TIP3    H166340   6.485   0.072   3.170  0.0908  0.9163  0.1337
14975TIP3    H266341   6.368  -0.016   3.209 -1.0596  1.2442 -2.4301
14976TIP3   OH266342   5.010   6.650   2.612  0.2745 -0.1816 -0.7296
14976TIP3    H166343   5.039   6.647   2.703  1.7007  1.5045 -1.1127
14976TIP3    H266344   5.088   6.630   2.561 -0.4820 -0.9640 -1.6131
14977TIP3   OH266345   5.725   6.390   5.392  0.2011 -0.2855 -0.7220
14977TIP3    H166346   5.674   6.455   5.344 -0.8079 -0.4404  0.1408
14977TIP3    H266347   5.750   6.325   5.326 -0.9663 -0.3677 -1.0850
14978TIP3   OH266348   0.098   3.360  12.779  0.5914 -0.3649  0.1280
14978TIP3    H166349   0.141   3.444  12.800  0.8036 -0.3672 -0.2964
14978TIP3    H266350   0.005   3.376  12.796  0.8581 -0.6152  1.8916
14979TIP3   OH266351   3.881   4.672  13.136 -0.2199  0.7916  0.1834
14979TIP3    H166352   3.961   4.720  13.156 -0.1803  1.4664 -1.4555
14979TIP3    H266353   3.907   4.609  13.069 -1.0709  1.0849 -0.4361
14980TIP3   OH266354   6.129   4.976  15.696  0.3525 -0.1976  0.1165
14980TIP3    H166355   6.053   4.918  15.686  0.4875  0.0410 -2.5495
14980TIP3    H266356   6.170   4.978  15.610  0.4558  3.7022  0.1639
14981TIP3   OH266357   6.637   0.697  12.980 -0.0618  0.2139  0.0993
14981TIP3    H166358   6.666   0.634  12.914  2.0492 -1.2894  2.3379
14981TIP3    H266359   6.578   0.646  13.036  0.1752  0.7165  0.8174
14982TIP3   OH266360   4.276   5.634  15.079  1.0059  0.2636  0.0281
14982TIP3    H166361   4.323   5.594  15.006 -0.4681 -0.1992 -0.7000
14982TIP3    H266362   4.184   5.610  15.064  0.4119  1.9370  0.8850
14983TIP3   OH266363   4.340   0.351   3.788  0.5174  0.3147  0.4338
14983TIP3    H166364   4.433   0.331   3.793  0.7690  1.3946  0.2611
14983TIP3    H266365   4.330   0.431   3.840 -0.5969 -0.6951  1.8017
14984TIP3   OH266366   2.629   0.149   3.159 -0.4941 -0.1776 -0.2451
14984TIP3    H166367   2.694   0.217   3.140  0.2583 -0.9052 -0.3542
14984TIP3    H266368   2.562   0.193   3.211 -0.1793  0.7169 -0.5844
14985TIP3   OH266369   0.789   4.481  11.828 -0.3209  0.0792 -0.2974
14985TIP3    H166370   0.740   4.455  11.750  1.0960 -0.8182 -0.8906
14985TIP3    H266371   0.722   4.485  11.897 -1.6371  1.2080 -1.6044
14986TIP3   OH266372   6.296   1.328  16.976 -0.1408 -0.2195 -0.0284
14986TIP3    H166373   6.215   1.289  17.007 -0.1740 -0.3214 -0.2422
14986TIP3    H266374   6.290   1.421  17.001 -0.1757 -0.2950  0.2440
14987TIP3   OH266375   4.757   6.469   2.047 -0.0328 -0.2011  0.6482
14987TIP3    H166376   4.846   6.433   2.041 -0.3130 -0.6342 -1.1044
14987TIP3    H266377   4.701   6.401   2.009 -0.8876  0.9125 -0.1100
14988TIP3   OH266378   3.235   2.251  14.503  0.0547  0.0133  0.6854
14988TIP3    H166379   3.239   2.347  14.509  0.8273  0.0179  0.2217
14988TIP3    H266380   3.158   2.227  14.555 -0.2541  0.8982  0.6562
14989TIP3   OH266381   2.311   3.474  15.562  0.3447  0.2553 -0.1252
14989TIP3    H166382   2.273   3.561  15.572 -0.9584 -0.2785 -0.3747
14989TIP3    H266383   2.278   3.424  15.637  0.4594 -0.2471 -0.4074
14990TIP3   OH266384   2.092   6.328  10.846 -0.3631  0.3660  0.9272
14990TIP3    H166385   2.061   6.263  10.783 -1.7443  1.6311  0.2593
14990TIP3    H266386   2.172   6.364  10.807 -0.4804  0.1952  0.5296
14991TIP3   OH266387   4.875   3.529   0.734 -0.2333  0.2319  0.4089
14991TIP3    H166388   4.807   3.521   0.668  0.7046 -0.1145 -0.5269
14991TIP3    H266389   4.829   3.520   0.818 -1.2229 -0.7473 -0.2362
14992TIP3   OH266390   3.256   0.818  16.057 -0.1762  0.0297  0.2442
14992TIP3    H166391   3.200   0.740  16.055 -0.1353 -0.0098  0.5917
14992TIP3    H266392   3.282   0.831  15.966  1.0256 -1.2436  0.3959
14993TIP3   OH266393   0.948   6.591  12.659 -0.1908  0.3033 -0.0540
14993TIP3    H166394   0.946   6.686  12.672 -1.7989  0.4076 -0.9418
14993TIP3    H266395   0.861   6.562  12.685 -0.4424 -0.6339 -1.8691
14994TIP3   OH266396   2.152   1.292  14.451  0.8772 -0.0604  0.6343
14994TIP3    H166397   2.227   1.343  14.480  0.3237  1.9583 -1.3363
14994TIP3    H266398   2.082   1.357  14.439 -0.1960 -1.4379 -0.7575
14995TIP3   OH266399   5.150   5.595  15.665  0.2753 -0.2270 -0.0554
14995TIP3    H166400   5.232   5.632  15.698 -0.2587 -0.8316  2.0341
14995TIP3    H266401   5.082   5.655  15.698 -0.1738 -0.1155 -1.1788
14996TIP3   OH266402   0.469   2.876  14.817 -0.3425  0.3664 -0.0693
14996TIP3    H166403   0.446   2.967  14.799  1.2426  1.3271  2.3648
14996TIP3    H266404   0.555   2.865  14.776 -0.6592 -0.1300 -0.6018
14997TIP3   OH266405   0.351   4.534  16.542  0.0023  0.7501 -0.6667
14997TIP3    H166406   0.339   4.556  16.634  2.8325  1.3938 -0.3874
14997TIP3    H266407   0.407   4.604  16.508  2.2381 -1.5049 -1.8559
14998TIP3   OH266408   4.899   3.333   2.789 -0.3000 -0.3272 -0.2450
14998TIP3    H166409   4.870   3.361   2.702  0.0295 -1.4321 -0.7062
14998TIP3    H266410   4.828   3.278   2.822 -0.1364 -0.4387 -0.0764
14999TIP3   OH266411   0.740   1.131   2.050 -0.0476  0.2825  0.1569
14999TIP3    H166412   0.686   1.067   2.096  2.2170 -1.8148  0.0155
14999TIP3    H266413   0.753   1.095   1.963  3.2104 -0.3500  0.8080
15000TIP3   OH266414   3.798   6.087   3.629  0.4022  0.4062 -0.0133
15000TIP3    H166415   3.854   6.074   3.705  0.8094  2.0074 -0.0051
15000TIP3    H266416   3.804   6.181   3.611  0.1505  0.0879 -1.8869
15001TIP3   OH266417   1.329   6.670   3.651 -0.4168 -0.1261 -0.0695
15001TIP3    H166418   1.320   6.678   3.556 -1.3100 -2.1761 -0.1981
15001TIP3    H266419   1.331   6.575   3.666 -0.0294  0.1895  1.9402
15002TIP3   OH266420   5.796   6.766   2.895  0.8872  0.3612 -0.3907
15002TIP3    H166421   5.746   6.701   2.944 -1.0526  1.4274 -0.9147
15002TIP3    H266422   5.794   6.735   2.805 -1.3419  1.9070 -0.8976
15003TIP3   OH266423   4.381   0.338   1.897  0.0366 -0.1690 -0.1870
15003TIP3    H166424   4.431   0.331   1.979  1.2761 -1.3161 -1.0211
15003TIP3    H266425   4.443   0.377   1.835 -0.8720  0.6041 -0.6129
15004TIP3   OH266426   5.997   3.953  16.459 -0.0709 -0.6276  0.1471
15004TIP3    H166427   5.916   3.953  16.510 -1.0399 -1.8511 -1.3599
15004TIP3    H266428   5.969   3.944  16.368  1.7582 -1.4952 -0.3656
15005TIP3   OH266429   1.242   2.850   2.275  0.1261 -0.2257 -0.1423
15005TIP3    H166430   1.256   2.782   2.209  0.1362  0.2717 -0.6624
15005TIP3    H266431   1.264   2.932   2.229 -1.1313  0.2413  0.0810
15006TIP3   OH266432   1.084   4.272   1.868 -0.0631  0.1220 -0.3903
15006TIP3    H166433   1.121   4.223   1.795 -0.4747 -0.1890 -0.3913
15006TIP3    H266434   0.996   4.235   1.880  0.2208 -0.2283  0.6421
15007TIP3   OH266435   1.571   4.727  13.860 -0.0485  0.0499 -0.5044
15007TIP3    H166436   1.535   4.814  13.876  0.1696  0.3866 -1.7364
15007TIP3    H266437   1.526   4.670  13.922 -1.1170  0.8375 -0.5441
15008TIP3   OH266438   6.675   4.018  11.460 -0.2109 -0.4734 -0.0699
15008TIP3    H166439   6.673   4.071  11.380 -1.1501  1.7776  1.4007
15008TIP3    H266440   6.584   4.012  11.487  0.2691  0.3971  1.8370
15009TIP3   OH266441   3.976   1.913   1.439  0.2938  0.1913  0.3857
15009TIP3    H166442   3.999   1.930   1.348 -0.5510  0.3685  0.2015
15009TIP3    H266443   3.980   1.998   1.482  2.3844 -0.1455  0.9140
15010TIP3   OH266444   6.037   2.891   5.304  0.0921  0.0307 -0.3302
15010TIP3    H166445   5.970   2.864   5.241 -0.8274  1.4575  0.0086
15010TIP3    H266446   5.997   2.877   5.390  1.3316 -1.8745 -0.0337
15011TIP3   OH266447   5.127   1.802  12.328  0.4154  0.4824  0.0682
15011TIP3    H166448   5.045   1.753  12.341  0.9335 -0.1536  0.9943
15011TIP3    H266449   5.195   1.744  12.361  1.1922  1.2367 -0.1977
15012TIP3   OH266450   4.846   2.493   4.017 -0.2295 -0.0566  0.0891
15012TIP3    H166451   4.901   2.449   4.082 -0.7180 -2.3962 -1.0270
15012TIP3    H266452   4.906   2.513   3.945 -0.5324 -1.3525 -0.5380
15013TIP3   OH266453   4.748   5.002   2.621  0.2032 -0.5690 -0.6671
15013TIP3    H166454   4.689   5.031   2.690 -0.2463 -0.4310 -1.1021
15013TIP3    H266455   4.789   5.081   2.588 -0.3118 -0.5216 -1.2103
15014TIP3   OH266456   5.251   1.109  16.047 -0.2115  0.7022  0.2960
15014TIP3    H166457   5.204   1.065  15.976 -1.8079  2.9397 -0.0964
15014TIP3    H266458   5.182   1.151  16.099  0.9036 -0.9178  3.2398
15015TIP3   OH266459   0.364   2.412   4.581  0.0416 -0.6423  0.5416
15015TIP3    H166460   0.397   2.422   4.492 -0.0593  0.9413  0.6753
15015TIP3    H266461   0.349   2.318   4.590  0.5340 -0.8778 -0.9346
15016TIP3   OH266462   0.131   1.260   3.978 -0.7114 -0.1295 -0.3163
15016TIP3    H166463   0.173   1.195   3.921 -0.8877  0.1187 -0.7285
15016TIP3    H266464   0.146   1.344   3.934  0.4535  0.2384  0.7693
15017TIP3   OH266465   4.964   1.536  15.233 -0.1469 -0.6032  0.1995
15017TIP3    H166466   4.915   1.547  15.314  1.3577 -0.8422  1.1633
15017TIP3    H266467   4.986   1.625  15.205  1.2207 -0.5846  1.2586
15018TIP3   OH266468   1.695   2.464  13.297 -0.0347  0.1203  0.1113
15018TIP3    H166469   1.766   2.427  13.244 -1.4311 -0.6394 -1.2863
15018TIP3    H266470   1.633   2.392  13.307 -2.6717  1.8915 -2.3908
15019TIP3   OH266471   3.622   0.284   1.587 -0.1218  0.2580  0.2892
15019TIP3    H166472   3.630   0.195   1.555  0.1795  0.1907  0.5468
15019TIP3    H266473   3.629   0.339   1.509 -0.9586  0.0248  0.0573
15020TIP3   OH266474   4.702   2.246   5.062 -0.0393  0.4188 -0.3046
15020TIP3    H166475   4.637   2.193   5.108  1.8985 -1.1970  0.6845
15020TIP3    H266476   4.668   2.335   5.066 -2.7276 -0.5299 -0.8385
15021TIP3   OH266477   6.079   0.546  13.187  0.1475  0.4374  0.4331
15021TIP3    H166478   6.043   0.562  13.100  1.2843  1.6096  0.1636
15021TIP3    H266479   6.004   0.520  13.240 -0.7887  1.1485 -0.5349
15022TIP3   OH266480   4.538   5.367  15.815  0.1224 -0.5616  0.0511
15022TIP3    H166481   4.588   5.304  15.868 -0.2875 -1.3165 -0.4430
15022TIP3    H266482   4.473   5.403  15.876  0.6621 -0.2736  0.4570
15023TIP3   OH266483   1.859   1.015  16.596 -0.0802 -0.3827  0.4638
15023TIP3    H166484   1.766   0.997  16.582 -0.2549 -0.2900  1.4586
15023TIP3    H266485   1.880   0.970  16.678  0.7391 -0.3442  0.2817
15024TIP3   OH266486   2.840   2.998   2.843 -0.4919  0.1006  0.7136
15024TIP3    H166487   2.766   3.055   2.865 -0.4536 -0.0999  1.3492
15024TIP3    H266488   2.799   2.919   2.807 -0.5266  0.7965 -0.8092
15025TIP3   OH266489   3.306   4.941   0.253  0.2117  0.1685  0.8507
15025TIP3    H166490   3.370   4.929   0.323  1.1212 -0.3521 -0.0592
15025TIP3    H266491   3.354   4.922   0.173 -1.3903 -1.4280  0.2374
15026TIP3   OH266492   5.163   1.728   1.903  0.0313 -0.4427 -0.3867
15026TIP3    H166493   5.070   1.746   1.893  0.0196 -0.7916 -0.9598
15026TIP3    H266494   5.169   1.669   1.978 -0.3562 -1.6113 -1.2616
15027TIP3   OH266495   4.968   6.669  14.945  0.1684  0.1147 -0.1431
15027TIP3    H166496   5.024   6.599  14.978  1.4178  1.1062 -0.1119
15027TIP3    H266497   5.000   6.748  14.989 -0.1502  0.9739 -1.4145
15028TIP3   OH266498   1.890   4.637   3.355  0.1178 -1.0850  0.1369
15028TIP3    H166499   1.921   4.550   3.383  2.8899 -0.9489 -2.2996
15028TIP3    H266500   1.958   4.697   3.384 -0.6851  0.0137 -0.2300
15029TIP3   OH266501   4.618   5.428  14.227  0.2291  0.4271  0.4253
15029TIP3    H166502   4.649   5.341  14.252  0.0217  0.4691  0.8175
15029TIP3    H266503   4.627   5.430  14.131  1.5854  0.4873  0.5448
15030TIP3   OH266504   6.341   5.906   0.351 -0.4440 -0.0476 -0.6265
15030TIP3    H166505   6.292   5.953   0.284 -0.7061 -0.5678 -0.8077
15030TIP3    H266506   6.425   5.886   0.309 -0.4666 -0.0473 -0.6721
15031TIP3   OH266507   2.678   4.567   4.587  0.1826 -0.1144 -0.1050
15031TIP3    H166508   2.623   4.644   4.572  0.4129  0.5653  2.2548
15031TIP3    H266509   2.642   4.500   4.529 -3.2514  0.2859  1.3743
15032TIP3   OH266510   4.528   4.765  14.853  0.5855  0.5627  0.3523
15032TIP3    H166511   4.441   4.787  14.886  0.7221  1.7269 -0.0546
15032TIP3    H266512   4.511   4.705  14.780  0.1027  1.1024  0.0145
15033TIP3   OH266513   4.397   0.566   1.045  0.1198  0.1597 -0.3121
15033TIP3    H166514   4.444   0.505   1.102  0.0534  1.1126  0.7797
15033TIP3    H266515   4.453   0.575   0.968  1.4108  0.7135  0.6541
15034TIP3   OH266516   2.608   3.161   5.071 -0.0585  0.9072 -0.5063
15034TIP3    H166517   2.576   3.073   5.094 -0.5852  0.8808 -1.3197
15034TIP3    H266518   2.556   3.220   5.125  0.2529  0.7276 -0.0008
15035TIP3   OH266519   6.484   0.047   1.691 -0.6832  0.1908  0.1290
15035TIP3    H166520   6.394   0.059   1.719 -0.9168  3.7736 -1.9119
15035TIP3    H266521   6.504   0.124   1.639  3.7198 -0.2958  0.8769
15036TIP3   OH266522   2.744   6.213  16.488  1.0323 -0.3508 -0.4123
15036TIP3    H166523   2.723   6.303  16.513  2.3446 -0.0954 -0.1903
15036TIP3    H266524   2.799   6.180  16.559 -0.1538 -1.6258 -0.0677
15037TIP3   OH266525   2.390   6.060   4.639 -0.0096 -0.1309 -0.1554
15037TIP3    H166526   2.447   6.079   4.564  1.1547 -1.3281  0.4265
15037TIP3    H266527   2.351   5.975   4.619 -1.7777  0.7710 -0.6479
15038TIP3   OH266528   1.177   5.831  12.877 -0.2249  0.0882  0.1182
15038TIP3    H166529   1.259   5.783  12.885 -1.2346 -1.7629 -0.3886
15038TIP3    H266530   1.132   5.818  12.960 -1.0246 -0.8315 -0.4555
15039TIP3   OH266531   5.163   4.068   6.526  0.0051  0.2839  0.0317
15039TIP3    H166532   5.112   4.146   6.548 -2.2882 -1.1036 -0.1912
15039TIP3    H266533   5.108   3.995   6.554  2.2930 -1.2681  0.6146
15040TIP3   OH266534   1.733   0.855   4.432  0.0247  0.4309  0.1441
15040TIP3    H166535   1.728   0.948   4.453  2.8583  0.7254 -0.2509
15040TIP3    H266536   1.784   0.817   4.504  1.8738 -0.1813 -1.4703
15041TIP3   OH266537   0.149   3.542  15.680  0.1522 -0.1699 -0.2163
15041TIP3    H166538   0.190   3.464  15.644  1.1199  0.8456 -1.3655
15041TIP3    H266539   0.216   3.580  15.737  0.1298  0.4706 -0.6148
15042TIP3   OH266540   5.402   0.392   4.735 -0.2802 -0.1303  0.0329
15042TIP3    H166541   5.451   0.454   4.682  0.2281  0.0489  0.7049
15042TIP3    H266542   5.467   0.325   4.759 -0.0186  0.7807  2.0069
15043TIP3   OH266543   2.444   1.419   1.151 -0.1351  0.5677  0.0331
15043TIP3    H166544   2.444   1.453   1.062  2.5934  4.0212  1.2518
15043TIP3    H266545   2.397   1.485   1.202 -1.4618 -1.2475  1.2522
15044TIP3   OH266546   3.185   4.845  14.559  0.2350 -0.0182  0.0690
15044TIP3    H166547   3.137   4.816  14.481  0.7864  0.3857 -0.4226
15044TIP3    H266548   3.181   4.770  14.618 -3.2364  0.8718  1.1182
15045TIP3   OH266549   0.738   2.819  12.855  0.3214  0.2402  0.5122
15045TIP3    H166550   0.747   2.784  12.767 -0.6617  0.0962  0.4559
15045TIP3    H266551   0.773   2.751  12.912 -0.5477 -0.3794  0.3286
15046TIP3   OH266552   4.041   5.173  14.099  0.0545  0.1778 -0.1423
15046TIP3    H166553   4.081   5.141  14.018  1.3976 -0.4758  0.7623
15046TIP3    H266554   4.088   5.128  14.169 -1.5281  0.2433  0.9985
15047TIP3   OH266555   5.044   3.183  10.924  0.0319 -0.4046 -0.1593
15047TIP3    H166556   4.955   3.216  10.910  0.2445  1.2442  1.9770
15047TIP3    H266557   5.042   3.093  10.891 -1.3319  0.8310 -3.6809
15048TIP3   OH266558   4.087   5.550   5.175  1.1702 -0.3241 -0.0929
15048TIP3    H166559   4.144   5.531   5.249  1.2069  0.2168  0.0232
15048TIP3    H266560   4.026   5.476   5.172 -1.5925  1.6379  3.1635
15049TIP3   OH266561   4.846   4.804  14.272 -0.0337  0.2193 -0.4831
15049TIP3    H166562   4.778   4.749  14.232  0.5781 -1.2057  0.4223
15049TIP3    H266563   4.886   4.849  14.198 -0.6993 -0.3766 -1.2173
15050TIP3   OH266564   1.237   4.280  15.783  0.4524  0.0979 -0.2457
15050TIP3    H166565   1.310   4.340  15.768 -0.2823  1.0890  0.0575
15050TIP3    H266566   1.159   4.336  15.776 -0.2701 -0.9396 -0.5464
15051TIP3   OH266567   4.812   1.264   1.885 -0.1533  0.5371  0.2804
15051TIP3    H166568   4.757   1.223   1.819 -0.3489  1.0610  0.1145
15051TIP3    H266569   4.866   1.326   1.837  0.5176  0.1004  0.4569
15052TIP3   OH266570   5.909   1.314   0.863  0.1760 -0.4937 -0.6025
15052TIP3    H166571   5.964   1.356   0.796 -0.6126  0.8920 -0.4139
15052TIP3    H266572   5.837   1.275   0.814 -0.0249 -0.0945 -0.6269
15053TIP3   OH266573   5.366   3.851  13.658  0.1564 -0.4830 -0.1157
15053TIP3    H166574   5.321   3.900  13.728 -1.3973  0.4394 -1.7256
15053TIP3    H266575   5.389   3.768  13.699  2.1807  1.2295  2.4816
15054TIP3   OH266576   5.477   2.791  12.566  0.4177  0.9155 -0.2974
15054TIP3    H166577   5.570   2.802  12.583  0.1193 -0.9079  2.8649
15054TIP3    H266578   5.452   2.716  12.620 -2.7507  0.9743 -1.6008
15055TIP3   OH266579   3.437   3.904   4.929 -0.4798 -0.2688  0.0568
15055TIP3    H166580   3.486   3.955   4.864 -0.4130 -1.0679 -0.5311
15055TIP3    H266581   3.459   3.813   4.909 -0.0408 -0.4975  1.5506
15056TIP3   OH266582   6.471   4.635  13.544  0.1523  0.2105 -0.1336
15056TIP3    H166583   6.478   4.728  13.565 -1.3210  0.4212 -0.5361
15056TIP3    H266584   6.451   4.633  13.450 -0.0324 -0.5109 -0.0793
15057TIP3   OH266585   1.480   4.142  12.141 -0.1674 -0.4204  0.0566
15057TIP3    H166586   1.499   4.236  12.142 -1.5217 -0.1354 -0.4059
15057TIP3    H266587   1.454   4.124  12.051 -2.8190 -0.6350  0.8294
15058TIP3   OH266588   1.057   3.857   4.227  0.0228 -0.3638 -0.1488
15058TIP3    H166589   1.099   3.811   4.154  0.8781  0.5934 -0.2743
15058TIP3    H266590   0.963   3.850   4.209  0.1851 -1.0854 -0.7501
15059TIP3   OH266591   3.645   1.526   3.813  0.7251  0.0731 -0.8122
15059TIP3    H166592   3.687   1.597   3.763 -1.7964  2.4362  0.2857
15059TIP3    H266593   3.570   1.568   3.856 -0.2389 -3.0648  0.7268
15060TIP3   OH266594   6.309   2.974   4.810 -0.0777 -0.3386  0.2318
15060TIP3    H166595   6.351   2.889   4.796  0.4360  0.0522 -0.6276
15060TIP3    H266596   6.221   2.952   4.842 -0.1246 -1.1981 -0.4661
15061TIP3   OH266597   6.128   2.443  13.355 -0.5815 -0.2091 -0.1845
15061TIP3    H166598   6.067   2.370  13.364  0.3625 -1.1471 -1.2329
15061TIP3    H266599   6.120   2.469  13.263  0.3565 -0.1286 -0.2487
15062TIP3   OH266600   1.778   3.372   4.045  0.2761 -0.2235  0.0096
15062TIP3    H166601   1.830   3.450   4.027  0.7412 -1.2513 -3.5509
15062TIP3    H266602   1.842   3.300   4.044 -0.2879 -0.7874  2.2249
15063TIP3   OH266603   2.986   1.285  12.516  0.2570  0.4053  0.2282
15063TIP3    H166604   3.052   1.349  12.491 -1.1862  2.1269  0.7831
15063TIP3    H266605   2.996   1.214  12.452  0.5617  2.0509 -1.5760
15064TIP3   OH266606   0.685   5.261  15.599  0.3500 -0.3507 -0.9943
15064TIP3    H166607   0.772   5.297  15.613  0.0050 -0.2566  1.1180
15064TIP3    H266608   0.660   5.292  15.512  1.9100  0.6770 -1.0964
15065TIP3   OH266609   0.980   0.123  12.001 -0.2229  0.3206 -0.3549
15065TIP3    H166610   0.945   0.099  11.915  0.7094 -1.2700 -0.3144
15065TIP3    H266611   1.071   0.149  11.982 -0.9040  2.9630 -0.2594
15066TIP3   OH266612   1.327   3.335  16.511  0.1429  0.4765 -0.1200
15066TIP3    H166613   1.408   3.331  16.459 -0.9623 -0.2155 -1.8296
15066TIP3    H266614   1.341   3.273  16.582  1.0258  0.1592 -0.5602
15067TIP3   OH266615   5.386   3.539   3.862 -0.4692 -0.1669 -0.0355
15067TIP3    H166616   5.448   3.589   3.914 -0.9320  0.3037  0.0660
15067TIP3    H266617   5.322   3.505   3.925 -0.5087 -0.3661 -0.1788
15068TIP3   OH266618   0.455   2.260  15.877 -0.5951  0.2240 -0.3605
15068TIP3    H166619   0.452   2.337  15.820 -0.2477  0.4030 -0.1377
15068TIP3    H266620   0.503   2.194  15.826  0.7401  0.7624  0.1743
15069TIP3   OH266621   1.029   4.323   5.492  0.2108  0.2479 -0.4433
15069TIP3    H166622   1.108   4.370   5.463 -0.6447  0.4480 -2.4806
15069TIP3    H266623   1.011   4.260   5.422 -0.9115 -0.4308  0.4451
15070TIP3   OH266624   6.018   5.873   1.645  0.1359 -0.6567  0.7128
15070TIP3    H166625   6.011   5.920   1.562  0.6493 -1.9774 -0.0979
15070TIP3    H266626   6.060   5.935   1.705  0.1047  0.1669 -0.1105
15071TIP3   OH266627   4.762   1.282  16.168  0.4337 -0.3052 -0.3921
15071TIP3    H166628   4.719   1.235  16.240  0.5802 -0.7864 -0.6132
15071TIP3    H266629   4.747   1.374  16.187 -0.1641 -0.4517 -0.1418
15072TIP3   OH266630   1.553   1.306  16.239  0.0950 -0.5259  0.2133
15072TIP3    H166631   1.549   1.358  16.159 -0.8206  2.2881  2.0222
15072TIP3    H266632   1.646   1.290  16.253  0.3660  0.3711 -0.5138
15073TIP3   OH266633   4.620   4.103  16.173 -0.2749 -0.7899 -0.0620
15073TIP3    H166634   4.701   4.053  16.178  0.2817  0.0458 -0.5488
15073TIP3    H266635   4.603   4.113  16.079 -0.9158 -0.9179  0.0382
15074TIP3   OH266636   4.191   3.464   5.010  0.8531  0.5372 -0.7075
15074TIP3    H166637   4.133   3.399   4.968  0.4727  0.4540 -0.0657
15074TIP3    H266638   4.154   3.548   4.985 -0.9446  0.4848  1.5555
15075TIP3   OH266639   5.666   5.577  12.405  0.0556  0.4641 -0.7899
15075TIP3    H166640   5.684   5.615  12.319  2.2736  1.1209 -0.0645
15075TIP3    H266641   5.745   5.594  12.456 -1.0738 -0.2807  1.2629
15076TIP3   OH266642   5.393   4.184  14.777 -0.6084  0.2357 -0.1469
15076TIP3    H166643   5.400   4.256  14.839 -1.2636  0.6714 -0.5715
15076TIP3    H266644   5.435   4.110  14.821 -0.9650  0.5704  0.7674
15077TIP3   OH266645   3.734   2.451  15.550  0.3740  0.5176  0.7042
15077TIP3    H166646   3.665   2.411  15.603 -0.6374  1.6526  0.2760
15077TIP3    H266647   3.795   2.379  15.531 -1.3165 -0.7784  0.0768
15078TIP3   OH266648   4.478   4.084  13.568  0.3412 -0.1580  0.3307
15078TIP3    H166649   4.467   4.118  13.657 -1.4951 -0.7044  0.3470
15078TIP3    H266650   4.504   4.160  13.516  0.1225  0.4451  1.0984
15079TIP3   OH266651   1.751   1.698   6.636 -0.6716  0.7351 -0.0355
15079TIP3    H166652   1.742   1.786   6.672 -0.2270  0.7488  0.0517
15079TIP3    H266653   1.803   1.711   6.556 -0.5170  0.5363  0.0346
15080TIP3   OH266654   1.025   0.647   1.384 -0.1325 -0.5395  0.5163
15080TIP3    H166655   0.999   0.564   1.344  0.2094 -0.1798 -0.4441
15080TIP3    H266656   1.046   0.704   1.311 -0.0475  0.2997  1.1871
15081TIP3   OH266657   6.144   1.213   1.330 -0.3275 -0.3709 -0.4419
15081TIP3    H166658   6.166   1.134   1.281  1.0588 -0.6586  0.6028
15081TIP3    H266659   6.203   1.280   1.297  1.4837 -0.8817  1.6588
15082TIP3   OH266660   6.654   3.368  16.268  0.5758  0.3410 -0.6543
15082TIP3    H166661   6.714   3.329  16.204 -0.6507 -0.8431 -1.1034
15082TIP3    H266662   6.600   3.428  16.216  0.4748  0.3936 -0.4875
15083TIP3   OH266663   1.139   5.903   5.859 -0.7137 -0.1724  0.0116
15083TIP3    H166664   1.183   5.826   5.823 -0.1624  0.1661 -0.0538
15083TIP3    H266665   1.119   5.879   5.950 -1.2377 -0.6706 -0.2332
15084TIP3   OH266666   3.131   2.114  12.613  0.2877 -0.3252 -0.3099
15084TIP3    H166667   3.162   2.025  12.595 -0.5152 -0.4807 -0.9333
15084TIP3    H266668   3.160   2.131  12.703 -1.0992 -1.9060  0.4616
15085TIP3   OH266669   2.383   2.947  15.996 -0.0790  0.0698  0.2866
15085TIP3    H166670   2.344   3.034  16.001 -1.4681 -0.5674  0.6684
15085TIP3    H266671   2.477   2.962  16.010 -0.4555  1.3825  1.5053
15086TIP3   OH266672   2.295   5.822  12.117  0.3818 -0.1581  0.2044
15086TIP3    H166673   2.200   5.825  12.111  0.4486 -0.0683 -0.8840
15086TIP3    H266674   2.315   5.854  12.205 -0.5973 -0.3324  0.4949
15087TIP3   OH266675   1.551   2.830  16.138 -0.6418 -0.3213 -0.4365
15087TIP3    H166676   1.603   2.897  16.181 -1.3512  0.5670 -0.9469
15087TIP3    H266677   1.466   2.872  16.121 -0.6264 -0.8820 -2.0066
15088TIP3   OH266678   3.559   2.997   1.863  0.0746 -0.2382  0.5935
15088TIP3    H166679   3.532   3.088   1.874 -2.1579 -0.8069  0.1594
15088TIP3    H266680   3.545   2.956   1.948 -0.7332 -0.5853  0.3096
15089TIP3   OH266681   3.052   1.662   3.789 -0.2465  0.0492 -0.8962
15089TIP3    H166682   3.083   1.753   3.798 -0.3331 -0.0116  0.0513
15089TIP3    H266683   2.957   1.669   3.793 -0.2119 -0.2110  0.3598
15090TIP3   OH266684   2.923   4.830  13.028 -0.3263  0.1849  0.7232
15090TIP3    H166685   2.986   4.900  13.043  0.8882 -0.6630 -0.3263
15090TIP3    H266686   2.918   4.784  13.111 -0.8100  1.2518  1.2911
15091TIP3   OH266687   3.051   3.848  15.571 -0.3703 -0.2820  0.4621
15091TIP3    H166688   3.113   3.834  15.643  0.9530  0.5739 -0.5096
15091TIP3    H266689   2.975   3.796  15.596 -0.6373  1.3846  3.3651
15092TIP3   OH266690   0.642   1.326   0.674 -0.1330  0.3026  0.1633
15092TIP3    H166691   0.575   1.279   0.724 -1.7520  1.6601 -0.7048
15092TIP3    H266692   0.720   1.321   0.729 -1.5998  0.8714  2.3858
15093TIP3   OH266693   0.323   5.974  15.607  0.0892 -0.3195  0.3836
15093TIP3    H166694   0.359   6.050  15.561  2.0552 -1.0584  0.6258
15093TIP3    H266695   0.265   5.933  15.543  1.6910 -0.5230 -0.9870
15094TIP3   OH266696   4.781   5.725   4.807  0.1788  0.2507  0.0974
15094TIP3    H166697   4.721   5.793   4.834 -0.3748 -0.2025  0.0188
15094TIP3    H266698   4.751   5.699   4.719 -1.9402 -2.6772  1.5860
15095TIP3   OH266699   2.892   2.424   5.846  0.0121 -0.1927 -0.4730
15095TIP3    H166700   2.925   2.411   5.935 -1.2712 -1.2298 -0.1325
15095TIP3    H266701   2.797   2.412   5.854 -0.1790  0.3214 -1.8682
15096TIP3   OH266702   3.451   0.749  13.437  0.4425 -0.7243 -0.2584
15096TIP3    H166703   3.429   0.767  13.345  0.2907 -0.6638 -0.2106
15096TIP3    H266704   3.528   0.692  13.432  1.3465  0.4962 -0.4030
15097TIP3   OH266705   3.022   4.074   3.848  0.0635 -0.1562 -0.2796
15097TIP3    H166706   3.069   4.152   3.876  1.1767 -0.4709 -1.2146
15097TIP3    H266707   2.968   4.104   3.774  1.1408 -0.4366 -1.1960
15098TIP3   OH266708   3.090   6.061   1.460 -0.3809 -0.5339  0.0337
15098TIP3    H166709   3.038   6.128   1.415  0.0220 -0.3349 -0.1412
15098TIP3    H266710   3.060   5.978   1.422  0.5583 -0.3157 -1.2426
15099TIP3   OH266711   0.444   1.726  12.242 -0.2089  0.1791 -0.4061
15099TIP3    H166712   0.455   1.682  12.326  3.5043  1.9260  0.1195
15099TIP3    H266713   0.448   1.655  12.178 -1.3199 -0.9804  0.7876
15100TIP3   OH266714   3.520   5.012   0.630 -0.3619  0.5928 -0.3241
15100TIP3    H166715   3.539   5.024   0.723  0.6567  0.8271 -0.5562
15100TIP3    H266716   3.473   5.092   0.605 -3.5690 -0.8678  0.7252
15101TIP3   OH266717   3.603   2.348   6.099  0.1388  0.0475 -0.3104
15101TIP3    H166718   3.579   2.352   6.007 -0.7159 -0.9166 -0.1419
15101TIP3    H266719   3.584   2.436   6.133 -1.5471 -0.2002 -0.5790
15102TIP3   OH266720   1.827   2.335   0.907  0.4625 -0.1452  0.4261
15102TIP3    H166721   1.875   2.261   0.870  0.1128 -0.2268  0.1276
15102TIP3    H266722   1.801   2.306   0.994 -0.0605 -0.5497  0.1413
15103TIP3   OH266723   2.432   1.858  11.711  0.1962  0.4559  0.1191
15103TIP3    H166724   2.391   1.853  11.625  1.7144 -0.5911 -0.5855
15103TIP3    H266725   2.467   1.947  11.716  1.8375 -0.0775 -1.2129
15104TIP3   OH266726   3.416   6.728  11.385 -0.1368 -0.4396  0.5925
15104TIP3    H166727   3.344   6.667  11.404  0.2099 -0.4497  1.9202
15104TIP3    H266728   3.405   6.749  11.292 -1.8364 -0.4638  0.7611
15105TIP3   OH266729   3.760   0.284   0.807  0.3075  0.5695 -0.4167
15105TIP3    H166730   3.714   0.200   0.809 -0.8713  1.1806 -0.7391
15105TIP3    H266731   3.690   0.348   0.795  1.0891  1.6917  0.8988
15106TIP3   OH266732   3.826   1.147   1.501 -0.3906 -0.4909 -0.3637
15106TIP3    H166733   3.787   1.063   1.476  2.0397 -1.2342 -1.9001
15106TIP3    H266734   3.810   1.204   1.426 -1.1636  0.1204  0.2626
15107TIP3   OH266735   6.003   5.232   3.039 -0.6009  0.5186 -0.2314
15107TIP3    H166736   5.919   5.277   3.046 -1.6204 -1.5301  1.0677
15107TIP3    H266737   6.007   5.176   3.116  1.0882 -0.8643 -1.2818
15108TIP3   OH266738   3.321   2.817  17.086 -0.1768 -0.4399 -0.1986
15108TIP3    H166739   3.322   2.825  16.991  0.1018 -0.7155 -0.2211
15108TIP3    H266740   3.406   2.779  17.108 -0.3162 -0.5600  0.1407
15109TIP3   OH266741   6.680   2.274   1.232 -0.2430 -0.3662 -0.1139
15109TIP3    H166742   6.706   2.202   1.289  2.0451 -0.5342 -1.2891
15109TIP3    H266743   6.763   2.310   1.200 -1.4249  0.6737 -2.1230
15110TIP3   OH266744   4.130   2.860   2.269  0.6636  0.1233 -0.7637
15110TIP3    H166745   4.089   2.788   2.317 -0.8357  0.6463 -1.2056
15110TIP3    H266746   4.096   2.851   2.179  0.6917  1.1978 -0.8883
15111TIP3   OH266747   5.329   0.348   2.498 -0.0427  0.2305 -0.0561
15111TIP3    H166748   5.241   0.341   2.536  0.0077  0.4629  0.1100
15111TIP3    H266749   5.345   0.263   2.457 -0.3114  0.1580 -0.0113
15112TIP3   OH266750   1.704   6.426   5.452 -0.3105 -0.3455  0.3380
15112TIP3    H166751   1.637   6.359   5.468 -0.0318 -1.3642 -2.4360
15112TIP3    H266752   1.787   6.379   5.463 -0.0745  0.1989  0.9129
15113TIP3   OH266753   6.569   1.978  14.759  0.4155 -0.2644 -0.9104
15113TIP3    H166754   6.570   2.002  14.852  1.1077 -1.3775 -0.6164
15113TIP3    H266755   6.563   2.061  14.713  1.5977  0.4009  0.1078
15114TIP3   OH266756   6.563   6.553   5.941 -0.4456 -0.4399  0.2488
15114TIP3    H166757   6.621   6.533   6.014  1.8834  1.3633 -1.0271
15114TIP3    H266758   6.510   6.626   5.972  1.6059  1.3569 -0.3044
15115TIP3   OH266759   0.121   1.921   4.828  0.0877 -0.4865 -0.5601
15115TIP3    H166760   0.164   1.850   4.875 -0.5642 -0.8542 -0.5187
15115TIP3    H266761   0.067   1.964   4.894  0.2637 -0.1230 -0.6503
15116TIP3   OH266762   3.332   3.388  11.574  0.3247  0.2106  0.0836
15116TIP3    H166763   3.258   3.430  11.618  0.0668 -1.0822  0.8900
15116TIP3    H266764   3.369   3.457  11.519  0.2100  1.6394  1.7629
15117TIP3   OH266765   2.664   6.268  16.018 -0.6683 -0.1427 -0.1683
15117TIP3    H166766   2.724   6.227  15.955  1.4558  0.8575  1.1449
15117TIP3    H266767   2.695   6.237  16.103 -1.7397  0.7898  0.5683
15118TIP3   OH266768   0.295   6.276   5.029 -0.4954 -0.4252  0.8557
15118TIP3    H166769   0.343   6.259   5.110 -2.7003 -0.1290  2.2690
15118TIP3    H266770   0.244   6.197   5.015 -2.6478  0.7710  1.6225
15119TIP3   OH266771   2.112   0.505   3.538 -0.4349  0.3837  0.3568
15119TIP3    H166772   2.062   0.503   3.620 -1.6802  0.0793 -0.3911
15119TIP3    H266773   2.185   0.563   3.556 -0.8723  0.5701  1.5933
15120TIP3   OH266774   6.262   0.608   1.833  0.2143 -0.2081 -0.7142
15120TIP3    H166775   6.282   0.621   1.926  0.5397 -1.4747 -0.5993
15120TIP3    H266776   6.306   0.680   1.789  0.5889  0.0363  0.0490
15121TIP3   OH266777   4.882   4.197   0.510 -0.3529  0.0307  0.3867
15121TIP3    H166778   4.948   4.234   0.451 -0.5540 -1.8726 -1.0578
15121TIP3    H266779   4.919   4.113   0.538 -2.1748 -1.0984 -0.5148
15122TIP3   OH266780   3.398   3.093   0.105  0.2023 -0.3708  0.0537
15122TIP3    H166781   3.465   3.154   0.135  1.0717 -0.7465 -1.0711
15122TIP3    H266782   3.320   3.114   0.157  0.8208  0.9387  0.4599
15123TIP3   OH266783   2.326   1.733  16.292 -0.3284  0.0732  0.1706
15123TIP3    H166784   2.411   1.778  16.286  0.2614 -1.0940 -0.5490
15123TIP3    H266785   2.295   1.729  16.202 -1.2935  0.7447  0.4685
15124TIP3   OH266786   6.149   1.801   2.757 -0.0246  0.0825  0.2594
15124TIP3    H166787   6.095   1.732   2.796  0.7118 -1.7330 -1.8310
15124TIP3    H266788   6.232   1.757   2.737 -0.1287  1.1190 -2.6426
15125TIP3   OH266789   3.381   6.086  16.873 -0.1597  0.1416 -0.2296
15125TIP3    H166790   3.289   6.112  16.870  0.0092  0.9310  0.9974
15125TIP3    H266791   3.381   6.005  16.923 -0.5131 -1.4979 -2.7986
15126TIP3   OH266792   2.442   3.249   3.415 -0.4590 -0.1935 -0.2835
15126TIP3    H166793   2.381   3.323   3.414  0.8035  1.0357  4.2594
15126TIP3    H266794   2.389   3.174   3.442 -0.4951  0.3119  1.0347
15127TIP3   OH266795   0.866   3.603  16.799 -0.4080 -0.6475  0.1477
15127TIP3    H166796   0.875   3.669  16.729 -0.2651  1.2278  1.9063
15127TIP3    H266797   0.778   3.615  16.833 -0.7352 -2.0544 -0.1735
15128TIP3   OH266798   3.715   4.811  13.482 -0.2547  0.7542 -0.7009
15128TIP3    H166799   3.704   4.743  13.416 -2.5990 -0.1706  0.5905
15128TIP3    H266800   3.713   4.893  13.433 -2.1195  0.0918 -1.7740
15129TIP3   OH266801   2.560   6.738  14.066 -0.4126 -0.2217 -0.7545
15129TIP3    H166802   2.493   6.728  13.999  0.4917 -0.6601 -1.6053
15129TIP3    H266803   2.561   6.654  14.112 -1.2523  0.1863  0.0304
15130TIP3   OH266804   4.151   5.092  13.358  0.4367  0.2949 -0.2569
15130TIP3    H166805   4.126   5.005  13.391  2.3766 -0.2469 -0.1936
15130TIP3    H266806   4.167   5.077  13.265 -0.6315  0.8997 -0.5476
15131TIP3   OH266807   4.089   2.175   3.285 -0.0861 -0.4027 -0.4377
15131TIP3    H166808   4.126   2.087   3.281  1.2090  0.1825 -1.6437
15131TIP3    H266809   4.148   2.228   3.232 -0.3200  1.3918  1.0662
15132TIP3   OH266810   3.526   1.536  11.338  0.2920 -0.0765 -0.5033
15132TIP3    H166811   3.482   1.615  11.307  1.6982  0.4875 -1.0792
15132TIP3    H266812   3.501   1.468  11.276  1.2370  0.5291 -1.5656
15133TIP3   OH266813   0.019   4.668   1.804 -0.2489  0.3099 -0.0919
15133TIP3    H166814  -0.059   4.701   1.850  0.5870  1.8684  0.2446
15133TIP3    H266815   0.015   4.710   1.719 -0.1665 -0.2017 -0.3495
15134TIP3   OH266816   0.561   3.090  15.945 -0.1222  0.4388  0.4135
15134TIP3    H166817   0.637   3.031  15.937  0.9212  1.8518 -0.2519
15134TIP3    H266818   0.517   3.061  16.025  1.2958 -0.1990  0.9777
15135TIP3   OH266819   5.493   2.516   5.928 -0.1335  0.1868 -0.0396
15135TIP3    H166820   5.542   2.438   5.900 -1.4355 -0.8309  0.4845
15135TIP3    H266821   5.406   2.504   5.889 -0.6355  0.8999  0.8597
15136TIP3   OH266822   5.500   2.909  11.526  0.1482  0.0791  0.0036
15136TIP3    H166823   5.431   2.919  11.591  1.1285 -0.8568  1.2127
15136TIP3    H266824   5.538   2.996  11.516  0.0051  0.2235  0.7110
15137TIP3   OH266825   1.863   4.811  12.976 -0.4130 -0.2918  0.4710
15137TIP3    H166826   1.953   4.839  12.961 -0.1695 -1.0639  0.4361
15137TIP3    H266827   1.814   4.892  12.988  0.0373  0.2055 -0.9232
15138TIP3   OH266828   6.583   5.738  13.219 -0.0118  0.5222  0.1275
15138TIP3    H166829   6.555   5.675  13.286 -0.3554 -1.0320 -1.4487
15138TIP3    H266830   6.629   5.806  13.269 -1.3980  0.0779  2.0875
15139TIP3   OH266831   0.377   4.933   5.418 -0.2320  0.0119 -0.2219
15139TIP3    H166832   0.414   4.845   5.405  1.5474  0.9447 -1.6597
15139TIP3    H266833   0.336   4.929   5.505  1.4015 -1.6827  0.5076
15140TIP3   OH266834   3.578   1.849  11.608  0.1858  0.4541 -0.5408
15140TIP3    H166835   3.559   1.756  11.624  0.3503  0.2905 -1.2584
15140TIP3    H266836   3.673   1.854  11.605  0.1727  0.5912 -0.7766
15141TIP3   OH266837   0.703   6.517   1.632  0.3891 -0.5952  0.0275
15141TIP3    H166838   0.780   6.492   1.580  0.5654 -1.7794  0.8522
15141TIP3    H266839   0.696   6.611   1.619  0.4717 -0.8489 -2.1075
15142TIP3   OH266840   3.710   5.653   3.652  0.6183 -0.0650 -0.0131
15142TIP3    H166841   3.722   5.730   3.596  1.0055  1.2330  1.8108
15142TIP3    H266842   3.627   5.615   3.623 -0.1831  1.7330 -0.1514
15143TIP3   OH266843   0.843   4.440  12.152 -0.0227 -0.2823 -0.6198
15143TIP3    H166844   0.811   4.365  12.203 -1.7274  1.1394  0.4362
15143TIP3    H266845   0.778   4.451  12.083 -1.0937  1.7076  0.6655
15144TIP3   OH266846   4.220   2.919   5.148 -0.5252  0.1923 -0.1876
15144TIP3    H166847   4.267   2.888   5.070 -0.3551 -0.1664  0.0572
15144TIP3    H266848   4.286   2.918   5.218 -0.5189  1.0988 -0.1740
15145TIP3   OH266849   6.017   6.400   1.855 -0.4236  0.0719  0.0668
15145TIP3    H166850   6.051   6.464   1.792 -1.5241  0.4230 -0.1885
15145TIP3    H266851   6.072   6.411   1.933 -0.0012  0.6705 -0.3149
15146TIP3   OH266852   2.769   3.304   1.988 -0.2838  0.9215 -0.2263
15146TIP3    H166853   2.703   3.297   2.058 -0.7114  1.8282 -0.5335
15146TIP3    H266854   2.734   3.251   1.917 -0.6147  1.2652 -0.3261
15147TIP3   OH266855   0.088   1.704  12.512  0.5996 -0.0884 -0.4993
15147TIP3    H166856   0.079   1.674  12.602  1.2640  0.1324 -0.3607
15147TIP3    H266857   0.022   1.654  12.463 -0.8215  0.9067  0.3729
15148TIP3   OH266858   6.567   1.768  12.096  0.4889  0.2446  0.3383
15148TIP3    H166859   6.541   1.773  12.004  2.5753 -0.5535 -0.3424
15148TIP3    H266860   6.590   1.858  12.120  1.9194  0.1447 -0.5706
15149TIP3   OH266861   4.183   1.245   4.910  0.1505  0.3120 -0.0795
15149TIP3    H166862   4.159   1.247   4.817 -0.4125  1.8626  0.0795
15149TIP3    H266863   4.116   1.191   4.951 -1.4168  2.1963 -0.1039
15150TIP3   OH266864   5.522   5.540   2.799  0.3368  0.2810 -0.3824
15150TIP3    H166865   5.478   5.460   2.827  2.0615 -0.6364 -0.2491
15150TIP3    H266866   5.501   5.604   2.867  1.0797 -0.7757  0.8588
15151TIP3   OH266867   1.242   3.426  14.143  0.1550 -0.1192  0.0042
15151TIP3    H166868   1.222   3.443  14.235 -0.5813  1.3035 -0.4121
15151TIP3    H266869   1.247   3.330  14.137  2.1551 -0.1866  1.9103
15152TIP3   OH266870   4.472   2.695  11.148  0.2224 -0.0441 -0.8038
15152TIP3    H166871   4.502   2.759  11.212  0.4147 -1.4156  0.5141
15152TIP3    H266872   4.380   2.717  11.134  0.0816  0.0663  0.2265
15153TIP3   OH266873   1.253   5.078  13.189  0.0701 -0.0588  0.3030
15153TIP3    H166874   1.240   4.991  13.228 -1.8084 -0.1959 -0.5779
15153TIP3    H266875   1.198   5.136  13.242 -0.0418  0.2910 -0.2016
15154TIP3   OH266876   1.989   3.700   5.930 -0.0487  0.3148  0.7256
15154TIP3    H166877   2.061   3.751   5.966  1.2275 -1.4189  0.6487
15154TIP3    H266878   2.017   3.678   5.841 -0.5324 -0.6388  0.8031
15155TIP3   OH266879   3.474   3.945  17.190  0.2300 -0.2133  0.4821
15155TIP3    H166880   3.529   3.919  17.264  0.4776 -0.6074  0.1572
15155TIP3    H266881   3.486   4.040  17.184  0.0780 -0.1534  1.0552
15156TIP3   OH266882   1.759   1.861   1.295  0.1728  0.4865  0.0781
15156TIP3    H166883   1.816   1.902   1.229 -1.0594 -2.1489 -2.7449
15156TIP3    H266884   1.817   1.800   1.342  0.3767  0.1197 -0.6456
15157TIP3   OH266885   5.863   2.689   1.330 -0.1600  0.2919 -0.9138
15157TIP3    H166886   5.801   2.711   1.400  2.1776  1.7925  0.7447
15157TIP3    H266887   5.885   2.597   1.345 -1.0196  0.1059 -0.7565
15158TIP3   OH266888   5.923   1.920   0.128  0.1687  0.4539 -0.2890
15158TIP3    H166889   5.909   1.957   0.041 -0.0552 -0.3493 -0.5942
15158TIP3    H266890   5.852   1.957   0.181  0.0730  0.6380 -0.5424
15159TIP3   OH266891   0.615   0.435  16.550  0.3334 -0.1525 -0.1347
15159TIP3    H166892   0.522   0.418  16.532 -0.4734  1.6791  2.0470
15159TIP3    H266893   0.638   0.370  16.617  0.3041  0.1107  0.1327
15160TIP3   OH266894   1.490   5.708  14.128 -0.5927 -0.1084  0.2546
15160TIP3    H166895   1.405   5.688  14.088 -0.0315  0.3195 -1.1938
15160TIP3    H266896   1.554   5.658  14.077  0.1435  0.4476  0.6153
15161TIP3   OH266897   4.519   6.629   0.320  0.4129 -0.6547  0.4603
15161TIP3    H166898   4.614   6.624   0.318  0.3685 -1.4190  0.3773
15161TIP3    H266899   4.490   6.580   0.244 -0.0753 -1.1115  0.9384
15162TIP3   OH266900   3.679   4.572  15.159 -0.2293 -0.0323 -0.1045
15162TIP3    H166901   3.719   4.607  15.079 -0.5108  0.2715 -0.1142
15162TIP3    H266902   3.699   4.478  15.156  1.2393  0.2460  0.3372
15163TIP3   OH266903   2.459   1.442   5.571 -0.3499  0.2087 -0.0560
15163TIP3    H166904   2.424   1.413   5.655  1.3456  0.3151  0.6968
15163TIP3    H266905   2.416   1.526   5.555 -0.4895  0.3016  0.8150
15164TIP3   OH266906   0.343   5.059  14.043  0.1494  0.5635 -0.6883
15164TIP3    H166907   0.320   5.143  14.084 -3.0805  0.3907 -1.9784
15164TIP3    H266908   0.373   5.005  14.115  1.4287  2.5332  0.3134
15165TIP3   OH266909   4.594   0.861   4.510  0.3760  0.0321 -0.1004
15165TIP3    H166910   4.501   0.870   4.492  0.4982  0.0571 -0.6993
15165TIP3    H266911   4.597   0.833   4.602 -0.2429 -0.5898 -0.2628
15166TIP3   OH266912   0.620   1.647  13.236  0.8498 -0.4271  0.0932
15166TIP3    H166913   0.524   1.646  13.231  0.8938 -0.8901 -0.6926
15166TIP3    H266914   0.641   1.580  13.300  0.7020 -1.1678 -0.6347
15167TIP3   OH266915   4.920   5.397  12.801 -0.0030  0.9026 -0.4282
15167TIP3    H166916   4.846   5.458  12.803  0.8080  1.9325 -1.1057
15167TIP3    H266917   4.930   5.374  12.708 -0.3432 -0.3336 -0.1718
15168TIP3   OH266918   2.677   2.407  12.148  0.6263  0.7313 -0.3124
15168TIP3    H166919   2.596   2.367  12.115 -0.6783  1.2933  2.0466
15168TIP3    H266920   2.747   2.360  12.104 -0.9505 -1.3911 -0.6540
15169TIP3   OH266921   2.629   5.149  15.442  0.5036 -0.0234 -0.3054
15169TIP3    H166922   2.672   5.112  15.365 -0.2335 -1.3293 -0.1074
15169TIP3    H266923   2.656   5.241  15.443  2.4932 -0.5769 -0.7300
15170TIP3   OH266924   2.295   1.973  13.398 -0.1540  0.1891  0.7433
15170TIP3    H166925   2.268   2.062  13.423 -0.5641  0.5808 -1.0116
15170TIP3    H266926   2.353   1.986  13.323 -0.0583 -1.0191  0.6029
15171TIP3   OH266927   1.203   3.463  14.719  0.0484 -0.0872  0.1489
15171TIP3    H166928   1.173   3.553  14.723 -0.1663 -0.0689 -1.5214
15171TIP3    H266929   1.213   3.437  14.810  0.6369  1.7930  0.6415
15172TIP3   OH266930   4.410   5.230  13.899  0.6373  0.4745 -0.6333
15172TIP3    H166931   4.465   5.308  13.906 -1.1027  1.6438  0.2445
15172TIP3    H266932   4.469   5.162  13.864  2.4920  1.8195 -0.1831
15173TIP3   OH266933   2.032   2.558   0.362  0.0210 -0.1830 -0.0241
15173TIP3    H166934   1.944   2.595   0.355 -0.4618 -0.9363  1.7795
15173TIP3    H266935   2.029   2.478   0.309  0.0197  0.4923 -1.0509
15174TIP3   OH266936   5.692   5.815   5.040  0.0426  0.3845 -0.2221
15174TIP3    H166937   5.608   5.823   4.995 -0.4258  0.2264  0.6126
15174TIP3    H266938   5.671   5.833   5.132  0.8351 -0.1434  0.0605
15175TIP3   OH266939   3.396   2.199  15.217  0.4383  0.3251  0.3542
15175TIP3    H166940   3.363   2.257  15.285 -1.2507 -0.7170  0.4478
15175TIP3    H266941   3.410   2.115  15.262 -0.2906 -0.2535 -0.4847
15176TIP3   OH266942   4.833   1.480   3.059  0.9731  0.7796  0.3057
15176TIP3    H166943   4.900   1.413   3.072  0.4417  0.4848  1.7391
15176TIP3    H266944   4.824   1.521   3.145 -1.2857  0.2089  0.3740
15177TIP3   OH266945   3.513   3.684  14.814  0.3213  0.1252 -0.2645
15177TIP3    H166946   3.517   3.599  14.769 -1.2263  0.4448 -1.0564
15177TIP3    H266947   3.498   3.662  14.906 -1.4257 -0.4618 -0.6643
15178TIP3   OH266948   6.525   0.590   1.617  0.6616 -0.4811  0.4736
15178TIP3    H166949   6.476   0.672   1.623  0.0151 -0.8825  0.6634
15178TIP3    H266950   6.617   0.617   1.620  0.4602  0.3303 -0.6774
15179TIP3   OH266951   2.806   0.476  14.783  0.4519  0.1722  0.3453
15179TIP3    H166952   2.801   0.571  14.766  2.0476  0.3340  0.7159
15179TIP3    H266953   2.853   0.441  14.708 -1.0802 -0.5064 -0.3284
15180TIP3   OH266954   1.632   3.923   1.845 -0.1209  0.0314  0.6176
15180TIP3    H166955   1.727   3.924   1.855  0.0439  1.0579 -0.8181
15180TIP3    H266956   1.603   4.009   1.874 -0.5538 -0.1024  0.5903
15181TIP3   OH266957   2.771   0.470  16.327 -0.3508 -0.4724 -0.0675
15181TIP3    H166958   2.756   0.563  16.344  0.8870 -0.1469 -0.7151
15181TIP3    H266959   2.837   0.469  16.259  0.1961 -1.8384  0.4792
15182TIP3   OH266960   1.075   1.609  15.403  0.3460 -0.1972  0.5049
15182TIP3    H166961   1.010   1.593  15.334  2.5059  1.3305 -1.9678
15182TIP3    H266962   1.105   1.698  15.387  3.0015 -0.8434  1.6380
15183TIP3   OH266963   5.026   5.891  14.294 -0.4380 -0.2528  0.2030
15183TIP3    H166964   4.958   5.947  14.330  0.8407  0.9764  0.7272
15183TIP3    H266965   5.091   5.951  14.258  0.4428 -1.4067 -0.1706
15184TIP3   OH266966   4.357   2.305   2.067  0.0183  0.4658  0.5289
15184TIP3    H166967   4.373   2.331   2.158  0.6440 -0.2743  0.6425
15184TIP3    H266968   4.294   2.369   2.034  0.0738  0.9634  1.3700
15185TIP3   OH266969   6.496   1.865  13.155  0.1728  0.4730 -0.4114
15185TIP3    H166970   6.494   1.867  13.060 -0.0257 -2.9981 -0.5552
15185TIP3    H266971   6.411   1.826  13.180  0.3822  0.9678  1.1532
15186TIP3   OH266972   3.607   4.267  12.420 -0.3761  0.4240 -0.8131
15186TIP3    H166973   3.685   4.322  12.428 -0.4256  0.3082  0.5438
15186TIP3    H266974   3.618   4.224  12.335  1.1064  0.3067 -0.5873
15187TIP3   OH266975   3.715   0.140  13.693  0.4705  0.6400  0.2078
15187TIP3    H166976   3.628   0.155  13.731  1.6214  2.0032  2.3326
15187TIP3    H266977   3.707   0.054  13.651 -1.4913  0.1144  1.5679
15188TIP3   OH266978   3.171   2.396  12.600  0.2458  0.1340  0.5407
15188TIP3    H166979   3.080   2.426  12.601  0.0095 -0.5885  0.6583
15188TIP3    H266980   3.167   2.305  12.629  0.9420 -0.0917 -0.0618
15189TIP3   OH266981   3.762   4.316   0.717  0.3943  0.3771  0.1135
15189TIP3    H166982   3.751   4.222   0.734 -2.0494 -0.2844 -4.3022
15189TIP3    H266983   3.673   4.352   0.726  0.9353  1.8526 -0.3533
15190TIP3   OH266984   0.965   1.817  14.195  0.3403 -0.2690 -0.4967
15190TIP3    H166985   0.968   1.724  14.172 -0.9828 -0.8202  1.4381
15190TIP3    H266986   0.970   1.863  14.111 -1.9264 -2.1323 -1.6946
15191TIP3   OH266987   5.518   3.062  15.620  0.5781  0.1082 -0.1712
15191TIP3    H166988   5.438   3.011  15.612 -0.1232  1.0692  0.6658
15191TIP3    H266989   5.583   3.001  15.654  0.5156 -0.9675 -1.8943
15192TIP3   OH266990   5.974   1.521   1.395 -0.1430 -0.3489  0.3313
15192TIP3    H166991   5.969   1.600   1.342 -0.2220  0.0980  0.9891
15192TIP3    H266992   6.060   1.484   1.375  0.4656  0.6599  1.0536
15193TIP3   OH266993   1.363   0.823   5.693  0.3776  0.2275  0.1479
15193TIP3    H166994   1.384   0.841   5.784 -0.7615 -1.6800  0.8208
15193TIP3    H266995   1.270   0.842   5.685  0.3764 -0.0321 -0.5084
15194TIP3   OH266996   5.593   1.666  13.953  0.2399 -0.6684 -0.2369
15194TIP3    H166997   5.608   1.660  14.047  0.1724  1.6631 -0.0396
15194TIP3    H266998   5.571   1.577  13.926 -1.3073 -1.0591  2.2033
15195TIP3   OH266999   0.091   4.390  16.785  0.5761  0.2634 -0.1584
15195TIP3    H167000   0.119   4.299  16.795 -1.1076 -0.0550  2.0793
15195TIP3    H267001   0.021   4.386  16.720  1.6178  0.1956 -1.2753
15196TIP3   OH267002   5.003   1.111   1.635 -0.5173  0.0899  0.6369
15196TIP3    H167003   5.080   1.154   1.597 -1.3509 -1.5580 -3.1464
15196TIP3    H267004   4.933   1.175   1.626  0.1619  1.3406  3.4936
15197TIP3   OH267005   1.359   0.635  10.632  0.1549  0.3484  0.4744
15197TIP3    H167006   1.284   0.581  10.610  0.0901  0.2999  0.8078
15197TIP3    H267007   1.434   0.589  10.593  0.0085  0.4161  0.1137
15198TIP3   OH267008   6.641   0.045  12.520  0.1225  0.3902 -0.4173
15198TIP3    H167009   6.548   0.023  12.528 -0.0974  1.0493 -1.0417
15198TIP3    H267010   6.663   0.088  12.602  0.0775 -0.4709  0.0511
15199TIP3   OH267011   3.324   1.939   2.241  0.3476  0.2295  0.9457
15199TIP3    H167012   3.394   1.882   2.273  0.0753 -1.4084 -1.2689
15199TIP3    H267013   3.360   1.979   2.162 -0.2680  1.4559  1.2750
15200TIP3   OH267014   2.250   2.107   0.206 -0.0165 -0.1861  0.2857
15200TIP3    H167015   2.213   2.133   0.121  2.9913 -0.8469 -1.3154
15200TIP3    H267016   2.322   2.168   0.220  1.1673 -1.7189  1.0526
15201TIP3   OH267017   0.899   0.531  12.355  0.1008  0.2887 -0.2410
15201TIP3    H167018   0.857   0.473  12.292  0.4906  0.1023 -0.3308
15201TIP3    H267019   0.860   0.507  12.440 -1.0269  1.0978 -0.5147
15202TIP3   OH267020   3.291   0.882  15.778 -0.1014  0.4094  0.1582
15202TIP3    H167021   3.228   0.859  15.710 -0.2068 -0.9959  0.7313
15202TIP3    H267022   3.373   0.896  15.731  0.0380 -1.4195 -0.1814
15203TIP3   OH267023   4.731   0.335   2.600 -0.1094  0.4226 -0.6756
15203TIP3    H167024   4.797   0.269   2.621 -0.3367  0.0740 -1.0502
15203TIP3    H267025   4.662   0.319   2.664 -0.1940  0.2497 -0.8077
15204TIP3   OH267026   4.670   5.662  15.163  0.3171 -0.0263  0.0690
15204TIP3    H167027   4.652   5.569  15.174  0.2198  0.1009  1.0080
15204TIP3    H267028   4.703   5.670  15.073  1.7877 -1.1874  0.4917
15205TIP3   OH267029   3.719   2.813  12.511  0.3945  0.0731  0.6739
15205TIP3    H167030   3.743   2.837  12.422 -1.0585 -0.4187  0.1345
15205TIP3    H267031   3.692   2.721  12.504 -0.8444  0.3760  1.4045
15206TIP3   OH267032   5.162   2.391   1.536  0.5771 -0.5947  0.7441
15206TIP3    H167033   5.242   2.441   1.550 -0.1404  0.6190  0.5427
15206TIP3    H267034   5.105   2.413   1.610 -0.3393  0.0945 -0.1469
15207TIP3   OH267035   6.202   1.417  13.933 -0.0811  0.2213 -0.3894
15207TIP3    H167036   6.163   1.395  13.848  1.7862 -0.0158 -1.1998
15207TIP3    H267037   6.197   1.335  13.983 -1.3498  0.4092 -0.1815
15208TIP3   OH267038   1.882   0.708   1.048 -0.1371  0.4196 -0.7215
15208TIP3    H167039   1.870   0.765   1.124 -1.9919 -0.0377 -0.6485
15208TIP3    H267040   1.937   0.636   1.081 -0.0670  0.7555 -0.0930
15209TIP3   OH267041   0.193   3.653  11.835 -0.0757  0.3558  0.4476
15209TIP3    H167042   0.248   3.606  11.771  0.0340  1.7137 -0.4854
15209TIP3    H267043   0.242   3.733  11.852 -2.7204  2.5940 -2.0067
15210TIP3   OH267044   3.428   2.987  14.704  0.0009 -0.4117  0.3898
15210TIP3    H167045   3.367   2.925  14.744  1.0087 -1.5223  0.2720
15210TIP3    H267046   3.429   3.062  14.763  0.1447 -1.2949  1.5228
15211TIP3   OH267047   0.494   3.147   0.638 -0.1496 -0.1778 -0.0340
15211TIP3    H167048   0.462   3.112   0.554  0.0558 -1.7698  0.5347
15211TIP3    H267049   0.536   3.230   0.615  0.1647 -0.7424 -1.5554
15212TIP3   OH267050   5.970   5.207  16.620  0.0832 -0.0048 -0.0306
15212TIP3    H167051   6.036   5.216  16.689 -0.9267 -1.2114  1.1131
15212TIP3    H267052   5.930   5.121  16.635  1.4442 -1.3715 -3.5366
15213TIP3   OH267053   1.737   2.078   3.768 -0.0511  0.2524  0.3113
15213TIP3    H167054   1.734   2.057   3.862  0.8742 -2.8801 -0.2984
15213TIP3    H267055   1.688   2.007   3.727  0.9394  0.7216 -1.7014
15214TIP3   OH267056   1.541   2.234  16.302 -0.3117 -0.2627  0.3260
15214TIP3    H167057   1.479   2.288  16.350  0.1340 -0.1682  0.7945
15214TIP3    H267058   1.589   2.295  16.247  0.6017 -0.0919  1.2975
15215TIP3   OH267059   3.509   6.248  16.541 -0.3239 -0.6025  0.4707
15215TIP3    H167060   3.433   6.191  16.555  0.0800 -1.4051 -0.4594
15215TIP3    H267061   3.488   6.328  16.588 -1.8328 -0.7461  0.0975
15216TIP3   OH267062   0.233   5.442  12.718 -0.1791  0.7351 -0.1427
15216TIP3    H167063   0.257   5.429  12.626 -0.0450 -0.1275  0.0102
15216TIP3    H267064   0.309   5.414  12.767 -1.1868 -1.2744  0.3170
15217TIP3   OH267065   5.301   5.665  14.025  0.1141 -0.1589  0.2678
15217TIP3    H167066   5.294   5.680  13.930 -0.8064  1.8548  0.6241
15217TIP3    H267067   5.299   5.570  14.034  1.1097 -0.4113 -1.7993
15218TIP3   OH267068   1.597   2.273  14.155  0.6151  0.6101 -0.2025
15218TIP3    H167069   1.686   2.299  14.179  0.7812  0.6205 -0.8230
15218TIP3    H267070   1.566   2.222  14.230  0.7385  1.5389  0.4881
15219TIP3   OH267071   5.008   2.434   2.530  0.2367 -0.4825 -0.4682
15219TIP3    H167072   5.021   2.517   2.576 -0.3397  0.4274 -1.9270
15219TIP3    H267073   4.971   2.376   2.597 -2.2336  1.3156 -0.1851
15220TIP3   OH267074   3.459   2.550  15.805  0.1171  0.2976 -0.4028
15220TIP3    H167075   3.371   2.525  15.777 -0.4670  0.4055  1.2985
15220TIP3    H267076   3.508   2.468  15.804 -1.2383 -0.6462  3.0912
15221TIP3   OH267077   4.380   0.920  13.880  0.3572  0.7759  0.6269
15221TIP3    H167078   4.440   0.991  13.903  1.2452  0.7092 -1.4170
15221TIP3    H267079   4.394   0.905  13.787 -1.7809 -0.2449  0.4229
15222TIP3   OH267080   1.554   1.891  16.776  0.1965  0.2537  0.8845
15222TIP3    H167081   1.619   1.823  16.758 -0.8781 -0.6748  0.4168
15222TIP3    H267082   1.539   1.933  16.692  1.6214  1.8021  1.3662
15223TIP3   OH267083   5.801   5.138   2.769  0.3368 -0.1115 -0.4405
15223TIP3    H167084   5.771   5.217   2.724  2.3310  1.2347  0.5403
15223TIP3    H267085   5.876   5.166   2.821  1.3987 -2.7538 -0.4406
15224TIP3   OH267086   4.060   6.179  13.054  0.2428  0.0539 -0.0028
15224TIP3    H167087   3.979   6.229  13.045 -0.5011 -0.7764  1.9435
15224TIP3    H267088   4.129   6.245  13.057 -0.2941  0.7401 -2.2343
15225TIP3   OH267089   0.132   0.484   2.479 -0.5169  0.2274 -0.0818
15225TIP3    H167090   0.209   0.489   2.422 -0.0584 -1.8528  0.3215
15225TIP3    H267091   0.165   0.509   2.565 -1.0165  2.4898 -0.5163
15226TIP3   OH267092   0.587   5.303   5.670  0.3168 -0.7311 -0.1988
15226TIP3    H167093   0.603   5.354   5.749 -0.1968 -1.4665  0.3785
15226TIP3    H267094   0.633   5.221   5.684  0.8451 -0.5816 -0.9843
15227TIP3   OH267095   5.603   2.793   0.397  0.5077  0.2636  0.3712
15227TIP3    H167096   5.518   2.766   0.361 -0.4395  3.6290 -0.0620
15227TIP3    H267097   5.663   2.787   0.323 -0.1301  1.2260 -0.2391
15228TIP3   OH267098   4.905   6.285   1.808 -0.0160  0.8975 -0.3386
15228TIP3    H167099   4.923   6.258   1.898 -0.0213 -1.5821 -1.0664
15228TIP3    H267100   4.820   6.329   1.813 -0.6692 -0.4527  0.6582
15229TIP3   OH267101   0.256   2.359  16.637 -0.2918  0.1462  0.2179
15229TIP3    H167102   0.296   2.272  16.630  0.4678  0.4217  0.9295
15229TIP3    H267103   0.313   2.406  16.699  0.2336  1.6627 -1.3554
15230TIP3   OH267104   5.976   3.355  16.923 -0.1925  0.2672  0.6079
15230TIP3    H167105   5.998   3.326  16.834  0.6778  1.0205  0.5818
15230TIP3    H267106   5.896   3.305  16.944  0.4073 -1.0023 -0.0305
15231TIP3   OH267107   1.430   6.059  11.224  0.1989  0.2797 -0.0067
15231TIP3    H167108   1.336   6.050  11.237  0.2229  0.0250 -0.0025
15231TIP3    H267109   1.443   6.040  11.131  0.5168 -1.9359  0.4647
15232TIP3   OH267110   0.578   4.300  14.446 -0.0015  0.4646 -0.5390
15232TIP3    H167111   0.577   4.350  14.365  0.3794  1.5302  0.0973
15232TIP3    H267112   0.611   4.361  14.512 -1.7145  0.0683  0.7206
15233TIP3   OH267113   5.094   0.576  15.233  0.3514  0.0318  0.1318
15233TIP3    H167114   5.125   0.491  15.204 -0.6559 -0.5962  0.8425
15233TIP3    H267115   5.047   0.557  15.314  0.7309  1.3616  0.6741
15234TIP3   OH267116   4.886   1.497  14.743  0.3407  0.2281  0.5503
15234TIP3    H167117   4.841   1.428  14.694 -0.1237  0.5051  0.5800
15234TIP3    H267118   4.962   1.520  14.689  1.2046 -1.1854  1.1441
15235TIP3   OH267119   0.241   4.085   4.902 -0.3446 -0.3944 -0.3578
15235TIP3    H167120   0.155   4.099   4.941  0.6252  0.4557  1.5771
15235TIP3    H267121   0.292   4.162   4.929  1.7040 -2.0258  0.5603
15236TIP3   OH267122   3.997   4.185  13.490  0.0252  0.9795  0.0531
15236TIP3    H167123   3.948   4.267  13.496  0.8025  1.5268 -0.8278
15236TIP3    H267124   4.049   4.194  13.410  2.4001  0.8813  1.5353
15237TIP3   OH267125   5.659   0.552   0.389  0.1953 -0.0387 -0.0671
15237TIP3    H167126   5.694   0.491   0.324  0.8383 -0.8196  1.0010
15237TIP3    H267127   5.698   0.525   0.472 -2.1409 -0.3038  1.0053
15238TIP3   OH267128   0.503   1.612   0.625 -0.1596 -0.0412  0.2049
15238TIP3    H167129   0.501   1.543   0.691  1.3806 -0.6552 -0.3841
15238TIP3    H267130   0.560   1.578   0.556 -1.6123  0.6635 -1.3775
15239TIP3   OH267131   0.906   0.875   1.476  0.0191 -0.2898  0.2589
15239TIP3    H167132   0.975   0.937   1.452  1.8302 -1.3167  2.6483
15239TIP3    H267133   0.939   0.790   1.446 -0.9954 -0.5578 -0.1149
15240TIP3   OH267134   1.123   2.457   5.289  0.2610  0.4233 -0.7532
15240TIP3    H167135   1.082   2.424   5.209 -2.9621 -0.9185  1.3290
15240TIP3    H267136   1.147   2.378   5.338 -0.0605  1.1840  0.6611
15241TIP3   OH267137   4.389   1.535  13.716  0.2046 -0.0657 -0.3118
15241TIP3    H167138   4.435   1.581  13.785 -0.7502  0.0379  0.2671
15241TIP3    H267139   4.432   1.563  13.635  0.1165  1.2604  0.0863
15242TIP3   OH267140   3.853   2.597  13.875 -0.0645 -0.1675 -0.1698
15242TIP3    H167141   3.777   2.617  13.820 -0.2943 -0.6657 -0.0349
15242TIP3    H267142   3.817   2.555  13.952  0.2566  0.5754  0.3909
15243TIP3   OH267143   0.780   2.047   0.882  0.6183 -0.1923 -0.1624
15243TIP3    H167144   0.771   1.951   0.878  1.7007 -0.3891  1.6256
15243TIP3    H267145   0.692   2.080   0.861 -0.5984 -1.6703  2.3433
15244TIP3   OH267146   4.952   0.824   6.525 -0.0008  0.1800 -0.1917
15244TIP3    H167147   4.861   0.846   6.501 -0.3256 -2.7455 -1.9950
15244TIP3    H267148   4.944   0.777   6.608  0.1188  1.9220  0.8173
15245TIP3   OH267149   6.253   2.085  13.922 -0.2059  0.1327 -0.5837
15245TIP3    H167150   6.206   2.102  13.841 -0.3179 -1.4996 -0.8804
15245TIP3    H267151   6.289   1.997  13.911 -1.1935 -0.5846  1.5707
15246TIP3   OH267152   4.890   3.230  11.535 -0.0024 -0.2736 -0.2808
15246TIP3    H167153   4.948   3.187  11.597  1.1411 -0.1388 -1.2451
15246TIP3    H267154   4.841   3.159  11.493  0.8034 -0.5221 -0.7958
15247TIP3   OH267155   0.741   0.231   0.005  0.6753 -0.2097 -0.0751
15247TIP3    H167156   0.777   0.243   0.093 -1.6264  0.6598  0.7697
15247TIP3    H267157   0.742   0.136  -0.007 -0.2434 -0.4357  1.4407
15248TIP3   OH267158   1.529   2.038  11.386  0.4242 -0.1022  0.1845
15248TIP3    H167159   1.580   1.982  11.446 -1.1431 -0.9886  0.7268
15248TIP3    H267160   1.572   2.123  11.390  1.0101 -0.4522  1.7309
15249TIP3   OH267161   2.658   6.706  13.522  0.1141 -0.6875 -0.3019
15249TIP3    H167162   2.578   6.736  13.479  0.7420  1.2318 -0.1844
15249TIP3    H267163   2.630   6.631  13.575 -0.9598 -2.1250 -2.8289
15250TIP3   OH267164   5.112   0.102  13.480 -0.0281  0.0366 -0.1204
15250TIP3    H167165   5.073   0.187  13.462 -2.9947 -1.2584 -0.1343
15250TIP3    H267166   5.201   0.122  13.507 -0.2924  3.0515 -1.2796
15251TIP3   OH267167   3.004   0.344   2.967  0.1455 -0.0678  0.0620
15251TIP3    H167168   3.005   0.293   3.049  0.5326 -0.8616 -0.4340
15251TIP3    H267169   3.010   0.278   2.898 -1.6384  0.4847 -0.6614
15252TIP3   OH267170   1.444   0.239   3.975  0.1073  0.3410 -0.5957
15252TIP3    H167171   1.412   0.183   3.904 -0.0776 -0.3507  0.0244
15252TIP3    H267172   1.539   0.236   3.967  0.0790  0.5061 -0.9992
15253TIP3   OH267173   5.153   6.745  12.415 -0.3346  1.0992  0.1508
15253TIP3    H167174   5.208   6.736  12.492  0.4219 -0.5858 -0.5563
15253TIP3    H267175   5.065   6.722  12.445  0.3629 -1.9314  0.0110
15254TIP3   OH267176   3.852   5.493   5.627 -0.3923  0.0271 -0.1165
15254TIP3    H167177   3.777   5.523   5.575 -0.7730  1.2310  1.0876
15254TIP3    H267178   3.926   5.499   5.568 -1.1914 -0.8512 -1.2253
15255TIP3   OH267179   1.968   3.911  14.649 -0.5903  0.4984 -0.2123
15255TIP3    H167180   2.037   3.976  14.663  0.6449 -0.8652  0.1264
15255TIP3    H267181   2.005   3.848  14.587 -0.6412 -1.4840  1.6849
15256TIP3   OH267182   0.928   4.007  12.491  0.3305 -0.0484 -0.3043
15256TIP3    H167183   0.922   4.101  12.508  0.1429 -0.2576  0.8042
15256TIP3    H267184   0.898   3.966  12.572  0.1172 -1.0643 -0.8922
15257TIP3   OH267185   0.750   2.273  11.687 -0.5361  0.5900 -0.0940
15257TIP3    H167186   0.753   2.290  11.593 -0.7743 -1.7096 -0.5402
15257TIP3    H267187   0.833   2.229  11.706 -1.0370 -0.0950  0.5266
15258TIP3   OH267188   1.793   1.606  10.511  0.1340  0.0127 -0.3524
15258TIP3    H167189   1.712   1.635  10.554  0.7800  1.1732  0.0991
15258TIP3    H267190   1.765   1.579  10.424 -0.7677  0.2348 -0.1392
15259TIP3   OH267191   1.103   5.961  13.396 -0.2093  0.0973  0.3077
15259TIP3    H167192   1.034   5.977  13.461  2.4441  2.1974  2.7660
15259TIP3    H267193   1.167   5.907  13.442  0.0548 -1.4294 -1.7788
15260TIP3   OH267194   1.508   3.868  15.021  0.3129 -0.4401 -0.1003
15260TIP3    H167195   1.455   3.879  14.942  0.0493  1.7826  0.3598
15260TIP3    H267196   1.515   3.773  15.032 -3.5577 -0.8482 -0.2097
15261TIP3   OH267197   5.280   2.560   4.410  0.0517 -0.1134  0.1523
15261TIP3    H167198   5.237   2.609   4.480 -0.4105 -0.6221  0.2301
15261TIP3    H267199   5.271   2.616   4.332 -1.3767 -0.5201  0.0122
15262TIP3   OH267200   2.289   1.259   4.372  0.2293 -0.2620 -0.3391
15262TIP3    H167201   2.199   1.228   4.361 -0.9171  2.4589  1.0001
15262TIP3    H267202   2.300   1.268   4.467  1.2696  1.2210 -0.5854
15263TIP3   OH267203   1.242   3.904   1.367 -0.4251  0.4439  0.4583
15263TIP3    H167204   1.304   3.874   1.300 -1.8233 -0.7265 -0.3379
15263TIP3    H267205   1.211   3.989   1.335  0.8468  1.1074  0.9354
15264TIP3   OH267206   4.915   0.902  13.609 -0.1306 -0.3675  0.0769
15264TIP3    H167207   4.845   0.963  13.587 -0.6228 -1.3615 -1.2073
15264TIP3    H267208   4.910   0.835  13.541  0.1735 -2.0150  1.6457
15265TIP3   OH267209   0.212   2.405   3.166 -0.0871  0.0028 -0.2712
15265TIP3    H167210   0.282   2.342   3.180 -0.0335  0.1158 -0.0445
15265TIP3    H267211   0.138   2.371   3.217  0.2553  0.6656  0.6755
15266TIP3   OH267212   5.680   3.966  11.586  0.5517 -0.2245 -0.1776
15266TIP3    H167213   5.607   3.904  11.577 -0.6614  1.0057  1.0134
15266TIP3    H267214   5.726   3.937  11.665 -1.0141  1.3599  1.3605
15267TIP3   OH267215   1.589   0.340  14.852 -0.4668 -0.0506 -0.4711
15267TIP3    H167216   1.600   0.304  14.764 -0.5100  0.3297 -0.6347
15267TIP3    H267217   1.656   0.409  14.858  0.1045 -0.6613  0.1108
15268TIP3   OH267218   3.515   5.279  11.280  0.2676 -0.0255  0.9331
15268TIP3    H167219   3.585   5.275  11.215  1.0116 -0.0640  1.7217
15268TIP3    H267220   3.560   5.278  11.364 -0.7796 -2.9614  1.5143
15269TIP3   OH267221   4.426   0.878   2.907  0.1636 -0.0771 -0.1706
15269TIP3    H167222   4.362   0.806   2.909  0.6704 -0.5194  0.7158
15269TIP3    H267223   4.489   0.851   2.841 -0.2224  0.0590 -0.5974
15270TIP3   OH267224   3.934   4.143  11.940  0.7029  0.1883 -0.1779
15270TIP3    H167225   3.947   4.136  11.846  2.2203  1.6995 -0.0896
15270TIP3    H267226   4.020   4.127  11.978  0.2277  0.1921  0.9168
15271TIP3   OH267227   3.239   5.817  12.042  0.0908 -0.2733 -0.2503
15271TIP3    H167228   3.251   5.732  12.000  0.9325 -0.1898 -0.1804
15271TIP3    H267229   3.263   5.803  12.133 -0.5141 -0.1451 -0.0707
15272TIP3   OH267230   2.883   4.210  17.141  0.7369 -0.3779 -0.1365
15272TIP3    H167231   2.954   4.216  17.205  0.2066 -2.8993  0.7484
15272TIP3    H267232   2.918   4.154  17.072 -0.1306 -1.0874 -0.0125
15273TIP3   OH267233   4.639   5.197  11.673 -0.2653 -0.1804  0.2219
15273TIP3    H167234   4.630   5.219  11.580 -0.8663 -1.0477  0.0718
15273TIP3    H267235   4.700   5.124  11.674  2.5591  2.1046  0.8026
15274TIP3   OH267236   1.759   3.622   2.426 -0.3394 -0.4447  0.1812
15274TIP3    H167237   1.810   3.699   2.454  0.5411 -1.2286  0.7594
15274TIP3    H267238   1.819   3.549   2.437 -1.2218 -1.2346 -0.2576
15275TIP3   OH267239   1.714   0.224   3.936 -0.8768  0.1595  0.4120
15275TIP3    H167240   1.718   0.210   3.842  1.0898 -0.6286  0.5995
15275TIP3    H267241   1.774   0.297   3.953  0.7999 -1.3765  1.3377
15276TIP3   OH267242   0.693   3.497   1.350 -0.3846  0.3912  0.0587
15276TIP3    H167243   0.624   3.551   1.389 -1.1515  0.0973 -0.8716
15276TIP3    H267244   0.673   3.408   1.378  0.5053  0.4896  1.0492
15277TIP3   OH267245   0.589   0.696   2.409  0.0403 -0.0882  0.0656
15277TIP3    H167246   0.558   0.622   2.460 -1.7127  1.0338  0.6916
15277TIP3    H267247   0.616   0.658   2.325 -1.5968 -1.3316  0.0750
15278TIP3   OH267248   6.614   4.761  14.311  0.2769 -0.2989  0.3580
15278TIP3    H167249   6.572   4.716  14.239  0.0978  0.7297 -0.1953
15278TIP3    H267250   6.696   4.715  14.324 -0.1892 -1.1693  0.2238
15279TIP3   OH267251   2.805   3.327   4.986  0.0538  0.2368 -0.0892
15279TIP3    H167252   2.830   3.315   5.077  0.7045 -0.8251 -0.4064
15279TIP3    H267253   2.726   3.275   4.974  1.8620 -2.3692 -0.9923
15280TIP3   OH267254   5.690   0.038  12.482  0.0342  0.0559  0.2054
15280TIP3    H167255   5.650   0.008  12.564  1.5276 -0.7797  0.6546
15280TIP3    H267256   5.707   0.131  12.497 -2.9183  0.7361 -0.4947
15281TIP3   OH267257   1.618   1.467   5.955  0.3254 -0.0000  0.4133
15281TIP3    H167258   1.629   1.471   6.050  0.7038  0.7395  0.3418
15281TIP3    H267259   1.706   1.457   5.921  0.0662 -1.5992  0.1997
15282TIP3   OH267260   4.326   5.890   5.931  0.1962 -0.3595  0.5481
15282TIP3    H167261   4.287   5.976   5.946  0.5135  0.5228 -3.2477
15282TIP3    H267262   4.264   5.845   5.874  0.5636 -2.2633  1.6076
15283TIP3   OH267263   0.801   1.109  16.161 -0.1999 -0.3011  0.0248
15283TIP3    H167264   0.846   1.192  16.175 -0.1355  0.0190 -1.8797
15283TIP3    H267265   0.868   1.042  16.175 -0.1364 -0.0176  1.1032
15284TIP3   OH267266   1.392   2.209   5.503  0.0614 -0.4998 -0.3025
15284TIP3    H167267   1.391   2.304   5.494  0.0634 -0.4338  0.3570
15284TIP3    H267268   1.304   2.181   5.479 -0.2555 -0.2287  0.5331
15285TIP3   OH267269   2.015   4.810   2.320 -0.7977  0.2769  0.4646
15285TIP3    H167270   1.954   4.846   2.384 -1.6553  1.8923 -1.2295
15285TIP3    H267271   2.074   4.882   2.299 -1.2856  0.1345 -1.4678
15286TIP3   OH267272   0.674   1.934   2.089 -0.3958 -0.5128 -0.4868
15286TIP3    H167273   0.735   1.997   2.126  1.1748 -1.6655 -1.0679
15286TIP3    H267274   0.602   1.987   2.055 -0.4111  0.7519  1.4814
15287TIP3   OH267275   2.349   5.379  14.325 -0.6683 -0.1219  0.2996
15287TIP3    H167276   2.373   5.417  14.410 -1.9888  0.2937  0.4860
15287TIP3    H267277   2.260   5.346  14.337 -0.1609 -1.8088 -0.3537
15288TIP3   OH267278   1.970   4.113  13.057 -0.2640 -0.1356 -0.1616
15288TIP3    H167279   2.054   4.155  13.072  0.0576  0.5520 -3.4645
15288TIP3    H267280   1.909   4.158  13.116  1.0747  1.5538 -0.0313
15289TIP3   OH267281   3.947   3.510  11.794 -0.1680  0.3130 -0.0507
15289TIP3    H167282   3.902   3.579  11.844  0.4169  0.7403 -0.1098
15289TIP3    H267283   3.880   3.445  11.777 -0.1127 -0.4422  2.4032
15290TIP3   OH267284   0.812   2.461  15.934  0.4000  0.1122 -0.5343
15290TIP3    H167285   0.743   2.522  15.909  1.1787  1.2119 -0.0626
15290TIP3    H267286   0.884   2.480  15.874 -0.4867 -2.6123 -2.5560
15291TIP3   OH267287   6.428   2.478   0.370  0.3665 -0.1538 -0.2087
15291TIP3    H167288   6.421   2.398   0.317  0.6901 -0.4550  0.1944
15291TIP3    H267289   6.338   2.501   0.392  0.0852  1.1008 -2.5496
15292TIP3   OH267290   1.642   5.632   5.191  0.1081 -0.2115 -0.4425
15292TIP3    H167291   1.737   5.644   5.196 -0.0297  0.8141 -0.3813
15292TIP3    H267292   1.629   5.542   5.222  0.9591 -0.0302  0.4708
15293TIP3   OH267293   1.407   6.075   1.811  0.2417 -0.5160 -0.2325
15293TIP3    H167294   1.398   6.087   1.906 -0.6076 -0.4415 -0.3125
15293TIP3    H267295   1.318   6.053   1.782 -0.1747  2.4708 -1.4172
15294TIP3   OH267296   0.245   0.278  15.009 -0.4026  0.3826 -0.3980
15294TIP3    H167297   0.192   0.213  14.962 -0.6838  1.0344 -1.0016
15294TIP3    H267298   0.205   0.284  15.096 -1.8199  1.4213 -1.0897
15295TIP3   OH267299   5.369   3.356   5.401  0.3366 -0.3815 -0.0922
15295TIP3    H167300   5.437   3.383   5.339  1.3363 -2.4883  0.0324
15295TIP3    H267301   5.288   3.393   5.366  1.3945  1.3039 -0.7964
15296TIP3   OH267302   0.559   6.164  16.274 -0.3308  0.5479  0.3723
15296TIP3    H167303   0.510   6.198  16.199 -0.8814 -2.0277 -0.4966
15296TIP3    H267304   0.629   6.228  16.288  0.1514  0.8117 -2.7542
15297TIP3   OH267305   0.972   6.190  16.506  0.0978 -0.4669  0.0604
15297TIP3    H167306   0.886   6.150  16.519 -1.0352  1.5006 -1.1613
15297TIP3    H267307   0.993   6.227  16.592 -0.3657 -0.7796  0.3149
15298TIP3   OH267308   0.827   6.447  12.140 -0.1178  0.5311  0.1091
15298TIP3    H167309   0.775   6.450  12.060  0.6389  0.0997 -0.4034
15298TIP3    H267310   0.767   6.414  12.207 -0.3990 -0.3144 -0.5585
15299TIP3   OH267311   5.441   4.561   2.054 -0.0039  0.2865 -0.1781
15299TIP3    H167312   5.492   4.576   1.974  1.8086  1.8724  1.2448
15299TIP3    H267313   5.368   4.623   2.047  0.0789  0.3336 -0.6658
15300TIP3   OH267314   4.280   6.053   5.016 -0.4336 -0.1122 -0.2216
15300TIP3    H167315   4.263   5.994   4.943 -0.8721  0.7709 -0.8376
15300TIP3    H267316   4.354   6.014   5.062  0.7421  0.0626 -1.9327
15301TIP3   OH267317   1.573   3.515  16.584 -1.0238 -0.3727  0.3367
15301TIP3    H167318   1.610   3.523  16.672 -1.7882  0.8768  0.5535
15301TIP3    H267319   1.483   3.483  16.598 -0.7324 -1.3992 -0.0687
15302TIP3   OH267320   5.805   2.852  14.858 -0.0693 -0.3650 -0.2727
15302TIP3    H167321   5.842   2.885  14.776 -1.1604  3.3189  0.6030
15302TIP3    H267322   5.879   2.847  14.918  0.0975  0.8659 -0.3528
15303TIP3   OH267323   2.680   0.316  13.369 -0.5432  0.2582 -0.4007
15303TIP3    H167324   2.633   0.369  13.303  0.1145 -0.2497 -1.2871
15303TIP3    H267325   2.625   0.322  13.447 -0.7559  1.8271 -0.6405
15304TIP3   OH267326   1.431   6.242  12.415  0.0459 -0.4846 -0.7686
15304TIP3    H167327   1.436   6.337  12.430  1.4211 -0.7371  0.4771
15304TIP3    H267328   1.385   6.234  12.332  0.0557  1.2947 -0.9776
15305TIP3   OH267329   2.563   3.521  14.199 -0.3913  0.0008 -0.4317
15305TIP3    H167330   2.504   3.451  14.173 -0.9712 -0.0795  1.0493
15305TIP3    H267331   2.650   3.482  14.192 -0.6269 -0.4639 -0.8368
15306TIP3   OH267332   3.638   5.669   5.203 -0.0058  0.0491 -0.0008
15306TIP3    H167333   3.612   5.608   5.133 -1.1231  2.3502 -1.6281
15306TIP3    H267334   3.732   5.682   5.189  0.0126 -0.4265 -0.3301
15307TIP3   OH267335   1.213   0.069   5.440 -0.0483 -0.0231  0.3920
15307TIP3    H167336   1.187   0.046   5.529 -1.6103  1.9629  0.4791
15307TIP3    H267337   1.136   0.112   5.403  1.2211  0.8552 -1.3094
15308TIP3   OH267338   1.769   0.560   5.827  0.1847  0.5605  0.2508
15308TIP3    H167339   1.766   0.559   5.923  0.8704  0.5563  0.2762
15308TIP3    H267340   1.862   0.550   5.806 -0.0987 -0.7922 -0.4301
15309TIP3   OH267341   2.238   3.287  13.740  0.2116 -0.2226 -0.0836
15309TIP3    H167342   2.148   3.265  13.717  0.1810  0.6439 -0.8164
15309TIP3    H267343   2.231   3.331  13.824 -0.0493 -0.2145 -0.1086
15310TIP3   OH267344   5.188   4.028  15.077  0.4646  0.0342  0.3184
15310TIP3    H167345   5.281   4.049  15.063  0.3916  0.5129  0.5379
15310TIP3    H267346   5.157   4.097  15.136  0.0744 -0.3657  0.5809
15311TIP3   OH267347   5.424   2.979  16.414  0.0443 -0.7738  0.1387
15311TIP3    H167348   5.370   2.966  16.337  1.2140 -2.0703 -0.4867
15311TIP3    H267349   5.475   3.057  16.395 -2.0556  0.8543  1.0159
15312TIP3   OH267350   6.017   1.588   3.274 -0.0627 -0.2449  0.5602
15312TIP3    H167351   6.016   1.663   3.333  1.0777  0.8263 -0.7505
15312TIP3    H267352   6.109   1.581   3.246 -0.3775 -1.4397 -0.1941
15313TIP3   OH267353   6.713   4.679   2.982 -0.2688  0.2036 -0.3450
15313TIP3    H167354   6.762   4.731   3.047 -0.2990 -2.0434  1.5264
15313TIP3    H267355   6.626   4.671   3.020  0.0112 -2.0308 -0.1490
15314TIP3   OH267356   4.127   5.731   2.892 -0.3680  0.1306  0.4914
15314TIP3    H167357   4.153   5.695   2.807 -0.0670  0.3570  0.4866
15314TIP3    H267358   4.094   5.819   2.872  1.0599  0.7505  0.7701
15315TIP3   OH267359   0.713   4.654  13.885  0.4671 -0.4248  0.4576
15315TIP3    H167360   0.762   4.719  13.836 -0.5346 -0.8081 -1.1031
15315TIP3    H267361   0.621   4.682  13.877  0.0233 -2.0010 -0.2383
15316TIP3   OH267362   5.202   3.686   3.494 -0.5135 -0.3080  0.2176
15316TIP3    H167363   5.288   3.653   3.521 -0.8561 -0.9534  0.5201
15316TIP3    H267364   5.150   3.608   3.477 -0.2929  0.0702 -2.4589
15317TIP3   OH267365   4.916   0.654  16.721 -0.1289  0.4174 -0.4183
15317TIP3    H167366   4.945   0.639  16.811  3.2915 -1.3937 -1.7470
15317TIP3    H267367   4.934   0.746  16.705 -1.2799  0.8822  0.9270
15318TIP3   OH267368   2.585   4.105   2.679  0.7034  0.0167  0.0974
15318TIP3    H167369   2.508   4.051   2.695  0.9876 -0.1271  1.0804
15318TIP3    H267370   2.657   4.043   2.672  0.7977  0.1750 -0.3351
15319TIP3   OH267371   3.347   1.894  15.940  0.5910 -0.1844 -0.2698
15319TIP3    H167372   3.438   1.912  15.915  0.8061  0.1357  0.7500
15319TIP3    H267373   3.346   1.901  16.035 -0.7906  1.1200 -0.3752
15320TIP3   OH267374   2.891   0.692  15.214  0.2763  0.2623 -0.2883
15320TIP3    H167375   2.951   0.636  15.263  0.0530 -1.6510 -2.1127
15320TIP3    H267376   2.877   0.645  15.131 -1.5651  2.0158 -1.0133
15321TIP3   OH267377   2.634   0.861  12.382  0.5501  0.0890  0.5210
15321TIP3    H167378   2.576   0.814  12.322 -0.5503  2.8742 -0.6595
15321TIP3    H267379   2.580   0.878  12.459  0.6192  0.3755  0.5062
15322TIP3   OH267380   4.865   0.340   3.425 -0.0176  0.0053  0.7116
15322TIP3    H167381   4.960   0.340   3.437 -0.0713 -0.3601  1.1950
15322TIP3    H267382   4.842   0.432   3.413  0.4006  0.0938  0.5848
15323TIP3   OH267383   3.083   2.052  11.102 -0.3506  0.1753 -0.1407
15323TIP3    H167384   3.126   2.102  11.032  1.2698 -0.2831  0.4944
15323TIP3    H267385   3.100   1.960  11.080 -0.4785  0.0105  0.4399
15324TIP3   OH267386   1.960   6.062   0.091 -0.0898 -0.2984  0.0948
15324TIP3    H167387   1.992   5.972   0.082 -1.0794 -1.0820  3.5542
15324TIP3    H267388   1.872   6.053   0.127 -1.3831  2.0379 -2.2985
15325TIP3   OH267389   3.193   5.675   0.946  0.3924 -0.2378  0.3132
15325TIP3    H167390   3.225   5.605   1.002  1.9505 -0.8190 -1.2572
15325TIP3    H267391   3.216   5.648   0.857 -2.0433  0.6390 -0.6419
15326TIP3   OH267392   5.755   0.119  16.284  0.2759  0.2555 -0.2809
15326TIP3    H167393   5.680   0.103  16.342 -1.5088 -1.7529 -3.0175
15326TIP3    H267394   5.717   0.125  16.197  3.1956  0.3305 -1.5973
15327TIP3   OH267395   3.936   6.116  11.328  0.4793  0.3375 -0.4118
15327TIP3    H167396   3.916   6.058  11.255  3.2317 -2.7587  1.1327
15327TIP3    H267397   3.973   6.194  11.287 -2.7699  0.8632 -2.5137
15328TIP3   OH267398   5.479   0.778  11.418  0.0545 -0.6450 -0.0196
15328TIP3    H167399   5.405   0.718  11.427  0.5497 -1.1577  0.6415
15328TIP3    H267400   5.553   0.730  11.453  0.5746  0.1281 -0.0567
15329TIP3   OH267401   4.001   2.472   5.346 -0.2715  0.2791 -0.1140
15329TIP3    H167402   4.054   2.402   5.385  1.4338  2.4797  1.6019
15329TIP3    H267403   4.006   2.454   5.252  0.3357 -1.7675  0.2707
15330TIP3   OH267404   2.759   2.564  15.710 -0.6036  0.3565  0.2601
15330TIP3    H167405   2.845   2.606  15.720  0.3725 -1.3551 -0.6798
15330TIP3    H267406   2.747   2.516  15.792  0.5505 -1.4969 -0.6139
15331TIP3   OH267407   0.580   3.290   3.331  0.2777 -0.1621 -0.2423
15331TIP3    H167408   0.562   3.379   3.362 -1.1087 -0.8048  0.8630
15331TIP3    H267409   0.588   3.238   3.410  2.4176 -0.8083 -0.8489
15332TIP3   OH267410   3.411   4.694   0.033  0.5178  0.1365  0.1803
15332TIP3    H167411   3.318   4.709   0.019 -0.0826 -1.7833  1.8775
15332TIP3    H267412   3.455   4.762  -0.018 -1.7835  0.5694 -1.2617
15333TIP3   OH267413   6.081   6.509  12.001 -0.2216  0.4062 -0.0412
15333TIP3    H167414   5.990   6.528  11.977 -0.0779  2.1084  0.6848
15333TIP3    H267415   6.129   6.586  11.973  1.1714 -0.8961 -1.2919
15334TIP3   OH267416   4.636   6.526  16.451  0.3819  0.3377 -0.0013
15334TIP3    H167417   4.602   6.615  16.459  1.6966  0.9496 -1.0746
15334TIP3    H267418   4.562   6.475  16.417  0.2177  1.4351 -1.3280
15335TIP3   OH267419   2.083   2.228  13.987 -0.2521 -0.2635  0.1426
15335TIP3    H167420   2.053   2.314  13.957 -0.2282 -0.3053 -0.0015
15335TIP3    H267421   2.161   2.247  14.038 -0.5981 -0.1439  0.6233
15336TIP3   OH267422   0.768   2.043   5.666 -0.0750  0.4792 -1.2069
15336TIP3    H167423   0.841   2.104   5.668  0.4754 -0.1817 -1.0296
15336TIP3    H267424   0.774   1.994   5.748 -0.4933  0.1593 -1.3611
15337TIP3   OH267425   0.853   5.943  11.121  0.5328 -0.2768 -0.2590
15337TIP3    H167426   0.863   5.899  11.205  0.6699  1.8434  0.8646
15337TIP3    H267427   0.923   5.906  11.066  0.7762 -1.2774  0.6994
15338TIP3   OH267428   6.410   6.701  13.871 -0.2831 -0.0202  0.7625
15338TIP3    H167429   6.496   6.715  13.832 -0.2758 -1.9671  0.0135
15338TIP3    H267430   6.356   6.773  13.838  0.4621 -0.0694 -0.5773
15339TIP3   OH267431   6.673   5.326   1.432 -0.1387 -0.4621 -0.1330
15339TIP3    H167432   6.693   5.392   1.366 -0.6388 -0.0499  0.1177
15339TIP3    H267433   6.584   5.298   1.412 -1.0224  1.0694  1.5118
15340TIP3   OH267434   1.583   3.436  12.982 -0.4986 -0.0132  0.1498
15340TIP3    H167435   1.621   3.511  13.028 -1.5012 -0.3901  1.5876
15340TIP3    H267436   1.581   3.464  12.890  1.6925  0.6502  0.2751
15341TIP3   OH267437   0.194   0.401  10.800  0.1746 -0.7386  0.1277
15341TIP3    H167438   0.243   0.466  10.751 -1.3410  1.1734  1.0898
15341TIP3    H267439   0.238   0.397  10.885 -0.3113 -0.2371  0.4080
15342TIP3   OH267440   4.419   6.352   3.200  0.6031  0.3525  0.1760
15342TIP3    H167441   4.323   6.342   3.196  0.6131  0.4926 -0.5152
15342TIP3    H267442   4.452   6.263   3.185  0.5723  0.1972  1.0158
15343TIP3   OH267443   3.154   3.753   0.452  0.1087 -0.2560 -0.6975
15343TIP3    H167444   3.131   3.664   0.478 -0.9426  0.5355  1.1826
15343TIP3    H267445   3.103   3.769   0.372 -3.8960  0.4624  1.8271
15344TIP3   OH267446   4.556   3.036  13.930 -0.2491 -0.6695 -0.1184
15344TIP3    H167447   4.482   3.016  13.988 -0.4431 -1.0498 -0.4922
15344TIP3    H267448   4.589   2.950  13.904 -0.0820 -0.4997 -0.4668
15345TIP3   OH267449   6.195   4.354  13.285 -0.2945  0.3558  0.9655
15345TIP3    H167450   6.284   4.374  13.257 -0.1612 -0.5676  0.7281
15345TIP3    H267451   6.183   4.406  13.365  0.3128  0.7797  0.7826
15346TIP3   OH267452   6.574   5.336  16.247 -0.2489 -0.0792 -0.4619
15346TIP3    H167453   6.548   5.283  16.172  0.6997  0.5224 -1.2221
15346TIP3    H267454   6.635   5.401  16.211 -0.1930  0.5417  0.7281
15347TIP3   OH267455   6.462   4.066  16.388  0.8443 -0.3308 -0.2353
15347TIP3    H167456   6.546   4.052  16.431  1.4894  1.7218 -0.7966
15347TIP3    H267457   6.484   4.106  16.304 -0.7276  0.8394 -0.1021
15348TIP3   OH267458   1.515   1.112   0.970  0.2399  0.3233 -0.3950
15348TIP3    H167459   1.484   1.123   0.880  0.8089  1.1708 -0.4845
15348TIP3    H267460   1.588   1.173   0.979  3.1106 -2.9013 -0.7527
15349TIP3   OH267461   3.334   1.456   6.001 -0.1588 -0.1158 -0.4006
15349TIP3    H167462   3.287   1.384   5.957 -1.3661  0.4666 -0.0918
15349TIP3    H267463   3.286   1.469   6.082 -0.5292  1.6722 -0.8805
15350TIP3   OH267464   6.154   5.542   1.578 -0.5913 -0.7405  0.2291
15350TIP3    H167465   6.120   5.630   1.592  0.0440 -0.4806  0.1509
15350TIP3    H267466   6.246   5.555   1.555 -0.4116 -1.4406  0.5297
15351TIP3   OH267467   4.879   3.525  12.410 -0.2852  0.6988 -0.9900
15351TIP3    H167468   4.828   3.459  12.364  1.8181 -1.5272 -0.2588
15351TIP3    H267469   4.845   3.523  12.500  0.5779 -0.2909 -0.6714
15352TIP3   OH267470   3.020   3.885   5.600  0.1029  0.2544  0.0990
15352TIP3    H167471   2.934   3.917   5.625  1.1672  2.2234  1.3381
15352TIP3    H267472   3.063   3.863   5.682  0.5234 -1.4701 -0.5566
15353TIP3   OH267473   6.265   3.502  11.672  0.1994  0.0711 -0.6206
15353TIP3    H167474   6.188   3.553  11.697  0.1791 -0.1458 -0.2366
15353TIP3    H267475   6.339   3.551  11.707  0.1807 -0.1498 -0.2658
15354TIP3   OH267476   0.967   2.939  11.611  0.0622 -0.0433 -0.0009
15354TIP3    H167477   0.953   2.847  11.633 -1.4343 -0.3203 -1.9941
15354TIP3    H267478   0.904   2.987  11.665  0.3221 -0.2406  0.4804
15355TIP3   OH267479   0.630   6.525   3.741 -0.2286 -0.3495 -0.6047
15355TIP3    H167480   0.547   6.547   3.698  0.7797  0.8569 -1.9889
15355TIP3    H267481   0.649   6.436   3.712 -0.2307 -0.0277 -1.6235
15356TIP3   OH267482   0.226   6.369   4.756  0.1199 -0.0992  0.4109
15356TIP3    H167483   0.258   6.356   4.845 -1.2735  0.1914  0.9692
15356TIP3    H267484   0.135   6.339   4.759 -0.8384  2.6456 -0.1952
15357TIP3   OH267485   6.387   1.153  10.918  0.2862  0.2848 -0.1056
15357TIP3    H167486   6.416   1.140  10.827  1.6773 -1.6349  0.5624
15357TIP3    H267487   6.416   1.241  10.940 -0.7414  1.0667 -1.7570
15358TIP3   OH267488   4.000   2.443   1.037  0.3811  0.1717  0.2188
15358TIP3    H167489   3.995   2.476   0.948 -1.5666 -0.6054  0.0134
15358TIP3    H267490   3.980   2.519   1.092  1.3362  0.5909 -0.0045
15359TIP3   OH267491   6.042   3.329  12.756 -0.5835 -0.0540  0.0761
15359TIP3    H167492   6.100   3.401  12.734  1.3082 -1.7219 -0.5916
15359TIP3    H267493   6.008   3.299  12.671 -1.8161  0.4094  0.3956
15360TIP3   OH267494   6.589   3.012   4.437 -0.0282  0.1248 -0.0051
15360TIP3    H167495   6.572   2.922   4.463 -1.8074  0.3329 -0.4220
15360TIP3    H267496   6.505   3.046   4.407  0.6675  1.8407 -0.1236
15361TIP3   OH267497   5.686   6.691   5.692 -0.6797  0.0720  0.4401
15361TIP3    H167498   5.738   6.670   5.615  0.7524 -1.1275  1.7004
15361TIP3    H267499   5.673   6.607   5.736 -1.6958  0.7008  1.3770
15362TIP3   OH267500   6.403   6.755   2.031  0.1561 -0.3143 -0.5855
15362TIP3    H167501   6.364   6.762   2.118  1.9307 -0.7270  0.2629
15362TIP3    H267502   6.329   6.763   1.971 -1.2039 -0.8833  0.9801
15363TIP3   OH267503   3.586   0.054   1.877 -0.6854 -0.3984  0.6693
15363TIP3    H167504   3.676   0.035   1.904 -0.6172  0.5723  1.1494
15363TIP3    H267505   3.587   0.147   1.855 -1.3178 -0.6317 -0.3734
15364TIP3   OH267506   6.668   0.461  16.079 -0.1719 -0.4043 -0.1917
15364TIP3    H167507   6.573   0.475  16.085 -0.2106  0.2709 -1.9612
15364TIP3    H267508   6.687   0.466  15.985  1.6908 -0.0423  0.1778
15365TIP3   OH267509   1.372   3.002  11.631  0.2671 -0.2255  0.1073
15365TIP3    H167510   1.358   2.941  11.704  0.9063 -2.5462 -1.6556
15365TIP3    H267511   1.462   2.987  11.603  1.4418  3.6328  1.4465
15366TIP3   OH267512   0.050   5.945   1.740 -0.1846 -0.2304 -0.1457
15366TIP3    H167513  -0.021   5.885   1.717 -0.8756  1.1477 -1.7641
15366TIP3    H267514   0.006   6.024   1.770  0.6987 -0.0961  0.8318
15367TIP3   OH267515   2.524   4.879   0.362 -0.0360  0.0407  0.5010
15367TIP3    H167516   2.475   4.855   0.441  0.8708 -3.8328 -0.0247
15367TIP3    H267517   2.603   4.825   0.365  0.5123  0.5869 -2.5285
15368TIP3   OH267518   2.991   6.030  11.893  0.7110 -0.3164  0.2184
15368TIP3    H167519   3.036   5.960  11.846  1.7815 -0.4051  1.3615
15368TIP3    H267520   3.041   6.109  11.872  1.1085 -0.3338  1.0775
15369TIP3   OH267521   6.098   6.549  11.476 -0.3782 -0.0542  0.0074
15369TIP3    H167522   6.088   6.482  11.544  0.6807 -0.5520 -0.3156
15369TIP3    H267523   6.127   6.500  11.399 -2.1502  0.4259 -0.9974
15370TIP3   OH267524   5.505   0.789  16.715  0.2291 -0.3620  0.3754
15370TIP3    H167525   5.538   0.784  16.625  0.3382  0.3666  0.3660
15370TIP3    H267526   5.437   0.856  16.712  1.1748  0.6539  1.1017
15371TIP3   OH267527   4.933   3.049  11.264 -0.3682  0.1744  0.3910
15371TIP3    H167528   4.997   3.117  11.245  0.0845 -0.0257  1.2107
15371TIP3    H267529   4.979   2.987  11.321 -0.8491 -0.6902 -0.1433
15372TIP3   OH267530   3.842   2.927  14.169  0.2229 -0.2192 -0.1754
15372TIP3    H167531   3.748   2.919  14.155  0.4819 -1.4269 -1.3361
15372TIP3    H267532   3.859   3.021  14.170 -0.6856 -0.0320 -2.0816
15373TIP3   OH267533   6.049   5.282   2.320  0.1205  0.3516 -0.1276
15373TIP3    H167534   5.994   5.311   2.247  0.0176 -0.0811 -0.2254
15373TIP3    H267535   6.014   5.196   2.344  1.7511 -0.6783 -1.2770
15374TIP3   OH267536   2.636   1.570  15.867  0.3840  0.0185  0.0562
15374TIP3    H167537   2.657   1.659  15.896  0.3171 -0.8008  2.8453
15374TIP3    H267538   2.555   1.548  15.914  0.7444 -1.7306 -0.1115
15375TIP3   OH267539   6.785   2.262  17.146 -0.0203 -0.1957  0.1839
15375TIP3    H167540   6.706   2.234  17.193 -0.7106 -0.5232 -1.1268
15375TIP3    H267541   6.765   2.352  17.119  0.2940 -0.0742  0.3625
15376TIP3   OH267542   0.318   3.091  15.790  1.3958 -0.2854 -0.1105
15376TIP3    H167543   0.381   3.099  15.861  0.5597  0.1303  0.5956
15376TIP3    H267544   0.301   2.997  15.782  2.4785 -0.4425 -0.6477
15377TIP3   OH267545   0.534   1.859  10.833  0.0260  0.0592 -0.1600
15377TIP3    H167546   0.617   1.813  10.819 -0.0048  0.6190 -2.4580
15377TIP3    H267547   0.487   1.848  10.751 -0.7808  2.5425 -0.0808
15378TIP3   OH267548   3.483   3.316   0.741  0.1073 -0.1350 -0.4380
15378TIP3    H167549   3.444   3.259   0.675 -3.1717  0.5294  0.8394
15378TIP3    H267550   3.506   3.257   0.813  1.5083 -0.5234 -1.1815
15379TIP3   OH267551   3.367   5.337   3.572  0.5290 -0.1271  0.1448
15379TIP3    H167552   3.315   5.268   3.531  0.9285 -0.2570 -0.1530
15379TIP3    H267553   3.412   5.380   3.499  1.9652 -0.9562  0.5226
15380TIP3   OH267554   0.540   3.289   3.861  0.5727 -1.2825  0.5206
15380TIP3    H167555   0.586   3.222   3.912  2.4131  1.8174  3.1070
15380TIP3    H267556   0.610   3.335   3.815 -0.4781  0.1948  0.3909
15381TIP3   OH267557   4.997   0.411   4.345  0.1513  0.0351  0.0494
15381TIP3    H167558   4.960   0.356   4.415  1.0803 -3.1464 -1.8337
15381TIP3    H267559   5.085   0.432   4.376 -0.5491  1.3374  1.2215
15382TIP3   OH267560   3.636   1.300  13.205  0.4114 -0.5368  0.4833
15382TIP3    H167561   3.617   1.393  13.215  3.3311 -0.1028  2.7001
15382TIP3    H267562   3.564   1.267  13.151  0.4972  3.4064 -2.2939
15383TIP3   OH267563   3.849   0.930  14.003 -0.1732 -0.3144  0.2622
15383TIP3    H167564   3.791   0.873  14.053 -1.7657 -0.7711 -2.0685
15383TIP3    H267565   3.808   1.016  14.007 -0.3456 -0.3664 -0.2954
15384TIP3   OH267566   6.282   4.497  12.426  0.1647 -0.3077  0.2216
15384TIP3    H167567   6.361   4.534  12.386  1.3337 -2.5309  0.3517
15384TIP3    H267568   6.224   4.478  12.352  0.4611 -0.2409 -0.0284
15385TIP3   OH267569   3.794   3.682   1.424 -0.2810 -0.0820  0.0157
15385TIP3    H167570   3.782   3.587   1.420  1.5406 -0.3081 -0.2197
15385TIP3    H267571   3.828   3.706   1.338 -1.8790  0.9764 -0.3620
15386TIP3   OH267572   0.794   0.365   5.622  0.0897  0.0755  0.6198
15386TIP3    H167573   0.722   0.355   5.560 -0.3524  2.5534  0.7062
15386TIP3    H267574   0.780   0.296   5.686 -2.2649  0.6049  0.6989
15387TIP3   OH267575   2.135   3.626   2.912 -0.0591 -0.4357 -0.2119
15387TIP3    H167576   2.174   3.707   2.881 -1.3295  0.6042  0.8675
15387TIP3    H267577   2.200   3.591   2.974 -0.0293  0.3759  0.2258
15388TIP3   OH267578   3.292   4.516  14.407  0.1184  0.0026 -0.2067
15388TIP3    H167579   3.199   4.522  14.431  0.2754 -1.8256  0.9847
15388TIP3    H267580   3.306   4.422  14.392  2.4495 -0.1165  2.3984
15389TIP3   OH267581   2.986   1.762  11.995  0.1478 -0.4389  0.1775
15389TIP3    H167582   3.078   1.733  11.994  0.0054 -0.9817  1.8322
15389TIP3    H267583   2.944   1.706  12.060 -1.8339 -1.5362 -1.9962
15390TIP3   OH267584   4.180   2.023  15.198  0.4231 -0.1014  0.1131
15390TIP3    H167585   4.092   2.036  15.161  0.1695 -0.1165  0.7153
15390TIP3    H267586   4.209   1.940  15.159 -0.7539 -1.2902  1.6889
15391TIP3   OH267587   3.257   0.483   5.708  0.1582  1.0429 -0.0898
15391TIP3    H167588   3.342   0.508   5.672  0.3000  1.5821  0.6185
15391TIP3    H267589   3.254   0.525   5.794  0.1466 -0.8671  0.8723
15392TIP3   OH267590   5.297   0.181  17.221 -0.1387  0.5106 -0.9102
15392TIP3    H167591   5.264   0.138  17.142 -0.2003  1.6425 -1.5143
15392TIP3    H267592   5.341   0.112  17.270 -0.7238 -0.3558 -1.5928
15393TIP3   OH267593   6.335   2.744  15.711  0.0997 -0.0992 -0.0684
15393TIP3    H167594   6.402   2.747  15.642 -1.2838  0.7604 -1.4202
15393TIP3    H267595   6.315   2.651  15.720 -0.9068 -0.1038 -2.0590
15394TIP3   OH267596   4.659   0.592  16.275  0.8372 -0.7406 -0.2949
15394TIP3    H167597   4.680   0.550  16.358  3.4038  4.1876  1.7291
15394TIP3    H267598   4.589   0.653  16.296  0.9467 -0.0252 -1.9460
15395TIP3   OH267599   0.867   5.310   5.885  0.1979 -0.9951 -0.7942
15395TIP3    H167600   0.868   5.393   5.837  1.7339 -0.5524 -0.0234
15395TIP3    H267601   0.951   5.269   5.863  0.5274 -1.1954  0.8064
15396TIP3   OH267602   6.609   0.230  15.754  0.3524 -0.0277 -0.2338
15396TIP3    H167603   6.680   0.179  15.792 -0.1230 -0.6534 -0.1790
15396TIP3    H267604   6.637   0.321  15.763  0.4272 -0.1958  1.2413
15397TIP3   OH267605   1.720   3.568  16.797  0.0161  0.7324 -0.1855
15397TIP3    H167606   1.794   3.626  16.815  0.9770 -0.9126  1.4875
15397TIP3    H267607   1.652   3.596  16.859  0.1589  0.6640  0.0036
15398TIP3   OH267608   6.556   6.101   3.244 -0.2150 -0.6159  0.8885
15398TIP3    H167609   6.551   6.098   3.149  0.5095 -0.3758  0.8399
15398TIP3    H267610   6.479   6.052   3.274 -0.4382 -0.6986  0.1835
15399TIP3   OH267611   2.380   4.367  15.511 -0.3301  0.0624  0.1973
15399TIP3    H167612   2.418   4.338  15.428  2.8254 -0.6029  1.8214
15399TIP3    H267613   2.325   4.294  15.539  0.0073 -0.4356 -0.4246
15400TIP3   OH267614   1.729   4.103  11.569 -0.1352 -0.3138  0.1432
15400TIP3    H167615   1.804   4.067  11.521  0.6821  1.5590 -0.0551
15400TIP3    H267616   1.752   4.091  11.661 -0.9344 -2.3793  0.0951
15401TIP3   OH267617   1.934   2.630   5.460 -0.0291  0.8620  0.2644
15401TIP3    H167618   1.952   2.724   5.469 -1.4329  1.2009 -0.2564
15401TIP3    H267619   1.965   2.592   5.542  2.9288  1.3748 -0.5695
15402TIP3   OH267620   2.633   3.911  12.215 -0.5086 -0.5556  0.1918
15402TIP3    H167621   2.613   3.878  12.127 -2.9032  4.2328 -1.2495
15402TIP3    H267622   2.567   3.871  12.271 -1.4051 -0.6721 -0.9196
15403TIP3   OH267623   1.409   6.290   3.745 -0.0210  0.1630  0.0568
15403TIP3    H167624   1.402   6.243   3.828  1.3079  1.5825  0.9994
15403TIP3    H267625   1.324   6.332   3.733 -0.2238 -0.0704  0.6966
15404TIP3   OH267626   1.053   6.553  11.401 -0.4926  0.3728  0.6998
15404TIP3    H167627   1.087   6.586  11.318 -2.7108  0.6308 -0.1243
15404TIP3    H267628   0.962   6.582  11.404 -0.4889  0.2721  3.1845
15405TIP3   OH267629   5.690   6.302  12.765  0.2143 -0.0952 -0.1948
15405TIP3    H167630   5.727   6.214  12.773 -0.4801 -0.4341 -0.7466
15405TIP3    H267631   5.615   6.292  12.707  0.5738  0.9964 -0.8579
15406TIP3   OH267632   3.738   5.959  16.017 -0.7125 -0.3227  0.4806
15406TIP3    H167633   3.650   5.922  16.021 -1.3913  1.2331  0.2106
15406TIP3    H267634   3.755   5.968  15.923 -1.0102  1.1210  0.5649
15407TIP3   OH267635   5.117   5.088  16.132  0.1942 -0.0166 -0.0682
15407TIP3    H167636   5.180   5.147  16.172  1.1226 -0.1082 -1.3885
15407TIP3    H267637   5.123   5.105  16.038 -1.7315 -0.0342 -0.2257
15408TIP3   OH267638   4.255   6.293  16.856 -0.1685 -0.1789  0.4126
15408TIP3    H167639   4.329   6.332  16.809 -0.4058  2.0207  1.8006
15408TIP3    H267640   4.200   6.256  16.787  0.2122  1.7086 -0.9491
15409TIP3   OH267641   2.479   0.231  12.896 -0.4518  0.3655 -0.4010
15409TIP3    H167642   2.539   0.157  12.890  0.0138  0.6825  0.2142
15409TIP3    H267643   2.402   0.196  12.940 -0.4244  0.1234 -0.5480
15410TIP3   OH267644   0.748   6.196  17.124 -0.7530 -0.1226  0.1057
15410TIP3    H167645   0.664   6.195  17.171 -0.2408 -0.2202  1.0492
15410TIP3    H267646   0.809   6.236  17.186 -0.0886 -0.1251 -0.5442
15411TIP3   OH267647   2.476   2.706   0.888  0.4367  0.6334  0.1113
15411TIP3    H167648   2.424   2.633   0.921  0.4821  1.9848  3.4059
15411TIP3    H267649   2.557   2.666   0.855 -0.5781 -0.9904 -0.4436
15412TIP3   OH267650   1.672   2.563  15.650 -0.1769  0.1051  0.2962
15412TIP3    H167651   1.672   2.621  15.727  1.0256  0.0303  0.3627
15412TIP3    H267652   1.739   2.600  15.592 -0.0498 -0.6832 -0.0660
15413TIP3   OH267653   2.828   6.691   1.508 -0.3129  0.5116  0.4152
15413TIP3    H167654   2.827   6.628   1.436  1.1832 -0.2425  1.0288
15413TIP3    H267655   2.774   6.650   1.576  1.6140 -0.7086  1.2677
15414TIP3   OH267656   6.619   1.355   4.916  0.7672  0.3519  0.0459
15414TIP3    H167657   6.533   1.374   4.953  0.3080 -3.2391  0.9835
15414TIP3    H267658   6.602   1.325   4.827  0.9225 -1.1978  0.5151
15415TIP3   OH267659   4.334   3.857  17.071 -0.0781 -0.2623 -0.0826
15415TIP3    H167660   4.288   3.777  17.097  0.6612 -0.1162  1.7842
15415TIP3    H267661   4.426   3.829  17.061 -0.1106 -0.0022 -1.1364
15416TIP3   OH267662   2.325   4.028  15.190  0.3130 -0.1026  0.3246
15416TIP3    H167663   2.277   4.110  15.195  0.0289 -0.2395 -0.1241
15416TIP3    H267664   2.257   3.961  15.179  0.6458 -0.2159 -1.1362
15417TIP3   OH267665   4.291   4.827   1.866 -0.0380  0.0134 -0.3706
15417TIP3    H167666   4.323   4.804   1.953 -2.1862  0.5690  0.6049
15417TIP3    H267667   4.337   4.767   1.807  0.4205 -1.3269  1.2976
15418TIP3   OH267668   1.425   5.547   3.432 -0.1399 -0.0289 -0.1574
15418TIP3    H167669   1.357   5.498   3.478  0.9860  1.1166  2.8780
15418TIP3    H267670   1.437   5.625   3.485  0.3880  2.0018 -3.1313
15419TIP3   OH267671   1.793   1.142  12.280 -0.6309  0.1275  0.7607
15419TIP3    H167672   1.753   1.149  12.194 -0.8726  0.9789  0.9279
15419TIP3    H267673   1.829   1.230  12.297  1.1942 -0.5892  0.6739
15420TIP3   OH267674   4.487   0.813   5.111 -0.3666 -0.3616  0.3836
15420TIP3    H167675   4.541   0.734   5.122  0.6504  0.3407  0.4817
15420TIP3    H267676   4.397   0.781   5.117  0.0128 -1.6753 -0.5651
15421TIP3   OH267677   5.351   4.548  16.029 -0.4564  0.2151  0.6150
15421TIP3    H167678   5.407   4.607  16.080 -1.0579  2.6050 -1.4022
15421TIP3    H267679   5.273   4.600  16.010 -1.5422 -1.6686 -0.1967
15422TIP3   OH267680   0.890   3.068  13.525  0.1612  0.1388  0.0946
15422TIP3    H167681   0.899   2.972  13.532 -0.9906 -0.0433 -0.9704
15422TIP3    H267682   0.880   3.085  13.432  0.4622  1.3203  0.2726
15423TIP3   OH267683   4.808   0.941  11.795  0.5400 -0.0216  0.0972
15423TIP3    H167684   4.785   0.852  11.772 -0.9598  0.4650 -0.3718
15423TIP3    H267685   4.793   0.946  11.890  0.0683 -0.1125  0.0280
15424TIP3   OH267686   3.470   6.717  14.200 -0.2682  0.1823 -0.0019
15424TIP3    H167687   3.530   6.691  14.130 -0.8956 -2.0273  0.2397
15424TIP3    H267688   3.396   6.758  14.155  1.3762  2.9465 -0.3058
15425TIP3   OH267689   2.049   1.259  12.897  0.1816 -0.1306  0.2959
15425TIP3    H167690   1.971   1.249  12.952 -0.4720  0.1209 -0.5820
15425TIP3    H267691   2.122   1.236  12.955 -0.6969 -2.4064  0.5495
15426TIP3   OH267692   2.202   4.392  11.087 -0.4068  0.5409 -0.0551
15426TIP3    H167693   2.205   4.374  11.181 -0.6104  0.8097  0.0058
15426TIP3    H267694   2.113   4.423  11.072 -0.3663  0.5200 -0.3310
15427TIP3   OH267695   0.675   1.590  12.786 -0.5085  0.2116 -0.0335
15427TIP3    H167696   0.651   1.678  12.760 -1.3879 -0.7036 -2.4759
15427TIP3    H267697   0.594   1.551  12.818 -0.0739  0.3468  1.2622
15428TIP3   OH267698   3.929   0.191  14.367 -0.1695  0.7219 -0.0785
15428TIP3    H167699   3.902   0.268  14.416  0.6603  0.0643  1.4459
15428TIP3    H267700   3.990   0.225  14.301 -0.3675  1.4565  0.1083
15429TIP3   OH267701   2.215   3.991   5.839  0.1242  0.0740  0.0957
15429TIP3    H167702   2.205   3.922   5.905 -1.0042 -1.0031 -1.1559
15429TIP3    H267703   2.287   4.046   5.871 -0.4306 -0.4116  2.2161
15430TIP3   OH267704   6.287   4.075   6.641 -0.1762  0.0046 -0.0303
15430TIP3    H167705   6.337   4.157   6.641  0.4374 -0.3639  0.9607
15430TIP3    H267706   6.203   4.098   6.680  0.8563 -0.3267  2.5067
15431TIP3   OH267707   1.227   5.785   2.602  0.3488  0.3601 -0.3035
15431TIP3    H167708   1.134   5.801   2.614  0.2980  1.1789 -1.7752
15431TIP3    H267709   1.232   5.695   2.568  0.0932  0.3395 -0.2834
15432TIP3   OH267710   1.561   2.942   2.289  0.3805  0.1478  0.0780
15432TIP3    H167711   1.490   3.006   2.282  1.0136  0.7817 -0.5256
15432TIP3    H267712   1.578   2.915   2.199  0.3439 -0.6300  0.2995
15433TIP3   OH267713   5.062   0.426   0.284 -0.2943 -0.4082 -0.0937
15433TIP3    H167714   4.967   0.436   0.294 -0.4802 -2.2800  0.1848
15433TIP3    H267715   5.098   0.468   0.362 -1.0444 -1.8757  1.0877
15434TIP3   OH267716   2.897   1.754   3.152 -0.0532 -0.1327 -0.5210
15434TIP3    H167717   2.888   1.840   3.192  0.9803 -0.0162 -0.5183
15434TIP3    H267718   2.958   1.767   3.079 -1.2846 -0.5090 -1.6431
15435TIP3   OH267719   1.018   3.652  13.588 -0.0374 -0.4548 -0.4110
15435TIP3    H167720   0.929   3.621  13.600 -0.5041  1.5519  1.7132
15435TIP3    H267721   1.009   3.739  13.549  0.9840 -0.4287 -0.6192
15436TIP3   OH267722   3.680   4.884   2.292  0.2728 -0.7145  0.1613
15436TIP3    H167723   3.660   4.958   2.235 -0.5330 -0.3950  0.8530
15436TIP3    H267724   3.659   4.807   2.239 -0.8786 -0.4141  0.1679
15437TIP3   OH267725   5.303   5.024   1.824 -0.0790  0.5901 -0.7361
15437TIP3    H167726   5.271   5.053   1.910 -0.3447 -0.9801 -0.2867
15437TIP3    H267727   5.312   5.105   1.773  0.7860  1.6271  0.9977
15438TIP3   OH267728   0.660   6.436  10.659  0.2285  0.1878  0.3662
15438TIP3    H167729   0.743   6.389  10.657  1.5270  2.3793  1.2667
15438TIP3    H267730   0.672   6.504  10.725 -3.0844 -0.8631  2.1701
15439TIP3   OH267731   3.823   3.939  15.410  0.1034 -0.2713 -0.1833
15439TIP3    H167732   3.812   3.932  15.505 -0.1561  0.0932 -0.1885
15439TIP3    H267733   3.773   4.017  15.385 -0.3049 -0.6884 -0.6981
15440TIP3   OH267734   4.766   2.637  14.888 -0.4159  0.0068  0.5333
15440TIP3    H167735   4.825   2.562  14.880  0.0851  0.4845 -0.3041
15440TIP3    H267736   4.778   2.686  14.807 -0.3459  1.2938  1.3141
15441TIP3   OH267737   1.011   4.695  15.826 -0.0590 -0.0852  0.0444
15441TIP3    H167738   1.075   4.757  15.862  1.0106 -1.2864  0.2388
15441TIP3    H267739   1.001   4.721  15.735  0.7547  0.0840 -0.0011
15442TIP3   OH267740   5.772   6.351   3.094  0.2517  0.2911 -0.0899
15442TIP3    H167741   5.706   6.405   3.050 -0.5645 -0.2770  0.4182
15442TIP3    H267742   5.787   6.277   3.036 -0.2860 -0.0813  0.2377
15443TIP3   OH267743   3.812   5.367  11.724 -0.5925  0.3056  0.1213
15443TIP3    H167744   3.891   5.321  11.752  0.5615  1.8164 -0.5367
15443TIP3    H267745   3.829   5.459  11.748  0.5619  1.7626 -5.4248
15444TIP3   OH267746   4.683   3.289   5.042  0.0806 -0.1235  0.6954
15444TIP3    H167747   4.649   3.379   5.045 -0.1587 -0.2034  0.3912
15444TIP3    H267748   4.606   3.234   5.053  0.0772 -0.3098 -0.2820
15445TIP3   OH267749   6.096   1.385   5.249 -0.4270 -0.2859 -0.1570
15445TIP3    H167750   6.130   1.471   5.273  1.4980 -1.1228  0.2486
15445TIP3    H267751   6.102   1.382   5.154 -1.8676  0.5618 -0.2830
15446TIP3   OH267752   5.220   6.153   1.999  0.1895  0.3415  0.4866
15446TIP3    H167753   5.251   6.242   1.977 -1.3348  0.9410  0.7140
15446TIP3    H267754   5.270   6.129   2.077  0.7555  0.9140  0.3092
15447TIP3   OH267755   2.983   2.638  11.847 -0.0055  0.2663 -0.0661
15447TIP3    H167756   3.003   2.629  11.754  0.9925 -1.5131  0.2973
15447TIP3    H267757   3.035   2.713  11.876 -0.1949  0.7183 -0.9059
15448TIP3   OH267758   3.638   3.001   6.419 -0.0201  0.1912 -0.0894
15448TIP3    H167759   3.691   2.961   6.488 -2.1576  1.0457  2.1420
15448TIP3    H267760   3.595   2.927   6.375  0.2512 -0.2893  0.4490
15449TIP3   OH267761   2.706   6.381  12.339  0.2941 -0.1840  0.4691
15449TIP3    H167762   2.640   6.323  12.376 -0.4692 -0.2348 -0.9391
15449TIP3    H267763   2.779   6.323  12.317 -0.4438 -0.6188 -0.8825
15450TIP3   OH267764   6.427   6.389   5.574 -0.4488  0.2805  0.5755
15450TIP3    H167765   6.401   6.479   5.556  0.1515 -0.1787 -2.8301
15450TIP3    H267766   6.522   6.391   5.577 -0.3878 -0.4424 -0.7172
15451TIP3   OH267767   5.543   2.859  14.532  0.7010 -0.5936  0.3124
15451TIP3    H167768   5.555   2.948  14.502  0.5324 -0.0024  1.9422
15451TIP3    H267769   5.514   2.868  14.623 -0.5208 -2.2677  0.1224
15452TIP3   OH267770   6.037   0.442   4.489 -0.1884 -0.2858  0.1877
15452TIP3    H167771   6.077   0.426   4.404 -2.2639  0.0071 -0.8782
15452TIP3    H267772   6.105   0.488   4.539  0.5087  1.0152 -1.8714
15453TIP3   OH267773   5.027   3.155   4.735  0.1123  0.3252  0.0132
15453TIP3    H167774   4.955   3.201   4.691  0.0468 -0.0149 -0.2370
15453TIP3    H267775   5.040   3.203   4.817  0.2969  1.0223 -0.4199
15454TIP3   OH267776   5.022   6.584   4.416  0.3663 -0.2205 -0.0270
15454TIP3    H167777   5.082   6.516   4.384  1.2540  0.4692  0.1459
15454TIP3    H267778   5.079   6.645   4.463 -0.3056  1.0523 -0.8611
15455TIP3   OH267779   1.443   3.637  11.760  0.5704 -0.4172 -0.0099
15455TIP3    H167780   1.466   3.635  11.667 -0.2330  1.8186 -0.2867
15455TIP3    H267781   1.525   3.661  11.803  0.2619  1.6054 -0.4606
15456TIP3   OH267782   3.640   5.177   4.808 -0.2961  0.5934  0.6233
15456TIP3    H167783   3.598   5.093   4.790 -0.2304  0.6828  0.0343
15456TIP3    H267784   3.586   5.241   4.760  2.0834  0.4139 -2.4421
15457TIP3   OH267785   1.504   5.897  13.865 -0.5335 -0.7839 -0.0223
15457TIP3    H167786   1.440   5.968  13.858 -1.5066 -1.6242  0.3267
15457TIP3    H267787   1.506   5.876  13.958 -0.8715 -1.7937 -0.2423
15458TIP3   OH267788   2.781   5.703   2.336 -0.3771 -0.0032  0.4406
15458TIP3    H167789   2.855   5.732   2.390 -0.4496  0.0227  0.5241
15458TIP3    H267790   2.706   5.753   2.367 -0.0558  1.3279 -0.8862
15459TIP3   OH267791   3.518   2.482   0.492 -0.0378 -0.0265  0.3560
15459TIP3    H167792   3.480   2.404   0.452 -1.9945  0.3061  1.5263
15459TIP3    H267793   3.588   2.509   0.432 -1.5328 -0.7567 -1.7283
15460TIP3   OH267794   3.067   6.005   5.040 -1.3768 -0.2542 -0.3817
15460TIP3    H167795   3.044   6.076   4.980 -1.1960 -0.1343 -0.3127
15460TIP3    H267796   3.058   5.925   4.988 -0.8222 -0.1192 -0.6910
15461TIP3   OH267797   3.029   6.168   3.691  0.9348 -0.1572  0.5296
15461TIP3    H167798   3.082   6.118   3.628  1.3841 -1.0636  1.6034
15461TIP3    H267799   2.981   6.231   3.638  2.5313  0.1681 -0.5384
15462TIP3   OH267800   3.476   5.340   4.678  0.1911 -0.1654 -0.4657
15462TIP3    H167801   3.548   5.401   4.663 -1.5673  1.7506 -1.2687
15462TIP3    H267802   3.420   5.383   4.743 -1.0074 -0.9465 -0.9592
15463TIP3   OH267803   1.834   4.470  16.911  0.2021 -0.3118  0.4748
15463TIP3    H167804   1.799   4.414  16.842 -0.6003 -1.3327  1.6682
15463TIP3    H267805   1.903   4.521  16.869 -0.6767 -0.4804 -1.1984
15464TIP3   OH267806   3.452   2.346   2.317  0.7707 -0.1294 -0.0780
15464TIP3    H167807   3.369   2.363   2.272  0.0697  0.5688  1.4400
15464TIP3    H267808   3.454   2.411   2.387  2.7852  0.0958 -0.3338
15465TIP3   OH267809   2.784   5.631   3.566 -0.8101 -0.5073 -0.2696
15465TIP3    H167810   2.868   5.589   3.547 -1.0510 -0.9803 -0.3086
15465TIP3    H267811   2.769   5.612   3.659 -0.8227 -0.3282 -0.2347
15466TIP3   OH267812   3.915   4.249  12.201  0.0613 -0.2173 -0.0289
15466TIP3    H167813   3.961   4.208  12.274 -0.0714  0.2505  0.3168
15466TIP3    H267814   3.934   4.192  12.126 -1.0670 -1.5345  0.6779
15467TIP3   OH267815   1.131   2.101   5.048  0.4652  0.1540  0.1481
15467TIP3    H167816   1.059   2.162   5.063  0.2275 -0.3660  1.1723
15467TIP3    H267817   1.122   2.036   5.117  0.7779 -0.9884 -0.8740
15468TIP3   OH267818   1.519   2.666  12.007  0.1002  0.5819 -0.0048
15468TIP3    H167819   1.471   2.594  12.048 -0.3617  1.6473  1.3706
15468TIP3    H267820   1.564   2.709  12.080  0.6475  1.4632 -0.8577
15469TIP3   OH267821   1.900   1.964  15.774 -0.2346 -0.5240  0.3235
15469TIP3    H167822   1.805   1.965  15.782 -0.6553 -2.6236 -3.1835
15469TIP3    H267823   1.920   2.039  15.719  0.3151  0.6358  2.0583
15470TIP3   OH267824   1.514   5.188   1.956  0.3272 -0.5531  0.4277
15470TIP3    H167825   1.521   5.283   1.943 -0.6667 -0.6854 -1.2754
15470TIP3    H267826   1.441   5.178   2.017  0.7131 -0.2017  0.9519
15471TIP3   OH267827   3.739   5.860   3.479 -0.2540  0.4545 -0.1660
15471TIP3    H167828   3.749   5.916   3.556  1.7902 -0.9477  0.6565
15471TIP3    H267829   3.756   5.918   3.404  1.5012  1.0247  0.6505
15472TIP3   OH267830   3.245   1.948   2.808 -0.4914 -0.3203  0.2429
15472TIP3    H167831   3.320   1.959   2.866 -0.0929 -1.9836  0.0821
15472TIP3    H267832   3.264   2.003   2.732  0.6991 -0.9409  0.0842
15473TIP3   OH267833   0.145   0.864  16.470  0.1837 -0.0322 -0.1853
15473TIP3    H167834   0.124   0.957  16.456 -0.2558 -0.0689  0.2061
15473TIP3    H267835   0.205   0.864  16.545  1.3862  0.0522 -1.1394
15474TIP3   OH267836   0.445   4.818   4.489 -0.1154  0.0008  0.3047
15474TIP3    H167837   0.425   4.726   4.508  0.8217 -0.7289 -2.1255
15474TIP3    H267838   0.513   4.841   4.553  0.2103 -1.2200  0.4179
15475TIP3   OH267839   2.275   6.570  15.919  0.3543  0.5592  0.3851
15475TIP3    H167840   2.322   6.522  15.988  2.1757  2.0804  0.2732
15475TIP3    H267841   2.244   6.650  15.963 -2.7631 -0.7309  0.6085
15476TIP3   OH267842   1.673   2.413  16.159 -0.7859 -0.9243 -0.1823
15476TIP3    H167843   1.732   2.485  16.183  0.3828 -2.0905  0.4798
15476TIP3    H267844   1.605   2.455  16.106  1.2015  0.2797 -1.8451
15477TIP3   OH267845   0.599   5.772   2.132 -0.9700  0.1624 -0.2812
15477TIP3    H167846   0.632   5.829   2.202  1.1889  0.8335 -1.7870
15477TIP3    H267847   0.609   5.824   2.052  0.8265 -2.1843 -1.6498
15478TIP3   OH267848   4.142   1.213   1.836 -0.3200  0.5539 -0.3917
15478TIP3    H167849   4.150   1.255   1.922  0.4611 -0.3549 -0.0182
15478TIP3    H267850   4.079   1.142   1.851  1.2963 -0.8368 -0.0940
15479TIP3   OH267851   0.385   0.874   0.885 -0.7162 -0.3497 -0.0289
15479TIP3    H167852   0.315   0.926   0.924 -0.7086 -0.7757  0.5663
15479TIP3    H267853   0.339   0.811   0.829 -0.8145 -0.6566  0.3941
15480TIP3   OH267854   3.986   4.745  14.174  0.0929 -0.7932 -0.0843
15480TIP3    H167855   4.019   4.655  14.170  0.2652 -0.8508  1.8326
15480TIP3    H267856   3.912   4.740  14.236  1.7055  0.8226  2.0649
15481TIP3   OH267857   6.294   4.865  16.516  0.3005 -0.2612 -0.6135
15481TIP3    H167858   6.329   4.808  16.447  2.1194 -0.9640  0.8613
15481TIP3    H267859   6.200   4.869  16.498  0.4521 -2.0512 -1.9647
15482TIP3   OH267860   5.306   0.245   3.488  0.1348  0.7541  0.4206
15482TIP3    H167861   5.342   0.238   3.576  1.3156  1.0085 -0.0288
15482TIP3    H267862   5.372   0.206   3.431 -0.6862  0.4476 -0.3421
15483TIP3   OH267863   4.370   3.072   4.193 -0.0837  0.1847 -0.6929
15483TIP3    H167864   4.443   3.042   4.249  0.2161  1.2277 -0.5185
15483TIP3    H267865   4.407   3.145   4.143 -0.6964 -0.0010 -1.4205
15484TIP3   OH267866   3.700   5.392  17.025  0.0454  0.6938 -0.4285
15484TIP3    H167867   3.700   5.315  17.082  0.3886 -0.2652 -1.7069
15484TIP3    H267868   3.792   5.403  17.001 -0.2388  0.4990 -1.5959
15485TIP3   OH267869   6.761   3.292  15.445  0.6612 -0.4802  0.2806
15485TIP3    H167870   6.812   3.254  15.516 -0.0427 -0.0236  1.0460
15485TIP3    H267871   6.725   3.217  15.397  2.5748 -0.8111 -0.6649
15486TIP3   OH267872   6.026   4.149  15.680  0.8630  0.2696 -0.3183
15486TIP3    H167873   6.015   4.188  15.767  2.2685 -1.0010  0.4692
15486TIP3    H267874   6.076   4.214  15.630  0.2608  0.9020 -0.1012
15487TIP3   OH267875   2.868   3.141  14.127  0.1008  0.0088  0.5174
15487TIP3    H167876   2.862   3.059  14.175  0.3084  0.5459  1.4629
15487TIP3    H267877   2.834   3.207  14.187  0.6849  0.7358  0.0576
15488TIP3   OH267878   6.073   5.257  12.797 -0.5037 -0.1893 -0.3246
15488TIP3    H167879   6.120   5.188  12.749 -0.4602 -1.1157  1.0181
15488TIP3    H267880   6.092   5.238  12.889  0.0601  2.0247  0.0328
15489TIP3   OH267881   5.015   6.106   1.423  0.0846  0.0794  0.4417
15489TIP3    H167882   4.959   6.128   1.498 -1.6187  0.2273 -0.8522
15489TIP3    H267883   5.038   6.014   1.437  0.1309  0.2202  1.3602
15490TIP3   OH267884   5.672   2.769  16.579  0.6217  0.1982  0.7435
15490TIP3    H167885   5.601   2.796  16.637  0.5735  1.6082  0.0689
15490TIP3    H267886   5.707   2.690  16.618 -1.0536 -0.2796  1.3097
15491TIP3   OH267887   5.939   2.305   5.603  0.0373  0.8829 -0.1450
15491TIP3    H167888   6.012   2.320   5.542  0.7411 -0.5326  0.3188
15491TIP3    H267889   5.975   2.326   5.689  0.4279 -1.3775  0.2796
15492TIP3   OH267890   3.028   5.783  11.400 -0.3412  0.2226  0.0223
15492TIP3    H167891   3.119   5.755  11.392 -0.9012 -1.3165 -1.1528
15492TIP3    H267892   3.005   5.763  11.491  0.4247  0.3892  0.2545
15493TIP3   OH267893   4.266   1.558   2.820  0.4265  0.4517 -0.6504
15493TIP3    H167894   4.342   1.509   2.851  0.0594 -0.0923 -0.5791
15493TIP3    H267895   4.251   1.625   2.887  0.3408  0.0243 -0.2375
15494TIP3   OH267896   4.203   6.475   1.861  0.0365 -0.1080 -0.1354
15494TIP3    H167897   4.281   6.522   1.893  0.0851  1.3632 -2.2735
15494TIP3    H267898   4.235   6.387   1.842  1.3471  0.6253 -1.4910
15495TIP3   OH267899   4.118   5.347   6.054  0.3085 -0.2087 -0.3422
15495TIP3    H167900   4.168   5.266   6.041 -1.1513 -1.3804  1.0007
15495TIP3    H267901   4.168   5.396   6.119 -0.3266 -1.4431  1.1087
15496TIP3   OH267902   5.477   1.171   3.946  0.2462  0.3276  0.2334
15496TIP3    H167903   5.562   1.136   3.917 -1.2003 -1.3721 -2.1375
15496TIP3    H267904   5.415   1.101   3.927 -2.1083  2.5810 -0.6377
15497TIP3   OH267905   0.378   0.592   0.334 -0.4848 -0.0026  0.6749
15497TIP3    H167906   0.435   0.552   0.400 -1.1741 -1.0051  0.6662
15497TIP3    H267907   0.290   0.586   0.370 -0.6834  0.9284  0.3750
15498TIP3   OH267908   0.882   3.544   0.823 -0.4369 -0.4437  0.0092
15498TIP3    H167909   0.955   3.573   0.770 -0.5378 -1.0946 -0.4937
15498TIP3    H267910   0.922   3.511   0.904 -0.3469  1.3208  0.6940
15499TIP3   OH267911   6.310   6.742   2.317  0.2271  0.0789 -0.1081
15499TIP3    H167912   6.298   6.837   2.314  2.7603  0.4337 -0.0773
15499TIP3    H267913   6.302   6.719   2.409  1.2752  0.5257  0.1042
15500TIP3   OH267914   1.723   6.154   5.182 -0.0853 -0.1777 -0.6076
15500TIP3    H167915   1.727   6.058   5.181 -1.0039 -0.3137  2.9035
15500TIP3    H267916   1.748   6.179   5.271 -0.1359  2.8491 -1.3694
15501TIP3   OH267917   0.696   5.025   1.987  0.5111 -0.3279 -0.2085
15501TIP3    H167918   0.703   4.965   2.061  1.4966 -1.1233 -0.9312
15501TIP3    H267919   0.610   5.066   1.997  1.6058  1.4426  2.7789
15502TIP3   OH267920   4.604   4.189   6.149 -0.2391  0.0169  0.2781
15502TIP3    H167921   4.570   4.157   6.233 -0.6002  1.9377  0.8925
15502TIP3    H267922   4.693   4.218   6.168 -1.1491  2.7320  0.5951
15503TIP3   OH267923   3.785   5.847  13.266 -0.0969 -0.1057 -0.6747
15503TIP3    H167924   3.866   5.860  13.316 -0.7068  0.7792  0.0897
15503TIP3    H267925   3.754   5.761  13.292  0.5841 -0.4499 -0.9633
15504TIP3   OH267926   1.401   6.156   2.371 -0.0556  0.1116 -0.1896
15504TIP3    H167927   1.362   6.069   2.375 -1.2918  0.7347  2.0162
15504TIP3    H267928   1.351   6.201   2.302 -1.4364  0.0131  0.7271
15505TIP3   OH267929   6.688   5.852   6.553 -0.0801 -0.3687  0.0843
15505TIP3    H167930   6.697   5.947   6.556 -2.4585 -0.1587  2.6030
15505TIP3    H267931   6.594   5.837   6.538  0.0659 -2.2994  0.9575
15506TIP3   OH267932   4.111   3.384   2.413  0.4995  0.3382 -0.1089
15506TIP3    H167933   4.081   3.452   2.352  1.9030  1.1445  0.0934
15506TIP3    H267934   4.039   3.321   2.416 -1.2574  2.3042  0.4332
15507TIP3   OH267935   1.534   5.357  12.568  1.0415  0.5996  0.0718
15507TIP3    H167936   1.531   5.452  12.564 -0.6666  0.5599 -0.1082
15507TIP3    H267937   1.595   5.331  12.499  1.0185  1.5331 -0.2992
15508TIP3   OH267938   2.659   0.963   4.086  0.3837  0.1915 -0.2141
15508TIP3    H167939   2.726   0.998   4.145 -0.2571 -1.8059  1.7387
15508TIP3    H267940   2.700   0.886   4.047  0.1651  0.5111 -1.1017
15509TIP3   OH267941   6.313   1.838  15.440 -0.2684  0.0108  0.2330
15509TIP3    H167942   6.356   1.757  15.469  0.5311  0.3746  0.0729
15509TIP3    H267943   6.330   1.901  15.510  1.3152  0.7730 -0.8252
15510TIP3   OH267944   5.252   4.731   2.073  0.2826 -0.9417  0.0390
15510TIP3    H167945   5.204   4.715   2.154  0.5057 -1.4163  0.0764
15510TIP3    H267946   5.244   4.826   2.058 -0.2966 -0.9581  0.2718
15511TIP3   OH267947   0.184   1.586   4.142  0.1290  0.0864  0.1691
15511TIP3    H167948   0.186   1.673   4.180 -0.6330  1.1747 -2.1832
15511TIP3    H267949   0.097   1.578   4.103 -0.4584 -2.4219  1.8487
15512TIP3   OH267950   5.781   3.400  14.798 -0.7148  0.1207  0.1770
15512TIP3    H167951   5.775   3.309  14.826 -0.9405 -0.2554 -1.0913
15512TIP3    H267952   5.822   3.445  14.873  1.9943 -1.5191 -0.2495
15513TIP3   OH267953   4.133   6.072  15.616 -0.2811  0.0082 -0.7591
15513TIP3    H167954   4.061   6.121  15.654 -1.1541 -0.4694 -1.7749
15513TIP3    H267955   4.145   6.109  15.529  0.4720 -0.1503 -0.7302
15514TIP3   OH267956   2.346   2.866  16.250  0.1074 -0.1307  0.0352
15514TIP3    H167957   2.252   2.884  16.255 -0.0380 -0.7919 -0.2371
15514TIP3    H267958   2.369   2.879  16.158  0.5039  1.0832  0.2994
15515TIP3   OH267959   0.956   4.599   0.207 -0.3681  0.4437 -0.1767
15515TIP3    H167960   1.022   4.615   0.274 -0.3411  0.1755 -0.1375
15515TIP3    H267961   0.873   4.609   0.253 -0.3525  0.5006 -0.1604
15516TIP3   OH267962   2.698   6.758  14.492 -0.3730 -0.4617 -0.1462
15516TIP3    H167963   2.748   6.803  14.560  0.9249 -0.7810 -0.8723
15516TIP3    H267964   2.658   6.684  14.537  1.7390 -1.5771 -0.0167
15517TIP3   OH267965   5.562   5.034   0.534 -0.4919 -0.2180  0.4048
15517TIP3    H167966   5.606   5.119   0.529 -0.7716 -0.1241 -0.5707
15517TIP3    H267967   5.553   5.017   0.628 -2.0480  1.6632  0.6266
15518TIP3   OH267968   1.090   3.381   4.071  0.3999  0.3023  0.4272
15518TIP3    H167969   1.086   3.423   3.985  1.6836  0.8859  0.6496
15518TIP3    H267970   1.045   3.442   4.130  0.4619  0.4011  0.3714
15519TIP3   OH267971   3.374   4.847   1.223 -0.5917 -0.3243 -0.2503
15519TIP3    H167972   3.332   4.791   1.288 -1.6615  0.0256 -0.6145
15519TIP3    H267973   3.454   4.877   1.264 -0.9310 -0.6430  0.6505
15520TIP3   OH267974   2.284   4.326   0.772 -0.3316 -1.2940 -0.6027
15520TIP3    H167975   2.302   4.299   0.862 -0.0688  1.4213  0.2239
15520TIP3    H267976   2.190   4.339   0.769  0.0338  2.0276  0.3635
15521TIP3   OH267977   5.040   3.747   1.368 -0.0724 -0.3213  0.0364
15521TIP3    H167978   5.108   3.681   1.383 -0.4722 -0.8299 -0.3841
15521TIP3    H267979   5.075   3.801   1.297 -0.0533 -0.5056 -0.0939
15522TIP3   OH267980   0.541   0.795  15.789  0.4631 -0.9982 -0.0933
15522TIP3    H167981   0.537   0.732  15.717 -1.5454  1.0361 -1.8401
15522TIP3    H267982   0.453   0.832  15.793  1.3505  1.0089  1.5229
15523TIP3   OH267983   2.797   6.501   2.259 -0.1740  0.4301  0.1080
15523TIP3    H167984   2.878   6.553   2.260  0.5153 -0.5980 -1.2323
15523TIP3    H267985   2.820   6.421   2.212 -1.3494 -0.9077  1.7440
15524TIP3   OH267986   4.558   1.225  12.534 -0.2621  0.1170  0.3244
15524TIP3    H167987   4.599   1.150  12.578 -0.2343 -0.0192  0.0672
15524TIP3    H267988   4.474   1.192  12.503 -0.0732  0.0792 -0.1434
15525TIP3   OH267989   6.570   6.121   4.884  0.0936 -0.1732 -0.4790
15525TIP3    H167990   6.608   6.079   4.807  0.6953  1.5471 -1.1298
15525TIP3    H267991   6.637   6.182   4.913 -0.8756  0.5155  0.3306
15526TIP3   OH267992   3.304   5.950   3.957  0.0327 -0.2088  0.1193
15526TIP3    H167993   3.385   5.944   4.008 -0.1792 -0.7985  0.3929
15526TIP3    H267994   3.243   5.891   4.002 -0.1488 -0.7566 -0.8380
15527TIP3   OH267995   4.497   6.354  16.716  0.7285  0.0659 -0.1796
15527TIP3    H167996   4.566   6.417  16.736  2.1363 -1.2735 -0.7212
15527TIP3    H267997   4.495   6.350  16.621  0.9485 -1.0399 -0.1387
15528TIP3   OH267998   5.209   2.612  13.193  0.5597  0.5086 -0.0351
15528TIP3    H167999   5.117   2.591  13.178  0.2629  0.9527  1.1001
15528TIP3    H268000   5.240   2.542  13.251  0.2827  1.7034  1.5749
15529TIP3   OH268001   5.063   4.050   2.251 -0.1466 -0.5472 -0.2490
15529TIP3    H168002   4.994   3.985   2.235 -2.4771  1.7760 -0.1097
15529TIP3    H268003   5.141   4.013   2.211 -1.2833 -3.6453  0.2707
15530TIP3   OH268004   3.021   5.016  10.559 -0.1116 -0.3374 -0.2831
15530TIP3    H168005   2.998   5.078  10.490  0.7861  1.0893  0.6777
15530TIP3    H268006   3.092   4.963  10.522 -0.9500 -0.8761 -1.1385
15531TIP3   OH268007   2.094   1.802   5.899 -0.1754 -0.4844  0.4600
15531TIP3    H168008   2.101   1.897   5.896 -1.3515 -0.4346 -1.9499
15531TIP3    H268009   2.184   1.770   5.897  0.2224  0.5517  1.3151
15532TIP3   OH268010   1.350   1.375   2.196 -0.1069  0.1254  0.8034
15532TIP3    H168011   1.358   1.285   2.225 -0.4201 -0.4546 -0.8832
15532TIP3    H268012   1.272   1.377   2.141  0.5807  1.1512 -0.1713
15533TIP3   OH268013   6.448   5.225  10.933 -0.3769 -0.2859 -0.2065
15533TIP3    H168014   6.463   5.246  10.841  0.0222 -0.6909 -0.2317
15533TIP3    H268015   6.414   5.135  10.932  1.3424 -0.9474  0.1737
15534TIP3   OH268016   4.581   0.572  14.300 -0.3588 -0.1822 -0.3713
15534TIP3    H168017   4.514   0.504  14.306 -1.3905  0.8834  0.5881
15534TIP3    H268018   4.539   0.643  14.252  1.1534 -0.7145 -2.5398
15535TIP3   OH268019   2.007   0.947  11.690 -0.0989  0.8178  0.4816
15535TIP3    H168020   2.059   1.027  11.699  0.8521  0.3935 -0.9979
15535TIP3    H268021   2.070   0.877  11.709 -0.5239  0.3565  0.1785
15536TIP3   OH268022   5.578   4.027   6.283  0.2627 -0.2934 -0.3336
15536TIP3    H168023   5.638   4.029   6.208  1.6123 -0.1451  0.7404
15536TIP3    H268024   5.549   3.936   6.289 -2.1110  0.2329 -2.7871
15537TIP3   OH268025   1.292   4.033  15.730  0.2946 -0.4350  0.6064
15537TIP3    H168026   1.238   4.112  15.736 -1.1574 -1.2239 -1.6952
15537TIP3    H268027   1.369   4.061  15.681 -1.2473 -0.9195 -2.1911
15538TIP3   OH268028   1.616   4.703  12.474 -0.4471 -0.9353  0.1256
15538TIP3    H168029   1.641   4.668  12.388 -1.3936 -0.4641 -0.3532
15538TIP3    H268030   1.521   4.699  12.474 -0.4326 -1.3107  1.3255
15539TIP3   OH268031   2.735   4.372  11.211 -0.2438  0.1303  0.2934
15539TIP3    H168032   2.672   4.387  11.281 -0.6972 -0.0594 -0.0714
15539TIP3    H268033   2.728   4.278  11.192  1.8947 -0.4058  1.9213
15540TIP3   OH268034   0.434   4.134   1.281 -0.2368 -0.3118 -0.0529
15540TIP3    H168035   0.416   4.118   1.189  0.1064 -1.3131  0.0535
15540TIP3    H268036   0.529   4.137   1.287 -0.2668  1.7160 -0.0525
15541TIP3   OH268037   6.503   3.743   0.381  0.3747  0.4276 -0.2785
15541TIP3    H168038   6.426   3.781   0.422  1.3829  1.3145  0.8088
15541TIP3    H268039   6.486   3.749   0.287 -0.9575  0.4237 -0.0428
15542TIP3   OH268040   2.695   0.295   2.014 -0.6631 -0.1933 -1.1224
15542TIP3    H168041   2.694   0.231   2.085 -0.0129  1.6980  0.6575
15542TIP3    H268042   2.665   0.247   1.937 -0.8474 -2.4343  0.3130
15543TIP3   OH268043   6.028   2.285  12.028 -0.7430 -0.0911 -0.0304
15543TIP3    H168044   6.002   2.368  11.988  0.4431  0.3549  0.1046
15543TIP3    H268045   6.056   2.231  11.955  0.2392  0.2865  0.0568
15544TIP3   OH268046   6.110   2.464  11.553 -0.0289 -0.9205  0.3303
15544TIP3    H168047   6.045   2.438  11.619  0.9323 -1.7325  0.9638
15544TIP3    H268048   6.186   2.409  11.571  0.3507 -0.9478 -1.2840
15545TIP3   OH268049   1.282   6.683  14.190  0.3469 -0.7860  0.3500
15545TIP3    H168050   1.287   6.777  14.171 -1.2609 -1.0376 -1.4919
15545TIP3    H268051   1.372   6.653  14.185  0.7430  0.4473 -0.1768
15546TIP3   OH268052   5.815   5.197  15.314  0.4674  0.0303  0.6316
15546TIP3    H168053   5.737   5.156  15.278  0.2480 -0.1156  1.2618
15546TIP3    H268054   5.823   5.159  15.402  1.6504 -0.5006  0.3012
15547TIP3   OH268055   3.958   5.889   2.680  0.2559 -0.6338  0.3345
15547TIP3    H168056   3.917   5.934   2.607  0.4246 -0.7460  0.1707
15547TIP3    H268057   4.038   5.851   2.644  0.6665 -0.1532  0.7212
15548TIP3   OH268058   2.409   5.057  16.749 -0.8302  0.1364 -0.3167
15548TIP3    H168059   2.429   5.134  16.801 -0.0440  1.2328 -2.1997
15548TIP3    H268060   2.427   5.083  16.659  1.9883 -3.0245 -0.7827
15549TIP3   OH268061   2.852   4.579  12.222  0.1621  0.4319 -0.0422
15549TIP3    H168062   2.757   4.563  12.227  0.1193  0.1632 -1.5764
15549TIP3    H268063   2.869   4.596  12.129  1.0688  3.9424  0.6914
15550TIP3   OH268064   5.081   5.095  12.617  0.2035  0.1796 -0.1963
15550TIP3    H168065   5.009   5.053  12.571  0.0958 -0.3481  0.4632
15550TIP3    H268066   5.066   5.189  12.604  1.4168  0.0211 -3.1791
15551TIP3   OH268067   4.092   1.532   0.552 -0.0038 -0.1906  0.6314
15551TIP3    H168068   4.132   1.468   0.492  1.5628  1.3570 -0.0183
15551TIP3    H268069   4.029   1.579   0.498  0.7707  0.6029  0.4010
15552TIP3   OH268070   3.651   4.518   3.239  0.4711 -0.0052  0.1309
15552TIP3    H168071   3.692   4.442   3.281  0.8981 -0.4514 -1.0751
15552TIP3    H268072   3.647   4.584   3.308 -0.4106 -1.3056  1.3536
15553TIP3   OH268073   2.273   0.805  13.360 -0.6234 -0.3754  0.6982
15553TIP3    H168074   2.192   0.772  13.322 -1.1778  2.1892 -0.4532
15553TIP3    H268075   2.247   0.838  13.446 -0.4393 -1.1183  1.0485
15554TIP3   OH268076   2.259   4.089   6.548 -0.4941 -0.3087  0.4229
15554TIP3    H168077   2.341   4.047   6.573 -0.8422 -1.5473 -0.4461
15554TIP3    H268078   2.268   4.105   6.454 -0.2410  1.8855  0.7949
15555TIP3   OH268079   0.685   5.259  16.324  0.0405 -0.1990  0.1366
15555TIP3    H168080   0.646   5.252  16.237  0.3235 -0.4404  0.0270
15555TIP3    H268081   0.701   5.169  16.351  0.0963 -0.1179  0.3746
15556TIP3   OH268082   1.010   1.972  16.298  0.3020  0.5287  0.2719
15556TIP3    H168083   0.917   1.989  16.280  0.9452  1.5282 -2.3621
15556TIP3    H268084   1.024   2.005  16.387 -1.4352  2.0385  0.0154
15557TIP3   OH268085   6.543   3.416   1.140 -0.3690 -0.9023  0.1495
15557TIP3    H168086   6.538   3.491   1.082 -2.4869 -0.0675  1.3612
15557TIP3    H268087   6.557   3.341   1.082 -2.2265 -0.0544 -1.3986
15558TIP3   OH268088   0.343   6.134   5.295  0.4169 -0.2813  0.1671
15558TIP3    H168089   0.335   6.128   5.390 -0.4184  2.6814  0.3374
15558TIP3    H268090   0.257   6.110   5.262  0.1877  0.3820  0.2709
15559TIP3   OH268091   4.875   4.284  13.311 -0.1707 -0.3473  0.6079
15559TIP3    H168092   4.872   4.195  13.346 -0.6044 -0.9363 -0.9132
15559TIP3    H268093   4.862   4.274  13.217 -1.0522  1.3916  0.5167
15560TIP3   OH268094   3.459   5.090  16.384  0.1215  0.1355  0.5562
15560TIP3    H168095   3.501   5.011  16.418  1.3136  0.6257  0.2492
15560TIP3    H268096   3.440   5.143  16.461  0.5732  0.1517  0.6566
15561TIP3   OH268097   6.133   1.085  10.797 -0.3321 -0.0358  0.1010
15561TIP3    H168098   6.123   0.991  10.783  1.2854 -0.2064  0.0089
15561TIP3    H268099   6.220   1.095  10.835  0.1630  1.5449 -1.3455
15562TIP3   OH268100   4.461   2.192  14.301 -0.2775 -0.3004 -0.5167
15562TIP3    H168101   4.528   2.201  14.369 -1.4889 -0.8194  0.7629
15562TIP3    H268102   4.417   2.277  14.299 -0.0762 -0.2006 -0.8483
15563TIP3   OH268103   4.659   3.600   0.537  0.7432 -0.2702 -0.1100
15563TIP3    H168104   4.644   3.530   0.475 -1.0304 -0.2825  0.3124
15563TIP3    H268105   4.661   3.680   0.484 -4.0730  0.1242  0.0566
15564TIP3   OH268106   3.143   5.221   3.817 -0.3886 -0.1711  0.0283
15564TIP3    H168107   3.060   5.186   3.784 -0.3735  1.1549 -1.4938
15564TIP3    H268108   3.140   5.314   3.793  0.7522  0.2866  1.5693
15565TIP3   OH268109   1.092   0.428   1.182 -0.2738  0.3816  0.7039
15565TIP3    H168110   1.144   0.348   1.176 -0.1963  0.4423  0.5674
15565TIP3    H268111   1.147   0.496   1.143 -0.9808  0.1932 -0.6377
15566TIP3   OH268112   4.762   4.210   3.919  0.0868  0.4869  1.1424
15566TIP3    H168113   4.835   4.152   3.897 -1.0635 -0.9134  0.9314
15566TIP3    H268114   4.764   4.279   3.852 -0.7538 -1.3391 -0.8210
15567TIP3   OH268115   3.577   6.077   5.367 -0.2109  0.3830  0.1032
15567TIP3    H168116   3.517   6.034   5.427 -2.5240  1.6621 -1.2297
15567TIP3    H268117   3.524   6.141   5.321  2.0760  1.2217 -1.4796
15568TIP3   OH268118   0.076   1.378   4.775 -0.0090  0.0411 -0.1729
15568TIP3    H168119   0.136   1.312   4.810 -1.2371 -1.9544 -1.7152
15568TIP3    H268120  -0.000   1.373   4.833  1.5008  3.1017  2.2469
15569TIP3   OH268121   3.569   0.331   6.849  0.4688  0.0499 -0.1774
15569TIP3    H168122   3.653   0.343   6.892 -0.5869  0.9659  1.7187
15569TIP3    H268123   3.537   0.248   6.883  0.6274 -0.3328 -0.9503
15570TIP3   OH268124   2.289   1.926   0.440 -0.6486  0.1275 -0.2676
15570TIP3    H168125   2.384   1.936   0.443 -0.9512  2.8920  1.3705
15570TIP3    H268126   2.260   1.989   0.374 -1.3453 -0.9815 -1.0526
15571TIP3   OH268127   0.901   5.636  12.155 -0.6662 -0.2090  0.9073
15571TIP3    H168128   0.860   5.559  12.195 -0.2532 -0.9698 -0.1207
15571TIP3    H268129   0.985   5.644  12.200 -0.2650 -0.9787  0.3196
15572TIP3   OH268130   0.174   5.198  16.650 -0.2543  0.2272 -0.1523
15572TIP3    H168131   0.173   5.276  16.595  0.7951 -0.3247 -0.9933
15572TIP3    H268132   0.236   5.219  16.721  2.0110 -0.7183 -1.7744
15573TIP3   OH268133   0.204   5.081   5.972 -0.0573 -0.0627 -1.0248
15573TIP3    H168134   0.193   5.176   5.977  0.7845 -0.0690  2.3991
15573TIP3    H268135   0.177   5.049   6.058  1.2915 -2.7604 -1.5319
15574TIP3   OH268136   3.623   5.556   0.137  0.2146  0.1602  0.7255
15574TIP3    H168137   3.705   5.560   0.088 -0.1282 -5.5345 -0.7173
15574TIP3    H268138   3.556   5.584   0.075  0.6035  0.3706  0.3998
15575TIP3   OH268139   4.326   6.624  10.781  0.0530 -0.1633 -0.2804
15575TIP3    H168140   4.285   6.586  10.703  1.3637  0.3147 -1.2158
15575TIP3    H268141   4.350   6.548  10.834  0.5001 -0.5635 -1.0403
15576TIP3   OH268142   2.896   4.194  14.096 -0.1305  0.1299 -0.2424
15576TIP3    H168143   2.848   4.224  14.019 -0.7582 -0.0127  0.0975
15576TIP3    H268144   2.850   4.232  14.170  2.5952  3.3489 -0.0668
15577TIP3   OH268145   3.704   6.518  12.839 -0.0513  0.2043  0.0002
15577TIP3    H168146   3.752   6.601  12.847  0.3461 -0.0012 -0.2470
15577TIP3    H268147   3.658   6.525  12.755  1.1376 -0.4214 -0.7181
15578TIP3   OH268148   5.074   2.581   1.267 -0.0608  0.0968  0.2400
15578TIP3    H168149   4.988   2.538   1.272 -0.6474  1.1704 -0.4735
15578TIP3    H268150   5.131   2.525   1.319 -0.8734 -1.4137 -0.4381
15579TIP3   OH268151   2.516   4.342   5.292 -0.0012 -0.6267  0.3835
15579TIP3    H168152   2.470   4.285   5.231 -2.7969 -0.7857  2.4897
15579TIP3    H268153   2.462   4.421   5.295  0.7126 -0.1822  1.7611
15580TIP3   OH268154   3.391   2.792   2.940 -0.0280  0.0119  0.2075
15580TIP3    H168155   3.421   2.835   2.860  0.0050 -1.6841 -0.7162
15580TIP3    H268156   3.469   2.749   2.976 -0.1843  0.1995  0.7808
15581TIP3   OH268157   5.556   0.762   2.680 -0.1403 -0.6635  0.1968
15581TIP3    H168158   5.537   0.686   2.624  1.5762 -0.0990 -1.2091
15581TIP3    H268159   5.651   0.769   2.678 -0.3344  2.0826 -0.4577
15582TIP3   OH268160   5.761   5.715  11.404 -0.1027  0.2390  0.3758
15582TIP3    H168161   5.777   5.809  11.409 -1.5933  0.5065  0.5383
15582TIP3    H268162   5.700   5.698  11.477 -0.5737 -0.6684 -0.2291
15583TIP3   OH268163   5.445   3.810  12.457  0.2548  0.3497 -0.7340
15583TIP3    H168164   5.411   3.803  12.546  1.1786 -1.5923 -0.5004
15583TIP3    H268165   5.373   3.846  12.405 -0.1667  1.8238  0.8522
15584TIP3   OH268166   5.317   2.776  15.865  0.2823  0.0216  0.2842
15584TIP3    H168167   5.326   2.781  15.770  0.2648  1.6011  0.3634
15584TIP3    H268168   5.256   2.846  15.888 -0.1601 -0.7083  1.4046
15585TIP3   OH268169   3.374   2.005  16.323 -0.3329 -0.4290  0.1378
15585TIP3    H168170   3.432   1.977  16.253  0.7158  0.0313  0.8147
15585TIP3    H268171   3.424   2.070  16.371 -1.3467 -0.1531  0.8374
15586TIP3   OH268172   6.537   1.085   4.966 -0.0720 -0.2227  0.0115
15586TIP3    H168173   6.521   1.072   5.060  1.6457 -2.6533  0.0177
15586TIP3    H268174   6.592   1.163   4.962 -1.1177  0.5797  0.9191
15587TIP3   OH268175   5.796   3.567  15.097 -0.0669  0.5744 -0.3686
15587TIP3    H168176   5.724   3.591  15.156  0.2027  0.6664 -0.0773
15587TIP3    H268177   5.828   3.650  15.063 -0.7770  0.4714 -1.3054
15588TIP3   OH268178   0.387   5.278   5.484  0.1071 -0.4053 -0.3469
15588TIP3    H168179   0.310   5.249   5.533  0.1443  1.1733  0.6624
15588TIP3    H268180   0.452   5.298   5.551  0.9603 -0.4617 -1.1427
15589TIP3   OH268181   2.573   5.756  14.544  0.0466 -0.3874  0.2152
15589TIP3    H168182   2.650   5.793  14.502 -0.3271  0.1289 -0.0185
15589TIP3    H268183   2.503   5.765  14.479 -0.3693 -0.2433  0.6778
15590TIP3   OH268184   3.815   1.241   0.760 -0.1440  0.8570  0.4422
15590TIP3    H168185   3.765   1.301   0.705 -2.2550 -1.5160 -0.3254
15590TIP3    H268186   3.889   1.214   0.705 -0.4294  1.0327 -0.0299
15591TIP3   OH268187   5.716   3.772   3.150 -0.0243 -0.7667 -0.2206
15591TIP3    H168188   5.770   3.825   3.209  0.6453 -0.9755 -0.6390
15591TIP3    H268189   5.776   3.743   3.082 -0.5136 -1.6177 -0.2951
15592TIP3   OH268190   2.622   5.666   4.817  0.4597 -0.1403 -0.3117
15592TIP3    H168191   2.667   5.584   4.793 -1.0156 -0.8605 -0.6851
15592TIP3    H268192   2.538   5.637   4.853 -0.3708  1.2383 -1.1083
15593TIP3   OH268193   5.188   2.317   2.887 -0.2876 -0.5038 -0.1922
15593TIP3    H168194   5.213   2.251   2.951 -0.8993 -1.6969 -1.1512
15593TIP3    H268195   5.270   2.350   2.852  0.0347 -0.2427  0.7921
15594TIP3   OH268196   4.295   4.573   3.286 -0.0376  0.2871 -0.1032
15594TIP3    H168197   4.275   4.605   3.198  0.1661 -0.7947 -0.5588
15594TIP3    H268198   4.234   4.619   3.344 -0.1704  1.0064 -0.8086
15595TIP3   OH268199   4.958   4.101   2.955 -0.5742 -0.2624 -0.3311
15595TIP3    H168200   4.947   4.176   2.897 -0.8999 -0.7967 -0.9602
15595TIP3    H268201   5.016   4.133   3.024  0.0581  0.2911 -1.1072
15596TIP3   OH268202   1.836   4.370  11.920  0.4885 -0.5611 -0.1430
15596TIP3    H168203   1.876   4.433  11.980 -0.6344 -0.5921  0.6402
15596TIP3    H268204   1.810   4.423  11.844 -0.6992 -0.0252  0.6305
15597TIP3   OH268205   4.448   2.479   4.652  0.1060  0.2518 -0.0952
15597TIP3    H168206   4.492   2.563   4.642  1.9504 -0.6110  0.6419
15597TIP3    H268207   4.473   2.430   4.574 -1.0815  0.4151 -0.5915
15598TIP3   OH268208   1.012   0.138   2.571  0.2735 -0.7807 -0.1243
15598TIP3    H168209   1.014   0.181   2.656 -1.4996 -0.4606 -0.2289
15598TIP3    H268210   0.920   0.117   2.557  0.2593  0.8780 -2.8083
15599TIP3   OH268211   6.583   4.757   1.950  0.3907 -0.9082 -0.1462
15599TIP3    H168212   6.576   4.844   1.989 -1.6138 -0.4686 -1.3797
15599TIP3    H268213   6.528   4.702   2.004  1.1138 -1.2694  0.2268
15600TIP3   OH268214   0.361   4.249   3.938  0.5471  0.4564  0.5805
15600TIP3    H168215   0.347   4.158   3.912  1.1839  0.5619 -0.1676
15600TIP3    H268216   0.337   4.300   3.860  0.9439  0.8752  0.7284
15601TIP3   OH268217   5.658   1.487  11.517 -0.3170  0.2536  0.0199
15601TIP3    H168218   5.697   1.417  11.569  0.5598  1.2855  0.7965
15601TIP3    H268219   5.732   1.523  11.468 -1.0254 -0.2989 -1.4738
15602TIP3   OH268220   4.410   6.034   5.428  0.3478  0.1755  0.7615
15602TIP3    H168221   4.386   6.095   5.497 -2.1316 -0.7875  0.7918
15602TIP3    H268222   4.418   5.949   5.472  0.0084 -0.2195  0.0717
15603TIP3   OH268223   2.984   2.043   2.754 -0.5365 -0.0178 -0.4368
15603TIP3    H168224   2.962   2.116   2.812 -0.1692 -0.5613  0.3900
15603TIP3    H268225   3.075   2.022   2.776 -1.2908 -2.0562  0.7579
15604TIP3   OH268226   3.441   4.794  11.883  0.3773 -0.2577 -0.2577
15604TIP3    H168227   3.378   4.847  11.833 -0.9223 -0.5831  1.0074
15604TIP3    H268228   3.500   4.759  11.816 -0.6499  0.2303 -1.4583
15605TIP3   OH268229   1.134   1.867   6.074  0.5319  0.9295  0.3708
15605TIP3    H168230   1.137   1.819   5.992  0.4377  0.7520  0.4709
15605TIP3    H268231   1.055   1.921   6.067 -0.4019 -0.3185  1.0227
15606TIP3   OH268232   1.696   4.094   5.991  0.3800  0.0767  0.7716
15606TIP3    H168233   1.779   4.095   6.038  0.4804 -1.1590  0.6468
15606TIP3    H268234   1.630   4.088   6.060  0.5702 -2.7516  0.7545
15607TIP3   OH268235   2.454   2.515  12.519  0.0420  0.0609  0.3873
15607TIP3    H168236   2.501   2.564  12.451 -0.1373  0.3524  0.4709
15607TIP3    H268237   2.379   2.476  12.473 -1.6160  2.4821  0.9277
15608TIP3   OH268238   3.627   3.893  10.594 -0.7361 -0.6860  0.3401
15608TIP3    H168239   3.704   3.888  10.537 -1.6066 -1.3147 -0.8046
15608TIP3    H268240   3.596   3.803  10.601 -1.6744 -0.3699  0.3501
15609TIP3   OH268241   4.616   1.494  12.620 -0.2826  0.2667 -0.3453
15609TIP3    H168242   4.558   1.485  12.696  0.5400 -0.5833  0.2021
15609TIP3    H268243   4.623   1.405  12.585  1.6209  0.1245  0.3177
15610TIP3   OH268244   5.261   0.128   0.933  0.4509  0.0793  0.1066
15610TIP3    H168245   5.348   0.088   0.930  0.4472  0.1450 -0.9458
15610TIP3    H268246   5.278   0.222   0.937  0.4331  0.1048 -0.3525
15611TIP3   OH268247   4.840   6.245  13.651 -0.0702 -0.2083  0.0792
15611TIP3    H168248   4.901   6.177  13.678  1.1788  0.6979 -0.3980
15611TIP3    H268249   4.890   6.300  13.591 -1.7380 -0.1726 -1.3225
15612TIP3   OH268250   1.232   1.129  15.546 -0.0622 -0.7458 -0.2722
15612TIP3    H168251   1.309   1.148  15.493  0.2329 -0.3971  0.2728
15612TIP3    H268252   1.260   1.061  15.608  0.3587  0.6984  1.1576
15613TIP3   OH268253   4.055   3.680   4.906  0.0581 -0.4822 -0.0580
15613TIP3    H168254   3.995   3.719   4.969  1.1552  2.1789 -0.6057
15613TIP3    H268255   4.006   3.677   4.824 -1.0422 -3.0696  0.6441
15614TIP3   OH268256   5.789   6.444  15.392  0.5828 -0.4395 -0.1151
15614TIP3    H168257   5.772   6.471  15.482  1.2817  0.7209 -0.3114
15614TIP3    H268258   5.866   6.495  15.366  0.6063 -1.0317 -1.2464
15615TIP3   OH268259   4.838   5.444  11.837 -0.5977  0.5164  0.1589
15615TIP3    H168260   4.836   5.391  11.916  0.8842  2.4012  1.5107
15615TIP3    H268261   4.913   5.412  11.787 -1.5040 -0.6384 -0.4851
15616TIP3   OH268262   1.106   3.760   1.727  0.3877 -0.1966 -0.1541
15616TIP3    H168263   1.198   3.738   1.741  0.5006  1.2452  1.5500
15616TIP3    H268264   1.084   3.818   1.800 -1.9896 -0.8605 -0.2985
15617TIP3   OH268265   5.970   4.572   1.957 -0.2123  0.0983  0.5949
15617TIP3    H168266   5.924   4.651   1.981 -0.3279  0.5182 -0.9550
15617TIP3    H268267   5.921   4.501   1.999 -0.9604  0.7191  0.7684
15618TIP3   OH268268   1.267   5.950  14.153  0.2561  0.3802 -0.1455
15618TIP3    H168269   1.298   5.906  14.232 -1.0178 -1.1596 -0.4686
15618TIP3    H268270   1.201   6.012  14.185 -0.1853 -0.1690  0.0104
15619TIP3   OH268271   0.653   2.538  12.128  0.2609  0.0801  0.2149
15619TIP3    H168272   0.724   2.530  12.065  1.0513  1.7903  0.8463
15619TIP3    H268273   0.688   2.597  12.196 -1.2060 -0.2842  1.3130
15620TIP3   OH268274   3.200   5.265  12.481 -0.1152  0.6014 -0.4946
15620TIP3    H168275   3.119   5.304  12.450  0.8963  1.5166 -2.0279
15620TIP3    H268276   3.174   5.179  12.515 -1.6213  0.6225 -1.5757
15621TIP3   OH268277   2.353   1.714   1.827 -0.0968  0.0304  0.1653
15621TIP3    H168278   2.374   1.705   1.920 -0.0272  1.4247  0.3039
15621TIP3    H268279   2.437   1.709   1.783 -0.1507 -0.8469  0.1485
15622TIP3   OH268280   5.534   1.701   5.625 -0.2769 -0.4110 -0.4020
15622TIP3    H168281   5.596   1.747   5.683 -1.2189  0.9057 -0.4224
15622TIP3    H268282   5.507   1.624   5.676  0.1039 -0.1090  0.2706
15623TIP3   OH268283   1.338   6.044   2.115 -1.0306 -0.2807  0.2647
15623TIP3    H168284   1.255   6.008   2.084 -1.0456  0.2417 -0.3157
15623TIP3    H268285   1.377   5.974   2.167 -1.4083 -0.8632 -0.2277
15624TIP3   OH268286   1.711   1.110  12.659 -0.2160  0.0213 -0.3066
15624TIP3    H168287   1.707   1.072  12.571  2.3804 -2.0533  0.3922
15624TIP3    H268288   1.720   1.035  12.717 -0.6606  1.4374  1.6419
15625TIP3   OH268289   3.110   1.741   2.995  0.1302 -0.1693  0.0759
15625TIP3    H168290   3.139   1.747   3.086 -2.2338  0.0787  0.8426
15625TIP3    H268291   3.148   1.818   2.952 -1.6034  1.6249  1.6808
15626TIP3   OH268292   4.610   0.335   5.229  0.9615 -0.3885  0.4544
15626TIP3    H168293   4.593   0.390   5.306  0.8647 -1.1146  0.9642
15626TIP3    H268294   4.553   0.370   5.161  0.7331 -0.0031  0.8386
15627TIP3   OH268295   5.762   6.294  11.959 -0.9998  0.1494  0.2271
15627TIP3    H168296   5.739   6.261  11.872  1.9677  0.3763 -0.7035
15627TIP3    H268297   5.765   6.389  11.948  0.6324  0.1166  0.1942
15628TIP3   OH268298   0.918   5.493   3.113  0.1693  0.7724  0.0464
15628TIP3    H168299   0.975   5.510   3.038  1.0959  0.3548  0.6381
15628TIP3    H268300   0.856   5.566   3.114  0.5817  1.1381 -0.7165
15629TIP3   OH268301   0.985   1.761  11.195 -0.5159  0.2449  0.6300
15629TIP3    H168302   0.899   1.795  11.169  0.2717  2.4478  0.7960
15629TIP3    H268303   0.976   1.741  11.288 -0.2384  2.6458  1.2172
15630TIP3   OH268304   2.255   5.766  15.227  0.5148  0.3388 -0.5054
15630TIP3    H168305   2.221   5.812  15.305 -0.9567 -1.2297 -0.1947
15630TIP3    H268306   2.179   5.757  15.170  0.8326 -1.5425 -0.6426
15631TIP3   OH268307   0.941   2.097  17.239  0.3832  0.4985 -0.1171
15631TIP3    H168308   0.991   2.093  17.158 -0.7520  2.1328 -0.9215
15631TIP3    H268309   0.888   2.018  17.239 -0.9135  1.3468 -1.8518
15632TIP3   OH268310   3.863   4.806   0.794 -0.2421  0.2689  0.0069
15632TIP3    H168311   3.824   4.788   0.708 -0.5855 -0.0358  0.2260
15632TIP3    H268312   3.957   4.813   0.776 -0.4210  1.3558 -0.5796
15633TIP3   OH268313   6.676   6.180  15.534 -0.7564  0.6828 -0.5846
15633TIP3    H168314   6.582   6.188  15.551 -0.5569  0.5728  0.6046
15633TIP3    H268315   6.718   6.221  15.610  0.1569  0.7005 -1.0940
15634TIP3   OH268316   1.565   3.432   3.787  0.4346 -0.3221  0.7018
15634TIP3    H168317   1.569   3.399   3.877  0.4178 -1.6375  0.2365
15634TIP3    H268318   1.522   3.362   3.738 -1.0624  1.0775 -0.0289
15635TIP3   OH268319   1.030   2.838  15.860  0.3887  0.0215  0.6542
15635TIP3    H168320   1.122   2.819  15.879  0.1466 -1.7458  0.1803
15635TIP3    H268321   0.995   2.755  15.827 -1.6334  0.3816  1.8067
15636TIP3   OH268322   1.554   4.972   2.218 -0.2187 -0.1151 -0.5391
15636TIP3    H168323   1.635   4.954   2.171  0.5962 -0.4958  0.9695
15636TIP3    H268324   1.534   4.890   2.264 -1.5527 -0.0778 -1.0478
15637TIP3   OH268325   4.201   5.716  13.044  0.1783 -0.5354 -0.4240
15637TIP3    H168326   4.269   5.708  12.976  0.1500 -0.8753 -0.4155
15637TIP3    H268327   4.135   5.772  13.005  0.5944  0.0338 -0.3229
15638TIP3   OH268328   3.813   5.536   6.374 -0.1854  0.0544  0.3311
15638TIP3    H168329   3.801   5.441   6.382  0.7668  0.1241  3.1921
15638TIP3    H268330   3.833   5.565   6.463  0.7624  2.7779 -0.7229
15639TIP3   OH268331   4.357   4.536   5.414 -0.0265  0.1372 -0.2434
15639TIP3    H168332   4.430   4.544   5.477  0.0863  0.6925 -0.4402
15639TIP3    H268333   4.278   4.543   5.468  0.0563 -1.8798  0.1525
15640TIP3   OH268334   4.962   4.898  13.142  0.2756 -0.2493 -0.3566
15640TIP3    H168335   5.006   4.882  13.225 -1.6779  0.6850  0.9070
15640TIP3    H268336   4.969   4.993  13.129 -0.2676 -0.2653 -0.7870
15641TIP3   OH268337   4.933   5.637   3.648 -0.0878 -0.3787 -0.0652
15641TIP3    H168338   4.860   5.699   3.643  0.9331  0.7992 -0.9254
15641TIP3    H268339   4.939   5.601   3.559 -0.6091 -1.6474  0.4097
15642TIP3   OH268340   2.949   4.506  11.317 -0.1712 -0.1499  1.0101
15642TIP3    H168341   2.979   4.566  11.249 -0.7996  1.4059  2.0758
15642TIP3    H268342   2.873   4.462  11.278  1.6116 -1.8961 -0.5777
15643TIP3   OH268343   6.056   2.820  11.117 -0.2122  0.2392 -0.4391
15643TIP3    H168344   6.071   2.796  11.026 -0.3809  1.1106 -0.7016
15643TIP3    H268345   6.091   2.909  11.125  1.3830 -0.4761  0.7801
15644TIP3   OH268346   1.632   5.603  14.450  0.4309 -0.2083  0.3891
15644TIP3    H168347   1.677   5.520  14.465 -2.1958 -2.1442 -1.8252
15644TIP3    H268348   1.547   5.578  14.412 -0.4822  3.4858 -0.2455
15645TIP3   OH268349   0.373   3.372  13.616 -0.8645  0.0311 -0.8721
15645TIP3    H168350   0.332   3.294  13.652 -1.0285  0.6102  0.2124
15645TIP3    H268351   0.301   3.421  13.576 -0.9287  0.1561 -0.6003
15646TIP3   OH268352   4.922   6.179  15.936  0.1183  0.1246 -0.4402
15646TIP3    H168353   4.879   6.122  15.873 -0.4293  0.0709 -0.0162
15646TIP3    H268354   4.920   6.130  16.018  2.2819 -0.5043 -0.7359
15647TIP3   OH268355   2.046   3.339   1.359 -0.0703  0.6314 -0.2966
15647TIP3    H168356   1.987   3.369   1.290 -0.4391 -0.2194 -0.3692
15647TIP3    H268357   2.010   3.377   1.439 -0.4490  0.5035 -0.4038
15648TIP3   OH268358   1.122   3.700  12.125 -0.4510  0.3470  0.4680
15648TIP3    H168359   1.151   3.629  12.068  0.5100 -0.4762  1.9529
15648TIP3    H268360   1.027   3.691  12.130 -0.4564 -0.0584 -0.3497
15649TIP3   OH268361   6.498   0.620  11.092  0.2306  0.3913 -0.3834
15649TIP3    H168362   6.432   0.688  11.077 -0.0795  0.7735  2.5002
15649TIP3    H268363   6.581   0.666  11.080  0.0099  0.7006 -0.7735
15650TIP3   OH268364   0.311   4.144   2.974 -0.2392 -0.3688  0.1998
15650TIP3    H168365   0.337   4.226   3.017 -0.5952  0.8228 -1.8069
15650TIP3    H268366   0.393   4.097   2.959 -0.0305 -0.3672  1.3123
15651TIP3   OH268367   4.285   5.201   4.561  1.0148  0.2556 -0.6503
15651TIP3    H168368   4.281   5.156   4.477  0.0273  0.9673 -0.9947
15651TIP3    H268369   4.223   5.274   4.553 -0.0415 -0.4005  1.1141
15652TIP3   OH268370   5.546   0.056   0.985 -0.4315  0.5171  1.0629
15652TIP3    H168371   5.502   0.078   1.067 -2.6982 -2.1923  0.6781
15652TIP3    H268372   5.639   0.054   1.007 -0.8897  1.2625  3.1921
15653TIP3   OH268373   3.534   4.462  16.759 -0.5576  0.1430  0.1451
15653TIP3    H168374   3.475   4.494  16.691  0.3620  1.2913 -0.1286
15653TIP3    H268375   3.499   4.376  16.783 -1.9207  0.5040 -0.5070
15654TIP3   OH268376   5.241   1.057   3.870  0.1849  0.9711  0.6226
15654TIP3    H168377   5.163   1.025   3.916  0.1407 -0.2244 -0.2821
15654TIP3    H268378   5.244   1.007   3.789  1.0396  2.1062 -0.0636
15655TIP3   OH268379   3.032   1.635  17.233  0.1156 -0.8669 -0.0897
15655TIP3    H168380   3.124   1.638  17.258  1.0306  1.5533 -3.3893
15655TIP3    H268381   3.032   1.594  17.147 -1.8122 -0.2004 -0.4272
15656TIP3   OH268382   3.933   1.445  13.452  0.2658 -0.3517 -0.5546
15656TIP3    H168383   3.872   1.374  13.469  0.7430 -0.5835  0.2248
15656TIP3    H268384   4.003   1.432  13.516  1.1739 -0.1474 -1.4886
15657TIP3   OH268385   1.057   2.609  13.811  0.0324  0.1083  0.2961
15657TIP3    H168386   1.047   2.694  13.769 -0.6532 -0.5784 -0.9595
15657TIP3    H268387   0.973   2.566  13.798  1.3362 -1.9440 -1.7912
15658TIP3   OH268388   2.897   2.095   3.920 -0.1959  0.7455  0.4334
15658TIP3    H168389   2.859   2.009   3.935 -0.1880  0.6637 -0.0035
15658TIP3    H268390   2.830   2.157   3.950  0.4254  0.5767  2.2227
15659TIP3   OH268391   5.048   3.896   0.907  0.1902  0.3808  0.0125
15659TIP3    H168392   5.139   3.923   0.893  0.9736 -1.8228  0.7696
15659TIP3    H268393   5.038   3.817   0.855 -0.0456 -1.7428  3.1316
15660TIP3   OH268394   0.788   1.456  14.242 -0.0492 -0.0653 -0.3440
15660TIP3    H168395   0.782   1.392  14.314  1.4086 -0.5464 -0.6286
15660TIP3    H268396   0.705   1.503  14.245 -0.4483 -0.8187  0.9738
15661TIP3   OH268397   0.926   5.571  11.456  0.4637  0.4958 -0.0767
15661TIP3    H168398   0.963   5.591  11.542  1.0354  0.6529 -0.3579
15661TIP3    H268399   0.844   5.526  11.475  0.3756  0.9120  0.5539
15662TIP3   OH268400   1.448   6.782  16.641  0.0770 -0.1582  0.1007
15662TIP3    H168401   1.512   6.809  16.707  0.3774 -1.2871  0.2820
15662TIP3    H268402   1.415   6.698  16.673 -0.8352 -0.0182 -0.4601
15663TIP3   OH268403   3.298   2.202  15.882 -1.0140  0.2249  0.2008
15663TIP3    H168404   3.284   2.162  15.797  0.6817 -0.8275  0.3837
15663TIP3    H268405   3.221   2.178  15.934 -0.8714 -1.2640 -0.2627
15664TIP3   OH268406   3.276   5.153  17.116 -0.4761  0.0081  0.0436
15664TIP3    H168407   3.224   5.155  17.036  0.2304  1.0936 -0.3945
15664TIP3    H268408   3.356   5.106  17.093 -0.6707 -0.4951  0.3696
15665TIP3   OH268409   4.244   4.425  13.941  0.2019  0.2384 -0.0436
15665TIP3    H168410   4.260   4.519  13.935 -0.1292  0.3831  1.1911
15665TIP3    H268411   4.320   4.392  13.989  1.3342 -0.4338 -2.2472
15666TIP3   OH268412   6.396   5.872   1.880 -0.1705 -0.2330 -0.0432
15666TIP3    H168413   6.364   5.905   1.796 -0.7545 -0.6043  0.0342
15666TIP3    H268414   6.461   5.806   1.856 -0.8979 -0.9017 -0.2185
15667TIP3   OH268415   4.160   4.107   4.808  0.5976 -0.1971 -0.0967
15667TIP3    H168416   4.230   4.153   4.853 -1.3869  2.5532  0.3006
15667TIP3    H268417   4.182   4.113   4.715  0.3641  1.6085 -0.0520
15668TIP3   OH268418   2.235   4.876   1.472  0.2004  0.2508 -0.4952
15668TIP3    H168419   2.240   4.884   1.567  0.0404 -0.1941 -0.4452
15668TIP3    H268420   2.313   4.826   1.448 -0.0816 -0.1836 -0.5255
15669TIP3   OH268421   2.218   3.832   6.061  0.0080 -0.4455 -0.2255
15669TIP3    H168422   2.191   3.852   6.150  1.0723  1.1918 -0.2596
15669TIP3    H268423   2.255   3.743   6.067  1.7364  0.3515  1.3279
15670TIP3   OH268424   2.772   5.455  12.070 -0.0572  0.1412 -0.2917
15670TIP3    H168425   2.709   5.434  12.139  0.0131  0.3906 -0.1488
15670TIP3    H268426   2.718   5.480  11.995 -0.1998 -3.2696 -1.3809
15671TIP3   OH268427   3.991   3.368  10.943 -0.4041 -0.2263  0.3117
15671TIP3    H168428   3.913   3.319  10.918 -1.1539  0.9194  0.3794
15671TIP3    H268429   4.046   3.366  10.864 -1.4939  0.8854 -0.4994
15672TIP3   OH268430   6.244   2.270  12.390  0.2496  0.1055  0.0873
15672TIP3    H168431   6.272   2.194  12.339 -0.3516  0.9054 -1.4486
15672TIP3    H268432   6.168   2.304  12.344 -0.9380  0.2526  2.0960
15673TIP3   OH268433   4.863   6.445   3.607 -0.2987  0.3030 -0.2344
15673TIP3    H168434   4.911   6.526   3.589  1.5965 -1.0107 -1.2524
15673TIP3    H268435   4.873   6.433   3.702 -1.0809  1.5242  0.0267
15674TIP3   OH268436   3.420   5.154  11.607  0.3154 -0.2942  0.2588
15674TIP3    H168437   3.487   5.173  11.672  0.6324 -1.3400  0.2372
15674TIP3    H268438   3.374   5.237  11.596  1.4106  0.3521  0.4896
15675TIP3   OH268439   3.937   3.636  13.176 -0.6897 -0.1429  0.3337
15675TIP3    H168440   3.879   3.706  13.148 -0.0748  0.4881  0.6124
15675TIP3    H268441   4.003   3.630  13.107 -0.6791 -0.3731  0.3618
15676TIP3   OH268442   0.994   2.719   5.412  0.0017  0.0662  0.2354
15676TIP3    H168443   1.064   2.777   5.443  0.0571 -0.0979  0.4171
15676TIP3    H268444   1.040   2.648   5.367 -0.0750  0.2734 -0.1771
15677TIP3   OH268445   6.079   5.692  14.525  0.2891 -0.3687  0.3103
15677TIP3    H168446   6.037   5.607  14.538 -1.7826  0.6219  0.3008
15677TIP3    H268447   6.034   5.730  14.449  1.8829  0.3331 -0.3155
15678TIP3   OH268448   0.648   4.257   6.286 -0.1877  0.7235  0.2551
15678TIP3    H168449   0.614   4.252   6.197  2.7470  1.3777 -0.9557
15678TIP3    H268450   0.740   4.232   6.279  0.5353  2.3604  2.8181
15679TIP3   OH268451   6.694   2.012   0.573 -0.3348  0.0372 -0.1232
15679TIP3    H168452   6.697   2.067   0.652  1.5832 -0.1052 -0.0682
15679TIP3    H268453   6.694   1.922   0.607 -0.0373 -0.0178 -0.2685
15680TIP3   OH268454   0.272   4.728  14.422 -0.7761  0.1945 -0.1322
15680TIP3    H168455   0.230   4.772  14.348 -0.3849 -0.1525 -0.5547
15680TIP3    H268456   0.300   4.800  14.479 -0.6542  0.4724 -0.5438
15681TIP3   OH268457   4.048   0.038   2.390 -0.2013 -0.0020 -0.2646
15681TIP3    H168458   4.133  -0.006   2.391  0.6675  1.6621 -0.0010
15681TIP3    H268459   4.007   0.012   2.473 -0.4975 -1.8122 -0.9480
15682TIP3   OH268460   6.622   5.105  14.678  0.2194  0.1500 -0.3109
15682TIP3    H168461   6.598   5.148  14.596  0.9326  1.0349 -0.0488
15682TIP3    H268462   6.696   5.049  14.655  0.3722  0.3426 -0.2872
15683TIP3   OH268463   1.791   0.403   3.573 -0.1022 -0.1539  0.1512
15683TIP3    H168464   1.861   0.378   3.634  1.9296  2.2324 -1.0933
15683TIP3    H268465   1.788   0.498   3.578 -2.9470 -0.1779 -0.2434
15684TIP3   OH268466   4.380   0.959  15.125  0.6727  0.0554  0.3947
15684TIP3    H168467   4.392   0.866  15.105 -0.7330  0.2956 -1.6708
15684TIP3    H268468   4.358   0.999  15.041 -0.9330  1.8810  1.6649
15685TIP3   OH268469   4.905   4.846   4.120  0.5294  0.3233 -0.0703
15685TIP3    H168470   4.842   4.869   4.189  0.3226 -0.0600 -0.1286
15685TIP3    H268471   4.991   4.853   4.162  0.5389  1.9813 -0.2976
15686TIP3   OH268472   4.696   6.588   3.358  0.4857  0.4631  0.0342
15686TIP3    H168473   4.615   6.639   3.357  0.4332  0.4307  1.5699
15686TIP3    H268474   4.701   6.550   3.270 -0.9380  0.8262 -0.2222
15687TIP3   OH268475   1.071   0.525   2.953 -0.5768 -0.2874 -0.8983
15687TIP3    H168476   1.154   0.559   2.918  1.4138 -0.2443  3.5064
15687TIP3    H268477   1.017   0.604   2.965  0.8017  0.3845  1.1992
15688TIP3   OH268478   4.825   5.190   3.202  0.5112  0.4468 -0.1371
15688TIP3    H168479   4.887   5.143   3.147  0.5633  0.7497 -0.3394
15688TIP3    H268480   4.739   5.158   3.175  0.7201 -2.3934  2.3938
15689TIP3   OH268481   0.533   1.154   1.648  0.1055  0.1023  0.1171
15689TIP3    H168482   0.534   1.214   1.723  0.9094  0.7711 -0.4198
15689TIP3    H268483   0.444   1.160   1.613 -0.0563  0.3486  0.5688
15690TIP3   OH268484   4.636   2.467   2.848  0.0841 -0.0602 -0.3369
15690TIP3    H168485   4.574   2.403   2.813  0.8813 -0.4564 -1.0164
15690TIP3    H268486   4.581   2.529   2.896 -0.4140 -3.2674  3.4767
15691TIP3   OH268487   2.742   5.891   1.326 -0.0353  0.0947 -0.3635
15691TIP3    H168488   2.696   5.813   1.295  0.8321 -1.0443  1.1733
15691TIP3    H268489   2.727   5.892   1.420  1.9902  0.4335 -0.0214
15692TIP3   OH268490   6.217   6.651   4.818 -0.3281 -0.2889  0.2271
15692TIP3    H168491   6.253   6.624   4.903 -1.2163 -0.9697  0.4005
15692TIP3    H268492   6.191   6.742   4.830 -0.2805 -0.3283  0.6270
15693TIP3   OH268493   4.876   0.795  12.690  0.0649  0.0139  0.2205
15693TIP3    H168494   4.960   0.831  12.660  0.2660 -0.3715  0.3237
15693TIP3    H268495   4.899   0.734  12.759 -0.2189 -0.8411 -0.4289
15694TIP3   OH268496   2.681   3.128   1.794  0.2410 -0.3101 -0.3772
15694TIP3    H168497   2.720   3.188   1.730  1.5834  1.2687  1.8659
15694TIP3    H268498   2.707   3.041   1.763  0.7771  0.3985 -2.0285
15695TIP3   OH268499   3.383   1.033  10.857  0.6387 -0.3462 -0.7498
15695TIP3    H168500   3.478   1.041  10.844  0.5350  0.2272 -1.1760
15695TIP3    H268501   3.347   1.114  10.821 -0.0002 -0.4793 -0.4164
15696TIP3   OH268502   4.484   5.956   0.325  0.2670 -0.4353  0.1314
15696TIP3    H168503   4.503   5.977   0.416 -1.1001 -1.0117  0.5612
15696TIP3    H268504   4.565   5.919   0.291 -0.0167 -2.7685  1.8834
15697TIP3   OH268505   6.244   4.193  11.811  0.2173 -0.1569 -0.7585
15697TIP3    H168506   6.204   4.107  11.826 -1.3117  0.0955 -3.1372
15697TIP3    H268507   6.308   4.202  11.881 -2.5394 -1.4146  2.0212
15698TIP3   OH268508   6.133   6.750   5.135 -0.4165  0.0892 -0.2263
15698TIP3    H168509   6.108   6.837   5.104 -0.9194 -0.4890 -1.4770
15698TIP3    H268510   6.070   6.690   5.094 -1.1594 -0.7101  1.9778
15699TIP3   OH268511   4.721   3.009   2.812  0.2255  0.1391 -0.0986
15699TIP3    H168512   4.678   2.948   2.872  0.3716  0.8054  0.6975
15699TIP3    H268513   4.664   3.012   2.736 -1.1808  1.0365  0.9581
15700TIP3   OH268514   6.408   2.998   1.664  0.1435 -0.3737  0.3344
15700TIP3    H168515   6.352   2.968   1.593  1.0885 -0.5692 -0.3270
15700TIP3    H268516   6.496   2.995   1.629  0.7188 -1.2557  1.7680
15701TIP3   OH268517   5.449   1.757  12.381  0.5049  0.4430  0.1576
15701TIP3    H168518   5.467   1.670  12.346  2.4295  1.0198 -0.3860
15701TIP3    H268519   5.479   1.753  12.472  1.8471  0.8861 -0.2418
15702TIP3   OH268520   4.863   2.352  17.056 -0.1507 -0.3774  1.3970
15702TIP3    H168521   4.936   2.304  17.017  0.6381  0.6088  1.6338
15702TIP3    H268522   4.869   2.440  17.018 -0.6852 -0.0337  2.0939
15703TIP3   OH268523   4.565   1.329  13.367  0.7554  0.3922  0.3257
15703TIP3    H168524   4.527   1.269  13.432  1.4380 -1.6693 -1.1226
15703TIP3    H268525   4.513   1.315  13.288  2.6990 -0.4477 -0.8631
15704TIP3   OH268526   1.536   2.516  14.938  0.3599 -0.1673  0.5740
15704TIP3    H168527   1.486   2.569  14.876  2.1147  0.3536 -0.4205
15704TIP3    H268528   1.493   2.430  14.936 -0.2354  0.1547 -0.5752
15705TIP3   OH268529   5.836   5.948  13.260 -0.6176 -0.1159  0.3287
15705TIP3    H168530   5.915   5.925  13.309  0.0830 -1.0077 -1.2006
15705TIP3    H268531   5.792   5.865  13.246 -1.4935  0.3050  0.5825
15706TIP3   OH268532   1.102   0.944   5.689  0.3049  0.0951  0.4273
15706TIP3    H168533   1.074   0.991   5.611  1.3439  2.2606  1.3303
15706TIP3    H268534   1.072   0.998   5.762  1.6853 -0.5457  1.4937
15707TIP3   OH268535   5.340   2.525   0.322  0.4227  0.1803  0.3891
15707TIP3    H168536   5.400   2.516   0.248 -0.1929 -1.5390  0.0798
15707TIP3    H268537   5.260   2.480   0.293  1.0288 -2.8171  3.0807
15708TIP3   OH268538   6.505   4.521   3.990 -0.4795  0.0368  0.2085
15708TIP3    H168539   6.460   4.566   4.061 -1.8064 -0.3124 -0.4029
15708TIP3    H268540   6.522   4.590   3.925  1.0081  0.4177  0.9744
15709TIP3   OH268541   5.107   3.101   5.802 -0.2235 -0.1648  0.2667
15709TIP3    H168542   5.088   3.050   5.880 -0.6721 -1.0630 -0.4120
15709TIP3    H268543   5.022   3.139   5.777 -0.0838  0.1092  0.2085
15710TIP3   OH268544   5.512   2.053   1.032  0.2183 -0.7577  0.2590
15710TIP3    H168545   5.522   2.140   1.069  0.3747  0.2701 -2.1201
15710TIP3    H268546   5.530   1.994   1.105 -1.0996  1.1722  2.2282
15711TIP3   OH268547   2.743   6.381   2.957  0.1533 -1.1711 -0.0454
15711TIP3    H168548   2.675   6.423   2.905  1.5239 -0.9726 -1.7478
15711TIP3    H268549   2.724   6.287   2.950 -0.3417 -1.0775  0.0526
15712TIP3   OH268550   1.937   6.496   1.800 -0.0752 -0.1910  0.1147
15712TIP3    H168551   1.919   6.585   1.832  1.6821  0.1151  0.3048
15712TIP3    H268552   1.892   6.439   1.862  0.5306  0.4989  1.2101
15713TIP3   OH268553   5.154   5.659  14.417  0.1054  0.7477 -0.1549
15713TIP3    H168554   5.224   5.723  14.407  1.9287 -1.4799 -2.6625
15713TIP3    H268555   5.075   5.704  14.387  0.7488  2.7462  1.0510
15714TIP3   OH268556   4.013   6.646  11.923 -0.0241  0.3138  1.1847
15714TIP3    H168557   4.041   6.613  12.008 -1.2995 -0.7330  1.2096
15714TIP3    H268558   3.954   6.579  11.889  0.2916  0.8217 -0.4294
15715TIP3   OH268559   6.648   4.520   2.667 -0.3281  0.4053  0.0904
15715TIP3    H168560   6.615   4.520   2.757 -2.6369 -0.9003 -0.7086
15715TIP3    H268561   6.728   4.572   2.671 -0.1270 -0.0389  2.9830
15716TIP3   OH268562   3.221   3.435  12.485 -0.0213  0.1951 -0.1654
15716TIP3    H168563   3.209   3.415  12.392 -1.1230  1.7900 -0.3813
15716TIP3    H268564   3.295   3.495  12.488 -1.1163  1.5637 -0.1971
15717TIP3   OH268565   2.579   2.590   2.601  0.4285 -0.1874 -1.1375
15717TIP3    H168566   2.595   2.532   2.527  1.1609  0.5368 -1.5539
15717TIP3    H268567   2.495   2.561   2.637  0.9679 -1.7561 -1.0949
15718TIP3   OH268568   5.257   0.946  16.668 -0.1685 -0.6840 -0.1407
15718TIP3    H168569   5.199   0.946  16.744 -0.0664 -0.9255 -0.0599
15718TIP3    H268570   5.314   1.022  16.682 -0.2688 -0.6210 -0.0685
15719TIP3   OH268571   4.410   3.353  16.019 -0.4483  0.3377  0.2860
15719TIP3    H168572   4.452   3.400  16.090 -1.3171  0.7504  0.5304
15719TIP3    H268573   4.393   3.419  15.952 -0.3945  0.1104  0.0426
15720TIP3   OH268574   5.363   1.831  11.880  0.4554 -0.2382  0.1295
15720TIP3    H168575   5.273   1.848  11.851  0.3758 -1.5086 -0.4028
15720TIP3    H268576   5.382   1.743  11.846  2.1332  0.3050 -0.3545
15721TIP3   OH268577   0.913   5.918  15.060  0.2370  0.2511  1.2188
15721TIP3    H168578   0.975   5.989  15.073 -0.2314  0.8446  0.2307
15721TIP3    H268579   0.967   5.844  15.031  0.3068  1.2142 -1.1792
15722TIP3   OH268580   3.966   3.401   0.004 -0.5650  0.3265 -0.2231
15722TIP3    H168581   3.894   3.411  -0.058 -0.9528 -1.9812 -0.1956
15722TIP3    H268582   4.031   3.348  -0.042  0.5903  1.3808  0.1773
15723TIP3   OH268583   0.851   5.054   4.106 -0.0158 -0.2043  0.4514
15723TIP3    H168584   0.773   5.004   4.131 -1.1516  1.2676 -0.1093
15723TIP3    H268585   0.866   5.032   4.014  1.2886 -1.8349  1.0202
15724TIP3   OH268586   4.245   0.532   3.253  0.0229  0.1420 -0.4530
15724TIP3    H168587   4.179   0.552   3.186  1.3358  0.6473 -1.5972
15724TIP3    H268588   4.283   0.449   3.226 -0.2506 -0.2415  0.3115
15725TIP3   OH268589   4.625   2.826   2.984 -0.1893  0.0545  0.1098
15725TIP3    H168590   4.700   2.771   3.007 -0.8115 -0.0521  2.0098
15725TIP3    H268591   4.553   2.764   2.975 -0.6128  0.4090  0.9689
15726TIP3   OH268592   4.407   2.618   2.979  0.2983 -0.1492  0.7581
15726TIP3    H168593   4.394   2.571   3.061 -1.0725  0.5821  0.9835
15726TIP3    H268594   4.329   2.674   2.971  1.4782  1.4281  0.0738
15727TIP3   OH268595   0.350   6.325   3.263  0.5981 -0.3637  0.3426
15727TIP3    H168596   0.262   6.363   3.255 -0.2223 -2.3615 -0.4258
15727TIP3    H268597   0.337   6.246   3.315  1.8266 -1.0232 -0.3319
15728TIP3   OH268598   0.147   3.081   5.962  0.2200 -0.1609 -0.0848
15728TIP3    H168599   0.100   3.122   5.890  0.2250 -0.2103 -0.1168
15728TIP3    H268600   0.111   3.121   6.041 -0.3295 -0.6633 -0.0781
15729TIP3   OH268601   3.841   0.845   5.842 -0.3741 -0.3959 -0.0240
15729TIP3    H168602   3.911   0.894   5.798 -1.0756 -0.2268 -0.9904
15729TIP3    H268603   3.852   0.865   5.935  0.4290  0.1872 -0.2386
15730TIP3   OH268604   2.895   5.455  11.398 -0.3019  0.0909 -0.3867
15730TIP3    H168605   2.960   5.408  11.346  1.4721  1.2757  0.7120
15730TIP3    H268606   2.938   5.470  11.482 -2.1550  0.5445  0.5178
15731TIP3   OH268607   2.952   2.333  15.214 -0.1589 -0.2471  0.9136
15731TIP3    H168608   2.975   2.243  15.236 -2.1111 -1.0577 -0.2031
15731TIP3    H268609   2.856   2.335  15.217 -0.0990  2.1358  2.1890
15732TIP3   OH268610   0.199   0.905   5.637 -0.5677  0.3630 -0.8669
15732TIP3    H168611   0.152   0.929   5.557 -2.5531 -1.6215 -0.3081
15732TIP3    H268612   0.229   0.816   5.621 -0.2532  0.2611  0.2992
15733TIP3   OH268613   5.140   1.790  11.737  0.2652 -0.2160  0.0641
15733TIP3    H168614   5.140   1.771  11.643  2.0917  0.5488 -0.1132
15733TIP3    H268615   5.125   1.705  11.779  2.1719 -1.0394 -0.8646
15734TIP3   OH268616   2.122   2.672  16.849  0.0808  0.1381 -0.2036
15734TIP3    H168617   2.161   2.737  16.791 -0.8336 -0.5771 -1.6594
15734TIP3    H268618   2.155   2.588  16.817 -0.9677 -0.3169 -0.1162
15735TIP3   OH268619   0.164   3.211   3.391 -0.0290 -0.0906  0.1476
15735TIP3    H168620   0.258   3.192   3.387  0.3326  1.7949 -0.8075
15735TIP3    H268621   0.122   3.126   3.380  1.5612 -0.8050 -0.5794
15736TIP3   OH268622   6.589   3.032   4.949 -0.0528  0.4133  0.5812
15736TIP3    H168623   6.510   3.023   5.003  0.3663  1.6616  1.4350
15736TIP3    H268624   6.565   3.098   4.884 -0.1948 -0.3011 -0.1035
15737TIP3   OH268625   3.840   3.824  13.608 -0.1261 -0.0774  0.4207
15737TIP3    H168626   3.843   3.744  13.555 -0.0038 -0.8912  1.6410
15737TIP3    H268627   3.770   3.876  13.568 -1.7990 -1.8151  1.0082
15738TIP3   OH268628   2.128   3.296  12.817 -0.5990  0.4162  0.0618
15738TIP3    H168629   2.202   3.290  12.877 -0.2968  1.3997 -0.2077
15738TIP3    H268630   2.128   3.387  12.786 -1.9524  0.4465  0.1055
15739TIP3   OH268631   3.080   5.576  15.043  0.8087 -0.7445  0.0761
15739TIP3    H168632   3.115   5.653  15.089  0.3141 -0.4700 -0.0053
15739TIP3    H268633   2.996   5.605  15.008  0.6441 -1.3089 -0.0017
15740TIP3   OH268634   6.530   0.805  15.748  0.2385  0.3555  0.0753
15740TIP3    H168635   6.589   0.729  15.743  1.0306  0.9422  0.3364
15740TIP3    H268636   6.480   0.791  15.828 -0.5652 -0.5615 -0.5680
15741TIP3   OH268637   0.767   1.605   0.979 -0.1905  0.1198  0.5150
15741TIP3    H168638   0.812   1.522   0.963 -0.6394 -0.7818  3.6443
15741TIP3    H268639   0.675   1.587   0.959 -0.6797 -0.8770  3.4736
15742TIP3   OH268640   5.302   4.664   5.854  0.1072 -0.1025  0.4828
15742TIP3    H168641   5.395   4.641   5.855  0.2320  0.3619 -0.0617
15742TIP3    H268642   5.269   4.635   5.939  1.4741  2.6066  2.0060
15743TIP3   OH268643   4.356   1.849  15.085  0.7227 -0.3154  0.1673
15743TIP3    H168644   4.431   1.882  15.035  0.8357 -1.1262 -0.2171
15743TIP3    H268645   4.390   1.772  15.130  0.3898 -0.0817  0.8118
15744TIP3   OH268646   0.509   0.944   2.688  0.1507  0.3621  0.0133
15744TIP3    H168647   0.541   1.031   2.662  1.5685  0.1965  1.1254
15744TIP3    H268648   0.586   0.887   2.680 -0.9776 -0.9747 -1.5125
15745TIP3   OH268649   0.353   0.167   3.173 -0.0560  0.2669  0.1265
15745TIP3    H168650   0.367   0.262   3.176 -0.8788  0.3734  0.8511
15745TIP3    H268651   0.259   0.157   3.185  0.1365 -0.6783  0.8487
15746TIP3   OH268652   2.390   2.384  13.127 -0.1206 -0.4951 -0.0082
15746TIP3    H168653   2.356   2.415  13.043  1.2303 -0.7321 -0.6603
15746TIP3    H268654   2.407   2.464  13.177 -0.6037 -0.3400 -0.0910
15747TIP3   OH268655   0.527   3.329  14.997 -0.1265 -0.2805  0.3667
15747TIP3    H168656   0.582   3.355  14.923 -0.4391  1.0336  0.5759
15747TIP3    H268657   0.439   3.359  14.974 -0.6998 -2.0744  0.1863
15748TIP3   OH268658   0.542   6.156   2.552 -0.4980  0.2946 -0.8372
15748TIP3    H168659   0.549   6.252   2.559 -2.1816  0.3262  0.7091
15748TIP3    H268660   0.631   6.127   2.532  0.5800  1.9605  1.3104
15749TIP3   OH268661   0.075   5.301   2.277  0.9647 -0.1388 -0.6339
15749TIP3    H168662   0.056   5.304   2.183  1.0533  1.0332 -0.6288
15749TIP3    H268663   0.120   5.384   2.294  3.3791 -1.5245 -0.0773
15750TIP3   OH268664   5.531   1.942  15.712  0.1775  0.1281  0.1758
15750TIP3    H168665   5.618   1.978  15.730 -0.1547 -0.5701  3.4146
15750TIP3    H268666   5.544   1.886  15.635  2.2242  1.3497 -0.4042
15751TIP3   OH268667   0.001   1.653  15.557 -0.0479  0.0257 -0.2127
15751TIP3    H168668  -0.031   1.563  15.562 -1.4476  0.3333 -2.9162
15751TIP3    H268669  -0.045   1.691  15.482  0.3690  3.0679  0.9908
15752TIP3   OH268670   1.385   6.426   2.617 -0.0694 -0.0832 -0.1073
15752TIP3    H168671   1.461   6.426   2.558 -0.7909  0.6862 -1.0408
15752TIP3    H268672   1.392   6.508   2.665  0.1016 -0.3673  0.3656
15753TIP3   OH268673   4.892   3.905   0.172 -0.2125  0.1451  0.4814
15753TIP3    H168674   4.890   3.812   0.151 -1.3922  0.6246 -1.7787
15753TIP3    H268675   4.977   3.919   0.214  0.4382 -1.7464 -0.1493
15754TIP3   OH268676   5.097   1.518   4.238  0.2611 -0.1555  0.5738
15754TIP3    H168677   5.120   1.514   4.146  0.5511 -0.0361  0.6373
15754TIP3    H268678   5.008   1.484   4.243  0.1904 -0.0254  0.2311
15755TIP3   OH268679   1.966   4.368  10.860  0.0549  0.0659 -0.4925
15755TIP3    H168680   1.967   4.273  10.850  1.6464  0.0616 -0.3291
15755TIP3    H268681   1.900   4.383  10.928 -1.9119 -0.7291 -2.1475
15756TIP3   OH268682   1.162   5.371   1.858  0.1803  0.5839  0.0653
15756TIP3    H168683   1.141   5.404   1.945 -1.2034 -0.3321  0.1078
15756TIP3    H268684   1.088   5.399   1.803  1.0858  1.2323 -0.8354
15757TIP3   OH268685   0.905   0.670   5.854 -0.3640  0.1263  0.2740
15757TIP3    H168686   0.946   0.730   5.916 -0.7502  1.0554 -0.3486
15757TIP3    H268687   0.840   0.623   5.905  0.7285 -0.5813  1.0217
15758TIP3   OH268688   3.776   3.574  15.428  0.1493 -0.4469 -0.7026
15758TIP3    H168689   3.819   3.612  15.505 -0.6788 -0.3394 -0.2943
15758TIP3    H268690   3.802   3.481  15.429  0.9967 -0.2198 -0.8962
15759TIP3   OH268691   2.155   0.443   2.300  0.8016 -0.5538  0.7382
15759TIP3    H168692   2.232   0.487   2.335  0.9469 -0.8851  0.8443
15759TIP3    H268693   2.161   0.354   2.335  0.8852 -0.8523 -0.0262
15760TIP3   OH268694   3.903   1.757   0.498 -0.3229  0.2928  0.6437
15760TIP3    H168695   3.825   1.746   0.445 -0.2212 -0.7502  0.7006
15760TIP3    H268696   3.947   1.834   0.461 -0.4978 -0.1458 -0.4646
15761TIP3   OH268697   4.459   3.531  11.429 -0.3254  0.1123  0.3702
15761TIP3    H168698   4.554   3.544  11.425 -0.7158  2.9443 -1.4956
15761TIP3    H268699   4.443   3.498  11.518  2.3999 -0.6326  0.6279
15762TIP3   OH268700   1.368   0.977   1.414  0.0230 -0.5205 -0.1266
15762TIP3    H168701   1.351   1.012   1.326 -2.5778 -2.0437 -0.2673
15762TIP3    H268702   1.310   0.902   1.421  0.4127 -0.5709  2.8189
15763TIP3   OH268703   6.637   4.169  13.299  0.0298 -0.0962 -0.0376
15763TIP3    H168704   6.660   4.259  13.320  0.7803 -0.6435  1.6149
15763TIP3    H268705   6.721   4.124  13.287 -0.2658 -1.0745  1.4154
15764TIP3   OH268706   5.966   5.772   2.902 -1.0382  0.1075  0.3185
15764TIP3    H168707   5.905   5.771   2.976 -1.4405  0.0682 -0.0117
15764TIP3    H268708   6.046   5.809   2.939 -1.7138  1.5438  0.4229
15765TIP3   OH268709   6.080   4.404   0.745 -0.0537 -0.1335  0.0906
15765TIP3    H168710   6.163   4.385   0.701  0.3785 -0.3034  0.9675
15765TIP3    H268711   6.063   4.496   0.725  0.8012  0.1503  0.6395
15766TIP3   OH268712   6.237   0.173  13.943  0.2549 -0.7083  0.1844
15766TIP3    H168713   6.313   0.207  13.896  0.1784 -1.1256 -0.2536
15766TIP3    H268714   6.176   0.146  13.873  0.8553 -2.9374  0.4779
15767TIP3   OH268715   1.190   0.431  16.327  0.2302  0.0967 -0.4572
15767TIP3    H168716   1.232   0.505  16.285 -1.7054  1.4904  0.0104
15767TIP3    H268717   1.162   0.465  16.412 -0.9071 -1.0934 -0.3473
15768TIP3   OH268718   0.474   6.648  16.708 -0.2952 -0.0414 -0.0539
15768TIP3    H168719   0.503   6.567  16.751  0.9964  0.2512 -0.3575
15768TIP3    H268720   0.385   6.628  16.678  0.5869 -1.9014 -1.5191
15769TIP3   OH268721   4.221   3.678  10.792 -0.6628  0.7448  0.1606
15769TIP3    H168722   4.260   3.738  10.729  0.6616 -0.8722 -0.6085
15769TIP3    H268723   4.295   3.627  10.825 -1.3565  1.3544  2.8273
15770TIP3   OH268724   1.554   5.071   2.593  0.1276  0.3853 -0.1427
15770TIP3    H168725   1.614   5.094   2.522  0.6279 -0.2592  0.0607
15770TIP3    H268726   1.599   4.999   2.639 -1.5242 -1.2124 -0.9723
15771TIP3   OH268727   0.737   4.030  16.338  0.6298 -0.5866 -0.1500
15771TIP3    H168728   0.727   4.098  16.271 -0.2593 -0.2871  0.2794
15771TIP3    H268729   0.812   3.979  16.308 -0.1423 -0.8429 -1.7205
15772TIP3   OH268730   5.075   1.648   5.481  0.1513  0.0865  0.0063
15772TIP3    H168731   5.004   1.628   5.419 -0.4027  0.1631  0.6169
15772TIP3    H268732   5.152   1.606   5.442 -0.4524 -0.9466 -0.1028
15773TIP3   OH268733   3.919   6.006   0.577 -0.2272  0.2084  0.0143
15773TIP3    H168734   3.913   5.928   0.521 -1.2151 -0.7202  1.3965
15773TIP3    H268735   3.845   5.998   0.637 -0.9616  2.7345 -0.4716
15774TIP3   OH268736   3.062   5.030  12.528  0.0380 -0.0798  0.6651
15774TIP3    H168737   2.988   5.021  12.468  0.3915  2.7945 -0.3029
15774TIP3    H268738   3.130   4.973  12.491 -0.6948 -0.4664 -0.1072
15775TIP3   OH268739   2.065   5.823  12.858 -0.4821  0.2810 -0.1257
15775TIP3    H168740   2.123   5.803  12.932  0.1739  2.3930 -0.0366
15775TIP3    H268741   2.081   5.752  12.795  0.1545 -0.6483  1.0570
15776TIP3   OH268742   1.077   2.974  12.163 -0.1557  0.2209  0.5955
15776TIP3    H168743   1.132   2.921  12.104  0.7373  2.1806 -0.3801
15776TIP3    H268744   1.137   3.038  12.200 -1.3316  0.8918  1.3532
15777TIP3   OH268745   2.992   1.019   1.430 -0.5993  0.4103  0.1437
15777TIP3    H168746   3.087   1.022   1.423 -0.5874  1.6340  0.5716
15777TIP3    H268747   2.972   0.927   1.445  0.4747  0.0674 -0.4525
15778TIP3   OH268748   4.672   6.433   3.118  0.2563 -0.1631  0.0779
15778TIP3    H168749   4.577   6.434   3.130  0.3778  0.7288  0.9989
15778TIP3    H268750   4.700   6.349   3.154 -0.1855 -0.4466 -0.2389
15779TIP3   OH268751   6.607   3.883  10.985  0.3575  0.0098 -0.0690
15779TIP3    H168752   6.605   3.979  10.981 -0.1780 -0.0453 -1.3193
15779TIP3    H268753   6.515   3.858  10.993  0.6611 -0.3209  2.7422
15780TIP3   OH268754   5.716   4.056  14.642  0.2464  0.4386 -0.0904
15780TIP3    H168755   5.733   4.026  14.731  1.3539  3.8077  0.8944
15780TIP3    H268756   5.690   3.977  14.594  0.7345 -1.6003  2.9233
15781TIP3   OH268757   1.195   2.660   6.660 -0.4348 -0.1258 -0.5603
15781TIP3    H168758   1.185   2.732   6.723  0.2621  0.3135 -0.9408
15781TIP3    H268759   1.286   2.631   6.672 -0.8845 -1.3352 -0.0020
15782TIP3   OH268760   2.620   1.607  15.194 -0.2974  0.2150  0.1828
15782TIP3    H168761   2.569   1.606  15.275 -0.3184 -0.0716  0.1674
15782TIP3    H268762   2.591   1.529  15.146 -0.7627  0.7387 -0.3965
15783TIP3   OH268763   4.381   5.232   5.368  0.4417  0.1572 -0.5358
15783TIP3    H168764   4.444   5.175   5.323  0.0680  0.4523 -1.4444
15783TIP3    H268765   4.379   5.200   5.458  1.3750 -0.2959 -0.6732
15784TIP3   OH268766   0.124   2.252  10.455  0.1657  0.7850 -0.1728
15784TIP3    H168767   0.036   2.281  10.430  0.1658  1.5411  0.6845
15784TIP3    H268768   0.147   2.186  10.389  0.2605  2.8748 -2.3116
15785TIP3   OH268769   5.127   5.798  16.137  0.4411  0.2671 -0.1941
15785TIP3    H168770   5.169   5.875  16.175 -0.6594  0.9205 -0.2554
15785TIP3    H268771   5.129   5.732  16.206 -1.4169  1.3899  0.9728
15786TIP3   OH268772   0.206   2.479   2.221 -0.4136  0.3466 -0.1810
15786TIP3    H168773   0.189   2.385   2.218  0.1946  0.2011  0.6034
15786TIP3    H268774   0.302   2.486   2.229 -0.4466  1.0290 -0.3671
15787TIP3   OH268775   1.487   1.945   5.388 -0.2157 -0.0756  0.2822
15787TIP3    H168776   1.448   2.032   5.377  1.6399  0.5662 -1.6993
15787TIP3    H268777   1.556   1.958   5.453  1.2509  0.3994 -1.3088
15788TIP3   OH268778   6.162   0.372   4.264  0.0864  0.1762  0.4504
15788TIP3    H168779   6.138   0.285   4.233  1.5247 -0.1456  0.2124
15788TIP3    H268780   6.258   0.369   4.273  0.0423  1.3786  1.4964
15789TIP3   OH268781   2.574   1.996   2.690  0.1770  0.1628 -1.0531
15789TIP3    H168782   2.574   2.014   2.596  2.3194  0.7424 -0.9575
15789TIP3    H268783   2.642   1.929   2.702 -0.5818 -0.4344 -0.0086
15790TIP3   OH268784   5.060   6.239   3.804  0.0386 -0.4768  0.7364
15790TIP3    H168785   5.068   6.167   3.867  0.2381  1.5064  3.0552
15790TIP3    H268786   4.998   6.300   3.845  1.7772  1.8429  0.0124
15791TIP3   OH268787   4.176   2.573   2.658 -0.3554 -0.2926  0.3064
15791TIP3    H168788   4.113   2.601   2.724 -0.5365 -1.0228  0.4458
15791TIP3    H268789   4.149   2.618   2.578  0.2812  1.1498  0.8910
15792TIP3   OH268790   0.563   0.882   0.505 -0.1396 -0.2120  0.0531
15792TIP3    H168791   0.481   0.931   0.510 -0.2919 -0.6306  1.8846
15792TIP3    H268792   0.630   0.948   0.491 -0.3564  0.5565  2.4063
15793TIP3   OH268793   0.791   4.176   2.806  0.3758  0.2613  0.2714
15793TIP3    H168794   0.840   4.176   2.888 -1.8183 -0.3802  1.6357
15793TIP3    H268795   0.750   4.090   2.801  1.3486 -0.0985 -2.0593
15794TIP3   OH268796   0.497   0.135  11.203  0.2360  0.2950 -0.5411
15794TIP3    H168797   0.510   0.226  11.178  2.7725  0.4433  1.1180
15794TIP3    H268798   0.492   0.136  11.298 -0.8849 -1.1718 -0.5596
15795TIP3   OH268799   6.237   2.621  11.247  0.0412 -0.3445 -0.2124
15795TIP3    H168800   6.220   2.568  11.326 -0.2177 -1.1513 -0.8017
15795TIP3    H268801   6.150   2.636  11.210  0.1080  0.6108  0.0295
15796TIP3   OH268802   0.657   3.863   0.991 -0.1013  0.0846 -0.0936
15796TIP3    H168803   0.694   3.842   0.906 -1.1514  0.2206 -0.5975
15796TIP3    H268804   0.707   3.810   1.053  1.9676  1.4125 -0.5621
15797TIP3   OH268805   4.712   1.050  13.188  0.4921  0.3933 -0.2944
15797TIP3    H168806   4.798   1.073  13.224  0.8754 -0.1688 -0.8228
15797TIP3    H268807   4.676   1.133  13.157  0.8015  0.6501  0.0384
15798TIP3   OH268808   3.569   5.685  16.679  0.0599  0.2349 -0.0537
15798TIP3    H168809   3.503   5.724  16.621 -0.3763 -0.5372 -0.0724
15798TIP3    H268810   3.519   5.636  16.743  0.5792  0.4938  0.5538
15799TIP3   OH268811   0.680   0.890  17.036 -0.4263  0.1751  0.1248
15799TIP3    H168812   0.704   0.971  16.992 -0.0611 -0.3132 -0.5982
15799TIP3    H268813   0.631   0.841  16.970 -0.9835 -0.0282  0.6793
15800TIP3   OH268814   2.197   1.188   2.892 -0.2187 -0.2074  0.1235
15800TIP3    H168815   2.192   1.158   2.983  1.6841 -1.1020 -0.0486
15800TIP3    H268816   2.264   1.133   2.852 -2.7131 -1.4343 -2.4855
15801TIP3   OH268817   4.592   2.761  15.047 -0.1259  0.2964  0.2982
15801TIP3    H168818   4.546   2.678  15.060 -1.5216  0.8530 -1.0024
15801TIP3    H268819   4.680   2.736  15.019  0.3802 -0.7781  2.6875
15802TIP3   OH268820   5.473   4.827   0.883  0.2598  0.0461  0.1019
15802TIP3    H168821   5.441   4.776   0.809 -1.3434 -1.4313  1.7706
15802TIP3    H268822   5.417   4.905   0.884  0.7614  0.4191 -0.6690
15803TIP3   OH268823   5.814   6.443  14.655 -0.0261  0.2917 -0.3765
15803TIP3    H168824   5.814   6.512  14.588  1.1775 -0.0266 -0.7183
15803TIP3    H268825   5.747   6.471  14.718  0.6341  1.9235 -0.3664
15804TIP3   OH268826   3.299   2.815  10.955  0.9401  0.5564 -0.6329
15804TIP3    H168827   3.207   2.841  10.962  0.7599 -0.3856  0.6696
15804TIP3    H268828   3.342   2.892  10.917 -0.6563  0.3944 -2.8961
15805TIP3   OH268829   5.079   4.669   5.474 -0.0086  0.0035  0.5126
15805TIP3    H168830   5.067   4.745   5.418 -0.2032 -1.1092 -0.9857
15805TIP3    H268831   5.133   4.609   5.422 -0.5012 -1.2048  1.3540
15806TIP3   OH268832   1.218   1.045  14.264 -0.2040  0.4644  0.1295
15806TIP3    H168833   1.208   1.137  14.288  1.1019  0.7002 -0.1958
15806TIP3    H268834   1.239   1.047  14.171  0.6216 -0.1169  0.2995
15807TIP3   OH268835   5.846   1.953   2.563  0.0303  0.6167  0.7288
15807TIP3    H168836   5.869   1.862   2.586  0.7742  0.6765  0.2466
15807TIP3    H268837   5.756   1.947   2.532  0.3968 -0.1207 -0.2285
15808TIP3   OH268838   2.982   1.905   0.047  0.2414  0.1897 -0.4789
15808TIP3    H168839   2.999   1.811   0.040 -3.1847 -0.5223  0.0309
15808TIP3    H268840   2.890   1.911   0.071  0.1176  3.7410 -1.5980
15809TIP3   OH268841   4.655   5.560   6.222 -0.0420 -0.2532 -0.2104
15809TIP3    H168842   4.701   5.615   6.286 -0.1521 -0.3242 -0.0701
15809TIP3    H268843   4.589   5.513   6.274  0.0707 -0.5373 -0.3242
15810TIP3   OH268844   6.644   6.653   5.659 -0.2724 -0.4085  0.1040
15810TIP3    H168845   6.723   6.599   5.665 -0.8533 -1.2807 -0.0228
15810TIP3    H268846   6.622   6.673   5.750  0.3342  0.1809  0.1194
15811TIP3   OH268847   6.373   6.440  16.849  0.0699  0.2036 -0.1109
15811TIP3    H168848   6.372   6.514  16.788 -0.8697  1.6288  1.5743
15811TIP3    H268849   6.335   6.476  16.930 -2.6765 -2.7365  0.0105
15812TIP3   OH268850   0.610   3.354  13.051 -0.5087  0.0456  0.5170
15812TIP3    H168851   0.661   3.435  13.052 -3.1240  1.7291  2.0010
15812TIP3    H268852   0.656   3.298  12.988  1.9548  2.2510  0.2456
15813TIP3   OH268853   0.332   1.894  14.489 -0.0047  0.3980  0.1616
15813TIP3    H168854   0.409   1.891  14.432  0.0713  0.5737  0.2585
15813TIP3    H268855   0.352   1.832  14.559 -0.7531 -0.9987 -0.8432
15814TIP3   OH268856   4.443   5.156  16.013  0.3278  0.3268 -0.0271
15814TIP3    H168857   4.386   5.203  16.074 -1.1166 -2.1830  0.6756
15814TIP3    H268858   4.531   5.165  16.049 -0.4870 -1.0147  2.4306
15815TIP3   OH268859   3.319   1.398  16.360  0.3555  0.0837 -0.1560
15815TIP3    H168860   3.287   1.416  16.448  1.8555 -0.3575  0.4891
15815TIP3    H268861   3.392   1.458  16.347 -0.9560  1.3670 -1.7752
15816TIP3   OH268862   6.766   0.081   1.639 -0.4914 -0.2308  0.5883
15816TIP3    H168863   6.706   0.148   1.606 -1.1099  0.0632  2.2749
15816TIP3    H268864   6.722   0.044   1.715  0.5913 -1.4120  0.6604
15817TIP3   OH268865   0.570   1.049  11.455  0.4931 -0.4785 -0.1537
15817TIP3    H168866   0.611   1.136  11.453  0.2310 -0.3297  0.8865
15817TIP3    H268867   0.481   1.064  11.422  0.0419 -0.1225  1.1923
15818TIP3   OH268868   1.613   5.675   0.438 -0.4681 -0.5701 -0.1649
15818TIP3    H168869   1.568   5.757   0.416 -1.5873 -1.3713 -0.8500
15818TIP3    H268870   1.543   5.612   0.455  0.3726 -1.7860 -1.1113
15819TIP3   OH268871   0.127   5.265  11.857 -0.4207  0.4677 -0.4952
15819TIP3    H168872   0.161   5.341  11.809 -0.8231 -0.5183 -2.3986
15819TIP3    H268873   0.164   5.190  11.810 -1.0200 -0.5307  0.6233
15820TIP3   OH268874   0.116   4.636   2.642  0.4167 -0.3735 -0.9515
15820TIP3    H168875   0.147   4.726   2.635 -1.1376  0.2172 -0.3567
15820TIP3    H268876   0.183   4.592   2.694  0.4299  0.8046  0.0442
15821TIP3   OH268877   3.899   5.173   4.094 -0.6684 -0.2568 -0.4888
15821TIP3    H168878   3.979   5.224   4.079 -0.5925  0.4710  2.0200
15821TIP3    H268879   3.922   5.084   4.067  0.8578  0.0372 -0.2620
15822TIP3   OH268880   4.294   5.619  13.934  0.5862  0.0705 -0.6688
15822TIP3    H168881   4.274   5.609  13.841  0.7937  2.0315 -0.9405
15822TIP3    H268882   4.390   5.623  13.937  0.6279 -0.9246 -0.2463
15823TIP3   OH268883   3.452   6.600  13.277 -0.2290  0.3938 -0.7790
15823TIP3    H168884   3.492   6.531  13.329  0.6400  1.7032  0.3034
15823TIP3    H268885   3.359   6.579  13.278 -0.3163  0.7290  1.8231
15824TIP3   OH268886   5.169   4.737   4.547 -0.2341 -0.7637 -0.2571
15824TIP3    H168887   5.208   4.811   4.594 -0.8669 -1.3900  1.3141
15824TIP3    H268888   5.172   4.762   4.455 -0.2936  1.1442  0.2433
15825TIP3   OH268889   1.421   4.532  13.975 -0.1675 -0.0076 -0.6393
15825TIP3    H168890   1.428   4.440  13.947 -0.2785  0.5262 -2.5146
15825TIP3    H268891   1.357   4.531  14.045  0.4556 -1.4904 -0.0647
15826TIP3   OH268892   3.533   0.857  16.773 -0.1674  0.4869  0.2442
15826TIP3    H168893   3.538   0.762  16.763 -2.6044  0.2724  0.8195
15826TIP3    H268894   3.625   0.886  16.769  0.8560 -2.1459  2.5760
15827TIP3   OH268895   5.591   6.303   3.324 -0.1332 -0.7783 -0.6984
15827TIP3    H168896   5.576   6.396   3.341 -3.2998 -0.8893 -2.5845
15827TIP3    H268897   5.640   6.301   3.242  2.5984 -0.7360  0.8674
15828TIP3   OH268898   0.620   4.344  16.796  0.9101 -0.1240 -0.1924
15828TIP3    H168899   0.532   4.376  16.776  2.2977  2.6789 -2.0613
15828TIP3    H268900   0.633   4.367  16.888  0.7368  2.0690 -0.6873
15829TIP3   OH268901   6.760   5.348   0.726 -0.1753 -0.8283  0.8627
15829TIP3    H168902   6.785   5.414   0.662  0.5176 -1.2134  0.7327
15829TIP3    H268903   6.832   5.346   0.789 -2.3073  1.8323  3.4750
15830TIP3   OH268904   5.111   2.620  11.968 -0.2234  0.4336 -0.0457
15830TIP3    H168905   5.097   2.572  11.886  3.0237  0.4777 -0.6751
15830TIP3    H268906   5.046   2.690  11.966 -0.2748  0.3504 -2.5202
15831TIP3   OH268907   4.985   1.307  12.707  0.3356  0.0220  0.0935
15831TIP3    H168908   5.003   1.334  12.617  1.0060 -0.6319  0.0271
15831TIP3    H268909   5.065   1.326  12.754  0.4589 -0.8824  0.2630
15832TIP3   OH268910   2.280   2.135   0.994  0.2872 -0.3119  0.2549
15832TIP3    H168911   2.350   2.148   1.059 -1.1598 -0.7422  1.9278
15832TIP3    H268912   2.245   2.048   1.013  0.7663 -1.0450 -2.0377
15833TIP3   OH268913   3.152   3.589   1.779 -0.5669 -0.0425 -0.7432
15833TIP3    H168914   3.072   3.565   1.825 -0.2480 -2.1475 -1.2314
15833TIP3    H268915   3.127   3.591   1.687 -0.2655  0.1678 -0.8212
15834TIP3   OH268916   0.153   2.861   1.151  0.0243 -0.3745  0.0060
15834TIP3    H168917   0.112   2.832   1.233 -1.9747  2.0119 -0.1025
15834TIP3    H268918   0.234   2.903   1.179  0.4708 -1.5737  0.5638
15835TIP3   OH268919   1.677   6.115  10.731 -0.2883  0.3285  0.2287
15835TIP3    H168920   1.745   6.166  10.686  0.1235 -1.3587 -1.1424
15835TIP3    H268921   1.595   6.157  10.705 -0.1392 -1.1595 -2.9994
15836TIP3   OH268922   3.166   3.975  14.717  0.0719 -0.1197 -0.2487
15836TIP3    H168923   3.224   4.049  14.701  0.3198 -0.2097  0.2418
15836TIP3    H268924   3.111   3.970  14.638  1.1740 -0.4443 -1.0007
15837TIP3   OH268925   0.469   1.968  12.074  0.2706  0.0682 -0.0869
15837TIP3    H168926   0.475   1.876  12.099  0.5091  1.0362  3.5909
15837TIP3    H268927   0.536   1.979  12.006  1.1993 -2.1331  0.4324
15838TIP3   OH268928   4.513   6.316  11.452  0.2380  0.3648  0.1403
15838TIP3    H168929   4.437   6.273  11.491  1.2067 -2.2071 -0.6395
15838TIP3    H268930   4.534   6.261  11.376  1.4969  2.3279 -0.9727
15839TIP3   OH268931   5.476   1.365   3.387 -0.3702  0.2278  0.5941
15839TIP3    H168932   5.495   1.447   3.432  1.0167  0.5053 -0.4703
15839TIP3    H268933   5.418   1.390   3.315  1.0700  0.4767 -0.4914
15840TIP3   OH268934   4.187   0.914  13.232 -0.1364 -0.2101 -0.5828
15840TIP3    H168935   4.225   0.909  13.145  1.5886  0.4555  0.1080
15840TIP3    H268936   4.248   0.864  13.287 -0.3880  0.6706  0.5073
15841TIP3   OH268937   4.092   2.180  17.093  0.6406 -0.3192  0.9659
15841TIP3    H168938   4.163   2.145  17.039  0.2713  1.1175 -0.5142
15841TIP3    H268939   4.133   2.205  17.175  1.4257 -1.5375  0.9520
15842TIP3   OH268940   3.570   3.931  16.797 -0.1704 -0.1774  0.5170
15842TIP3    H168941   3.543   3.841  16.814 -0.2078  0.3852  3.8860
15842TIP3    H268942   3.658   3.937  16.834 -0.0655  1.0964  0.0977
15843TIP3   OH268943   5.189   0.868   5.796  0.0353 -0.1800 -0.2336
15843TIP3    H168944   5.207   0.783   5.835 -1.3296 -1.4831 -2.3176
15843TIP3    H268945   5.120   0.906   5.851 -1.1272 -1.5309 -0.7451
15844TIP3   OH268946   0.209   2.260   5.905  0.0938  0.1983 -0.9875
15844TIP3    H168947   0.198   2.176   5.949  1.0058  0.2150 -0.7288
15844TIP3    H268948   0.133   2.312   5.933  1.4223  0.7394  1.7659
15845TIP3   OH268949   3.671   3.827  12.123  0.2338 -0.2621 -0.0114
15845TIP3    H168950   3.757   3.853  12.156  0.2987 -0.0963 -0.3164
15845TIP3    H268951   3.634   3.774  12.194  0.9699 -1.1168 -0.2629
15846TIP3   OH268952   1.740   1.444  15.851 -0.6805  0.7801  0.1141
15846TIP3    H168953   1.751   1.388  15.774  1.1303  1.7420 -0.3685
15846TIP3    H268954   1.653   1.422  15.885  0.0999 -2.4408  0.0975
15847TIP3   OH268955   2.820   0.904   6.030  0.7718 -0.4046  0.6730
15847TIP3    H168956   2.910   0.873   6.037  0.9274  0.2679  1.7744
15847TIP3    H268957   2.788   0.906   6.121  0.7293  2.5345  0.6496
15848TIP3   OH268958   1.620   6.615   0.129  0.1659 -0.6074  0.0093
15848TIP3    H168959   1.631   6.577   0.042 -0.1466  0.2070 -0.3871
15848TIP3    H268960   1.603   6.708   0.113  1.7616 -0.1244  0.9894
15849TIP3   OH268961   6.470   2.200   1.710 -0.2531 -0.0075  0.9455
15849TIP3    H168962   6.384   2.167   1.734 -1.5229  2.6882  0.2913
15849TIP3    H268963   6.479   2.179   1.617 -1.0077  1.2898  0.5619
15850TIP3   OH268964   2.263   2.152   5.141 -0.3213  0.2178 -0.5455
15850TIP3    H168965   2.201   2.080   5.154 -0.8919  1.0333  1.4276
15850TIP3    H268966   2.278   2.154   5.047 -1.4283 -1.5460 -0.7810
15851TIP3   OH268967   5.053   5.729   4.875 -0.4000 -0.4467  0.1867
15851TIP3    H168968   4.960   5.715   4.857 -0.8162  3.0376 -0.8617
15851TIP3    H268969   5.097   5.707   4.794 -0.1342 -3.0832  0.9930
15852TIP3   OH268970   3.091   6.777   6.755  0.2542 -0.2189 -0.3765
15852TIP3    H168971   3.103   6.868   6.729 -0.9846  1.0184  3.0556
15852TIP3    H268972   3.012   6.749   6.708 -1.7075  1.8129  1.5446
15853TIP3   OH268973   0.349   3.147   4.399 -0.4995 -0.0995 -0.3721
15853TIP3    H168974   0.272   3.148   4.341  0.2363 -2.9738 -1.5092
15853TIP3    H268975   0.350   3.059   4.435  0.7090  0.7934  1.8451
15854TIP3   OH268976   5.904   6.573   0.414  0.5403  0.3379  0.2272
15854TIP3    H168977   5.968   6.510   0.449  2.1606  1.1261 -1.2918
15854TIP3    H268978   5.857   6.524   0.347  0.6308  0.2451  0.2314
15855TIP3   OH268979   3.130   4.690  15.859 -0.1851  0.2903  0.2971
15855TIP3    H168980   3.091   4.713  15.775  0.6738  2.1318  0.3806
15855TIP3    H268981   3.060   4.701  15.923 -0.3310  0.7020  0.0640
15856TIP3   OH268982   2.265   0.083   1.408 -0.1396  0.1319  0.2715
15856TIP3    H168983   2.343   0.027   1.399  0.1258  0.6406 -0.6649
15856TIP3    H268984   2.214   0.066   1.329 -0.7084  0.2216  0.6198
15857TIP3   OH268985   4.279   2.653   5.657  0.1030 -0.1269  0.0172
15857TIP3    H168986   4.262   2.568   5.616  0.9733 -0.0049 -0.6108
15857TIP3    H268987   4.227   2.715   5.606 -0.3825 -0.2542  0.3551
15858TIP3   OH268988   1.419   5.465  15.344 -0.4051  0.2522  0.3371
15858TIP3    H168989   1.485   5.409  15.302  0.4438 -0.3902  2.4501
15858TIP3    H268990   1.379   5.409  15.410 -2.6405  0.8510 -0.4847
15859TIP3   OH268991   4.311   3.175   3.743 -0.4651 -0.0219  0.7085
15859TIP3    H168992   4.307   3.268   3.722 -0.8099 -0.0376  0.7086
15859TIP3    H268993   4.282   3.170   3.835 -2.9256 -0.4166 -0.0540
15860TIP3   OH268994   5.192   4.705   3.367 -0.8739  0.0058 -0.4501
15860TIP3    H168995   5.194   4.746   3.453 -0.5508 -2.0212  0.5549
15860TIP3    H268996   5.218   4.774   3.307  0.5151  1.0363  1.2744
15861TIP3   OH268997   3.674   5.614  14.029 -0.1788  0.0224  0.3403
15861TIP3    H168998   3.694   5.529  13.991 -0.8128 -0.9561  2.1472
15861TIP3    H268999   3.644   5.667  13.955 -0.5153 -1.5550 -0.6631
15862TIP3   OH269000   4.146   1.317  12.614 -0.1649  0.1032  0.3020
15862TIP3    H169001   4.183   1.405  12.613 -1.8441  0.8685  1.9790
15862TIP3    H269002   4.218   1.261  12.642  0.8043  1.0063 -0.3613
15863TIP3   OH269003   5.676   3.494  13.165 -0.2383  0.5684  0.5384
15863TIP3    H169004   5.635   3.492  13.252 -1.3124  2.4605  0.0981
15863TIP3    H269005   5.604   3.474  13.105 -0.4559  3.4331 -0.2102
15864TIP3   OH269006   1.689   3.862  16.181  0.3280 -0.6302 -0.5387
15864TIP3    H169007   1.604   3.899  16.207  1.2119  1.0153  0.0746
15864TIP3    H269008   1.722   3.922  16.115  2.2032  0.2146  1.1207
15865TIP3   OH269009   4.169   0.904   5.186 -0.0775  0.3483  0.2107
15865TIP3    H169010   4.213   0.942   5.110 -0.3980  0.9811  0.3356
15865TIP3    H269011   4.166   0.810   5.168 -0.2097  0.5015 -0.5838
15866TIP3   OH269012   0.224   0.890  16.957 -0.3938 -0.0978  0.5200
15866TIP3    H169013   0.214   0.799  16.982  1.2823 -0.4337  0.0077
15866TIP3    H269014   0.308   0.917  16.995  0.2460  0.5436 -1.2596
15867TIP3   OH269015   5.775   4.619   3.039  0.7368 -0.1382  0.3938
15867TIP3    H169016   5.807   4.699   3.082 -0.2683 -0.0335  0.9580
15867TIP3    H269017   5.687   4.607   3.074  0.7207 -1.2565 -0.0278
15868TIP3   OH269018   5.988   6.336  13.888 -0.1065 -0.2610  0.0145
15868TIP3    H169019   5.986   6.342  13.793  0.2814 -0.0717  0.0179
15868TIP3    H269020   5.962   6.423  13.919  3.2992  0.8355  0.0667
15869TIP3   OH269021   0.909   5.740   0.868 -0.1506  0.5425 -0.3449
15869TIP3    H169022   0.922   5.816   0.925 -1.5916 -0.0365  0.7531
15869TIP3    H269023   0.815   5.736   0.853 -0.1028 -1.1130 -0.2975
15870TIP3   OH269024   5.816   4.019  15.535 -0.0099  0.2139  0.1045
15870TIP3    H169025   5.763   4.098  15.529  0.3722  0.5765  1.3476
15870TIP3    H269026   5.898   4.047  15.577  0.1083 -0.8434  0.6095
15871TIP3   OH269027   0.191   5.322  14.601  0.1952  0.3590 -0.0936
15871TIP3    H169028   0.106   5.360  14.579 -0.7527 -1.6998 -0.1535
15871TIP3    H269029   0.169   5.247  14.657  2.0330  0.3736  0.6692
15872TIP3   OH269030   4.756   3.095   4.074  0.3747  0.0837  0.2297
15872TIP3    H169031   4.815   3.022   4.091  0.3351  0.0554  0.2453
15872TIP3    H269032   4.690   3.060   4.015  1.7759  0.7867 -1.8015
15873TIP3   OH269033   6.347   1.147  16.345  0.4238 -0.1864  0.3938
15873TIP3    H169034   6.437   1.173  16.360  1.1703 -1.1545 -2.1385
15873TIP3    H269035   6.348   1.051  16.347  0.5718 -0.4537 -4.9202
15874TIP3   OH269036   5.951   0.908   2.861 -0.3545  0.2095  0.6015
15874TIP3    H169037   6.046   0.918   2.865 -0.2425 -0.6001 -0.1455
15874TIP3    H269038   5.929   0.856   2.939 -0.3239  1.3382  1.3897
15875TIP3   OH269039   4.608   5.505   5.400  0.0913 -0.6292  0.2314
15875TIP3    H169040   4.526   5.498   5.448  0.6866  0.0330  1.3547
15875TIP3    H269041   4.670   5.541   5.463  1.0215 -0.2739 -0.8712
15876TIP3   OH269042   2.885   4.271   4.903 -0.0719  0.3573  0.3215
15876TIP3    H169043   2.973   4.249   4.931  0.0119  0.6066  0.2547
15876TIP3    H269044   2.834   4.275   4.985 -0.3180 -1.0628  0.2579
15877TIP3   OH269045   3.976   1.786  13.484 -0.3608  0.5490  0.1732
15877TIP3    H169046   4.007   1.821  13.401 -1.1724 -0.7062 -0.6812
15877TIP3    H269047   3.976   1.691  13.471  1.3219  0.2136  2.2565
15878TIP3   OH269048   5.531   5.063  12.256 -0.2037  0.3320 -0.6278
15878TIP3    H169049   5.602   5.005  12.283 -0.4798 -0.8632 -2.3917
15878TIP3    H269050   5.574   5.142  12.224  0.2481  0.3871  0.1183
15879TIP3   OH269051   5.718   0.498   1.837 -0.1781 -0.2659 -0.0321
15879TIP3    H169052   5.813   0.496   1.833 -0.1684 -0.3894  0.2943
15879TIP3    H269053   5.696   0.474   1.927 -0.4849  0.7974  0.1791
15880TIP3   OH269054   1.185   4.987  16.681  0.8382 -0.3784  0.1218
15880TIP3    H169055   1.210   4.994  16.773 -1.0215 -2.9325  0.8850
15880TIP3    H269056   1.110   5.046  16.672  0.5719 -0.6657  0.4392
15881TIP3   OH269057   2.963   6.433  14.605 -0.3467 -0.2402 -0.2851
15881TIP3    H169058   3.055   6.432  14.576 -0.7269 -0.8884 -1.5448
15881TIP3    H269059   2.959   6.366  14.673 -0.3701 -1.9037 -1.8818
15882TIP3   OH269060   0.250   6.545   3.829 -0.3811 -0.0054  0.0971
15882TIP3    H169061   0.269   6.636   3.807  0.5072 -0.2705 -0.2489
15882TIP3    H269062   0.212   6.548   3.917 -0.1102  0.6749  0.1873
15883TIP3   OH269063   6.318   6.753   4.458 -0.0712 -0.6892  0.4380
15883TIP3    H169064   6.223   6.767   4.467 -0.2224 -1.1740 -0.3610
15883TIP3    H269065   6.327   6.702   4.377  1.0245  1.1445 -0.6478
15884TIP3   OH269066   0.640   0.199  16.718 -0.5342  0.6035 -0.0031
15884TIP3    H169067   0.553   0.237  16.729  0.2671  2.4388  0.3006
15884TIP3    H269068   0.649   0.137  16.789 -0.9683  1.6575  0.9879
15885TIP3   OH269069   1.693   3.653   1.688 -0.2503  0.3869  0.1517
15885TIP3    H169070   1.682   3.583   1.752 -1.8548  1.2915  0.8747
15885TIP3    H269071   1.655   3.730   1.729 -0.4445  1.1974 -1.5057
15886TIP3   OH269072   6.745   5.083   2.424  0.0164  0.4324  0.0894
15886TIP3    H169073   6.757   5.165   2.377 -0.3347 -1.1280 -2.8827
15886TIP3    H269074   6.651   5.064   2.416 -0.0868  0.2262  1.6071
15887TIP3   OH269075   4.043   3.690  16.562  0.2263 -0.0114 -0.6729
15887TIP3    H169076   3.993   3.672  16.482 -1.7369  0.0360  0.5115
15887TIP3    H269077   4.077   3.779  16.550  3.1238 -1.3573 -3.0413
15888TIP3   OH269078   4.974   6.299   2.076  0.2329 -0.2940  0.1780
15888TIP3    H169079   5.053   6.262   2.036  1.5430  2.7816 -0.2164
15888TIP3    H269080   4.962   6.247   2.156  2.2942 -1.2459 -0.0875
15889TIP3   OH269081   3.860   3.275   3.946 -0.3211  0.0775  0.0281
15889TIP3    H169082   3.822   3.307   4.027 -1.2158  0.4410 -0.5350
15889TIP3    H269083   3.951   3.306   3.948 -0.3501  0.1111  0.8679
15890TIP3   OH269084   0.043   1.550   2.514  0.0523 -0.6392  0.6636
15890TIP3    H169085   0.117   1.490   2.522  0.7124 -0.0633 -0.9180
15890TIP3    H269086   0.020   1.548   2.421  0.0999  1.5840  0.5741
15891TIP3   OH269087   4.233   0.742  10.456  0.9526  0.3233 -0.1307
15891TIP3    H169088   4.175   0.811  10.489  1.1856 -0.3940  1.8451
15891TIP3    H269089   4.178   0.663  10.458  1.7309 -0.2023  0.9725
15892TIP3   OH269090   1.253   3.721   3.291  0.1993  0.3220  0.3795
15892TIP3    H169091   1.160   3.699   3.294  0.1742  0.6113  2.0240
15892TIP3    H269092   1.295   3.656   3.348  0.7304  1.5237  1.3681
15893TIP3   OH269093   0.003   6.616   2.664  0.6177 -0.3597  0.3460
15893TIP3    H169094  -0.003   6.639   2.571  0.3758 -0.7879  0.2544
15893TIP3    H269095   0.067   6.546   2.668 -0.9751 -1.8474  0.2223
15894TIP3   OH269096   0.365   6.709  11.736 -0.1415  0.0311 -0.3190
15894TIP3    H169097   0.457   6.688  11.749  0.2999  1.7038 -0.6304
15894TIP3    H269098   0.359   6.739  11.645 -1.0142 -0.2278 -0.3527
15895TIP3   OH269099   1.297   2.508   0.332  0.0099  0.2796  0.5185
15895TIP3    H169100   1.377   2.455   0.337 -0.1658  0.1176  1.7440
15895TIP3    H269101   1.313   2.580   0.392 -0.6805  0.3660  0.5975
15896TIP3   OH269102   2.321   2.475  13.744  0.4100  0.4996 -0.1380
15896TIP3    H169103   2.269   2.540  13.791 -0.1034 -0.9266  1.3067
15896TIP3    H269104   2.359   2.420  13.813 -0.8330 -2.0095 -1.3721
15897TIP3   OH269105   3.085   2.084  13.547 -0.5085  0.1019  0.4503
15897TIP3    H169106   3.149   2.149  13.519 -0.6470 -0.1598 -0.4897
15897TIP3    H269107   3.013   2.135  13.585 -1.4284  0.6114 -1.9115
15898TIP3   OH269108   3.196   0.814  14.111  0.0577 -0.3792 -0.2225
15898TIP3    H169109   3.167   0.858  14.031 -0.2258  2.6262  1.4425
15898TIP3    H269110   3.291   0.805  14.100  0.1466  0.8431 -0.5277
15899TIP3   OH269111   1.620   3.325  11.758  0.5251  0.2619  0.2603
15899TIP3    H169112   1.689   3.351  11.698 -0.1648 -0.6292 -0.9454
15899TIP3    H269113   1.542   3.315  11.703 -0.4280  0.6508  1.4910
15900TIP3   OH269114   2.228   0.422   0.428 -0.1150  0.2966 -0.1497
15900TIP3    H169115   2.141   0.456   0.449 -0.4025 -1.1768  1.1546
15900TIP3    H269116   2.289   0.484   0.469 -0.5948  0.3303  0.5260
15901TIP3   OH269117   2.892   3.229   3.120 -0.0290 -0.5365 -0.5201
15901TIP3    H169118   2.808   3.207   3.080 -1.0068  0.5344  0.8917
15901TIP3    H269119   2.906   3.321   3.097  0.0804 -0.3167  0.4168
15902TIP3   OH269120   5.606   0.183  16.529  0.3253 -0.0347 -0.3550
15902TIP3    H169121   5.615   0.278  16.520  0.6398 -0.0537 -0.2348
15902TIP3    H269122   5.642   0.163  16.615  2.9205 -0.6237 -1.5531
15903TIP3   OH269123   3.036   3.163  10.880 -0.5013  0.2351 -0.4245
15903TIP3    H169124   3.085   3.085  10.856  1.3125  0.5717  1.9326
15903TIP3    H269125   3.054   3.226  10.810 -0.2582 -0.7682 -1.2663
15904TIP3   OH269126   6.372   3.414   1.407  0.0115 -0.2599  0.1084
15904TIP3    H169127   6.378   3.446   1.498 -0.0025  0.9282 -0.2986
15904TIP3    H269128   6.447   3.455   1.363 -0.4868 -0.1403 -0.6236
15905TIP3   OH269129   2.732   2.610   6.139  0.2255 -0.5169 -0.4681
15905TIP3    H169130   2.816   2.655   6.141  0.4828 -1.0233  2.8448
15905TIP3    H269131   2.754   2.519   6.122  0.3855 -0.6642  0.4810
15906TIP3   OH269132   3.309   4.719  13.385 -0.0223  0.1488 -0.3100
15906TIP3    H169133   3.257   4.681  13.314  2.1636 -1.3167 -1.1540
15906TIP3    H269134   3.339   4.644  13.436 -1.0242  1.1495  1.8236
15907TIP3   OH269135   1.619   0.624   3.331 -0.1230  0.1511  0.7308
15907TIP3    H169136   1.696   0.678   3.347 -0.2110  0.3796  0.3900
15907TIP3    H269137   1.651   0.552   3.276 -0.0091 -0.1372  1.1720
15908TIP3   OH269138   4.133   0.475  17.190  0.0065  0.2555 -0.2696
15908TIP3    H169139   4.042   0.462  17.161  1.0833 -1.6792 -3.0333
15908TIP3    H269140   4.163   0.551  17.141  0.2222  0.1947 -0.2341
15909TIP3   OH269141   5.908   3.340   6.413  0.5290  0.4901 -0.4644
15909TIP3    H169142   5.819   3.358   6.383  0.0188 -0.4689  0.4483
15909TIP3    H269143   5.959   3.414   6.382 -0.5102  0.8570 -1.3391
15910TIP3   OH269144   2.442   6.288  13.329  0.1451  0.1861  0.3012
15910TIP3    H169145   2.525   6.322  13.297 -0.0971 -0.6229 -1.2568
15910TIP3    H269146   2.377   6.350  13.298 -0.1204 -0.7534 -1.0332
15911TIP3   OH269147   6.738   4.763   0.370  0.0472  0.6137  0.2282
15911TIP3    H169148   6.715   4.825   0.301 -0.8636 -0.6284 -0.5889
15911TIP3    H269149   6.729   4.814   0.451 -0.0714  1.7270 -0.4663
15912TIP3   OH269150   5.473   6.168  12.250  0.1326  0.2768 -0.6842
15912TIP3    H169151   5.415   6.207  12.316  1.2699  2.0751 -0.7021
15912TIP3    H269152   5.539   6.236  12.233  0.2759 -0.4179 -3.1549
15913TIP3   OH269153   3.892   3.608   1.146  0.3185  0.1260 -0.3700
15913TIP3    H169154   3.881   3.518   1.175 -0.8944  0.1622 -0.7118
15913TIP3    H269155   3.908   3.601   1.052  1.4504  0.1993 -0.1972
15914TIP3   OH269156   2.814   2.800  11.078  0.2251 -0.3182  0.0634
15914TIP3    H169157   2.754   2.757  11.017 -1.9692  1.3889  0.9754
15914TIP3    H269158   2.782   2.889  11.086  1.6615  0.0568  2.1884
15915TIP3   OH269159   4.208   6.617   1.581 -0.4596 -0.1310  0.4021
15915TIP3    H169160   4.266   6.676   1.630 -1.0544  1.3720 -0.6684
15915TIP3    H269161   4.131   6.608   1.637 -0.3520  0.0565  0.5848
15916TIP3   OH269162   5.777   4.759  15.116  0.0237  0.3689 -0.3207
15916TIP3    H169163   5.757   4.820  15.188  0.5935  1.1764 -0.8364
15916TIP3    H269164   5.861   4.789  15.081  0.6884 -1.1975 -0.0957
15917TIP3   OH269165   5.549   4.597  13.605  0.4522 -0.3310  0.0835
15917TIP3    H169166   5.601   4.522  13.634  0.1860 -0.0755  1.2536
15917TIP3    H269167   5.605   4.641  13.540  1.3014 -0.5920  0.6277
15918TIP3   OH269168   4.829   3.111   3.788 -0.4549 -0.1563 -0.4366
15918TIP3    H169169   4.881   3.076   3.860  2.4270  1.3140 -1.7210
15918TIP3    H269170   4.834   3.044   3.720 -1.7215 -0.7790  0.0742
15919TIP3   OH269171   6.517   1.069   4.238  0.7259 -0.3567  0.7204
15919TIP3    H169172   6.499   0.989   4.189 -1.3864  0.5871 -0.0920
15919TIP3    H269173   6.563   1.126   4.176 -0.0661  0.0371  0.4961
15920TIP3   OH269174   3.526   2.869   2.348 -0.0297 -0.6555  0.2540
15920TIP3    H169175   3.485   2.859   2.434 -0.7510  0.2959  0.0221
15920TIP3    H269176   3.492   2.952   2.314  0.2891 -1.0016 -0.9327
15921TIP3   OH269177   2.055   5.561   4.014 -0.7816  0.3842 -0.1328
15921TIP3    H169178   2.024   5.638   3.968 -0.3872 -0.0974 -1.2073
15921TIP3    H269179   2.080   5.500   3.945  2.6454  0.7833  0.6987
15922TIP3   OH269180   4.133   4.658   6.429  0.1136  0.0226  0.0523
15922TIP3    H169181   4.158   4.691   6.515  1.2156  1.2977 -0.7390
15922TIP3    H269182   4.041   4.636   6.438  0.1723  0.3065  1.5090
15923TIP3   OH269183   4.551   5.994   6.506 -0.1045 -0.0587 -0.2441
15923TIP3    H169184   4.537   5.899   6.512  1.3176 -0.4261 -2.1984
15923TIP3    H269185   4.626   6.004   6.447  0.6547  2.2474  1.0312
15924TIP3   OH269186   3.621   6.077   4.727  0.1486  0.9101 -0.1981
15924TIP3    H169187   3.655   5.994   4.694  1.5870  1.1467  0.6713
15924TIP3    H269188   3.684   6.143   4.698  0.0336  1.4560  0.7613
15925TIP3   OH269189   5.176   4.379   2.015  0.1972 -0.3163  0.3610
15925TIP3    H169190   5.218   4.312   2.069  0.7397 -1.6208 -1.6188
15925TIP3    H269191   5.184   4.459   2.067  0.5865 -1.5314  2.2523
15926TIP3   OH269192   4.994   5.033   0.770  0.4958  0.1229  0.6213
15926TIP3    H169193   4.937   5.077   0.833  1.0344  0.9022  0.5798
15926TIP3    H269194   4.941   5.026   0.691  0.2078  0.1934  0.8098
15927TIP3   OH269195   6.140   2.742  12.219  0.8327 -0.0017 -0.1833
15927TIP3    H169196   6.102   2.776  12.300  0.8195 -1.0365  0.2453
15927TIP3    H269197   6.228   2.780  12.217  0.4109  0.9936 -0.3004
15928TIP3   OH269198   5.600   1.335  17.113  0.4046 -0.2080  0.0527
15928TIP3    H169199   5.557   1.395  17.051  1.5504 -0.6357 -1.1888
15928TIP3    H269200   5.562   1.357  17.198 -1.3045  0.3078 -0.8131
15929TIP3   OH269201   3.106   1.025   4.371 -0.3200  0.4765  0.5340
15929TIP3    H169202   3.167   0.998   4.302 -1.6347  0.2776 -0.5729
15929TIP3    H269203   3.110   0.955   4.436  0.3319  0.2673  0.2677
15930TIP3   OH269204   3.128   2.742   6.444 -0.4225  0.3492 -0.1770
15930TIP3    H169205   3.101   2.833   6.432 -0.7718  0.1182 -1.2464
15930TIP3    H269206   3.161   2.715   6.358  0.4240 -0.2923  0.3418
15931TIP3   OH269207   4.637   4.567   6.316 -0.1707 -0.6687 -0.1695
15931TIP3    H169208   4.650   4.475   6.335  0.5297 -0.5702 -0.1792
15931TIP3    H269209   4.632   4.609   6.402  1.6633 -0.4122 -0.1812
15932TIP3   OH269210   6.516   4.685  15.702  0.0351  0.0801  0.4508
15932TIP3    H169211   6.603   4.702  15.739  0.7070  0.2854 -1.1436
15932TIP3    H269212   6.516   4.734  15.620 -1.3750 -0.3967  0.1592
15933TIP3   OH269213   6.464   3.869   6.659 -0.6756 -0.1504 -0.3683
15933TIP3    H169214   6.393   3.907   6.608 -0.3823  0.2597 -0.4692
15933TIP3    H269215   6.544   3.909   6.623 -0.5703  1.3013  1.4245
15934TIP3   OH269216   5.349   4.102  15.752 -0.7895 -0.0301  0.4143
15934TIP3    H169217   5.257   4.093  15.777 -1.4328  1.2264 -1.3742
15934TIP3    H269218   5.387   4.156  15.821 -1.1823 -1.2220  1.5885
15935TIP3   OH269219   2.631   0.960   0.138  0.1787  0.3774 -0.0238
15935TIP3    H169220   2.660   1.042   0.176  1.4276 -0.6688  1.3683
15935TIP3    H269221   2.551   0.938   0.187 -0.6347  1.1672 -0.9780
15936TIP3   OH269222   6.067   0.921  13.271 -0.7188  0.0315 -0.6650
15936TIP3    H169223   6.128   0.907  13.199  0.1325  1.3233 -0.2229
15936TIP3    H269224   5.980   0.920  13.231 -0.3589 -0.9031 -1.4397
15937TIP3   OH269225   2.720   3.838  12.546  0.1067  0.2802 -0.8769
15937TIP3    H169226   2.699   3.834  12.453  1.7764 -0.1228 -1.2521
15937TIP3    H269227   2.704   3.749  12.578  0.8885  0.0638 -1.0845
15938TIP3   OH269228   4.865   0.893   1.603  0.3433  0.3181  0.4598
15938TIP3    H169229   4.919   0.830   1.555 -0.0274  0.2367  0.1423
15938TIP3    H269230   4.915   0.974   1.602  0.2962  0.3427 -0.1539
15939TIP3   OH269231   2.849   2.154  11.193  0.2404  0.2800  0.1534
15939TIP3    H169232   2.801   2.164  11.110  0.5000 -0.1952 -0.0549
15939TIP3    H269233   2.940   2.141  11.166  0.0182 -1.9949  0.4503
15940TIP3   OH269234   3.997   2.976  16.178  0.9089  0.3217 -0.1418
15940TIP3    H169235   4.092   2.961  16.175  0.9300  0.2507  0.7437
15940TIP3    H269236   3.959   2.891  16.155  1.0558 -0.0378  0.9282
15941TIP3   OH269237   0.988   3.596   1.982  0.4356  0.4456 -0.4898
15941TIP3    H169238   0.956   3.585   2.072 -0.9594  0.7699 -0.9365
15941TIP3    H269239   0.976   3.689   1.963 -1.3637 -0.0023 -1.7572
15942TIP3   OH269240   3.615   4.253  12.700 -0.2515 -0.9198 -0.7786
15942TIP3    H169241   3.590   4.275  12.610 -0.9510  1.1383 -0.0897
15942TIP3    H269242   3.706   4.280  12.707 -0.5525  0.0234 -0.5045
15943TIP3   OH269243   4.438   2.113   5.049  0.6958 -0.0565  0.0579
15943TIP3    H169244   4.461   2.090   5.139 -0.0646  1.1549  0.5746
15943TIP3    H269245   4.481   2.046   4.996  0.1230 -1.5244  1.3852
15944TIP3   OH269246   4.321   5.331  15.208 -0.2461 -0.4101  0.3380
15944TIP3    H169247   4.250   5.293  15.156 -2.1496  1.8498  1.2748
15944TIP3    H269248   4.282   5.406  15.253  1.9454 -0.9427  3.2741
15945TIP3   OH269249   2.461   4.354  11.797  0.4239  0.7992  0.2042
15945TIP3    H169250   2.374   4.318  11.814  0.6763  0.5113  0.8802
15945TIP3    H269251   2.468   4.429  11.856  1.5913 -0.6510  1.9305
15946TIP3   OH269252   2.819   2.870  13.680  0.0829  0.0938 -0.7270
15946TIP3    H169253   2.769   2.807  13.628  0.7936  1.1943 -2.7810
15946TIP3    H269254   2.799   2.955  13.641  0.4363  0.9722  0.9709
15947TIP3   OH269255   1.775   4.406   2.710 -0.0806 -0.5342  0.0406
15947TIP3    H169256   1.751   4.450   2.629  1.9510 -1.0783 -0.8807
15947TIP3    H269257   1.692   4.374   2.745 -1.3799  2.4697 -0.1511
15948TIP3   OH269258   3.658   4.703   3.925  0.5558 -0.0706  0.3056
15948TIP3    H169259   3.616   4.661   3.850 -2.2607  0.3072  1.5915
15948TIP3    H269260   3.740   4.655   3.937  0.7430 -0.5763 -2.5569
15949TIP3   OH269261   6.634   1.504  14.034 -0.1917 -0.2708  0.0362
15949TIP3    H169262   6.586   1.499  14.116 -0.1418  0.3886  0.1077
15949TIP3    H269263   6.709   1.560  14.053 -0.1201 -0.2077 -0.4328
15950TIP3   OH269264   3.924   4.585   3.245  1.1047 -0.1318 -0.6485
15950TIP3    H169265   3.961   4.620   3.164 -0.7783 -0.7815 -1.8501
15950TIP3    H269266   3.830   4.578   3.227  0.6441 -0.2408  1.6275
15951TIP3   OH269267   1.368   6.234  16.281  0.0349 -0.2773 -0.6255
15951TIP3    H169268   1.332   6.321  16.299  2.8840  0.9058 -0.1957
15951TIP3    H269269   1.293   6.176  16.278 -1.8271  2.0085  0.3218
15952TIP3   OH269270   2.298   5.169  13.981 -0.2962  0.0493  0.5567
15952TIP3    H169271   2.311   5.128  13.896 -0.4000 -1.4772  1.2593
15952TIP3    H269272   2.360   5.242  13.983 -0.9075  0.6344 -1.1600
15953TIP3   OH269273   2.674   2.458   3.336  0.4976  0.2227 -0.0213
15953TIP3    H169274   2.652   2.534   3.283 -0.7741 -0.1275 -0.0066
15953TIP3    H269275   2.678   2.491   3.426  0.4209  0.3565 -0.0684
15954TIP3   OH269276   0.284   4.400  14.377  0.2611  0.3303  0.1755
15954TIP3    H169277   0.352   4.372  14.317  1.0506 -2.0614  2.0934
15954TIP3    H269278   0.324   4.394  14.464 -2.1091 -0.3062  1.2719
15955TIP3   OH269279   2.184   5.426  13.001 -0.3784 -0.3678 -0.4244
15955TIP3    H169280   2.266   5.426  13.049 -0.8723  0.1747  0.4373
15955TIP3    H269281   2.199   5.483  12.926  0.0833 -0.3963 -0.3508
15956TIP3   OH269282   6.268   3.412  13.377 -0.2639 -0.2497 -0.5012
15956TIP3    H169283   6.303   3.480  13.320 -0.4867  0.4652  0.2083
15956TIP3    H269284   6.317   3.333  13.353  1.1538  0.5194 -0.1863
15957TIP3   OH269285   1.957   6.535  17.145  0.4802  0.1900  0.4256
15957TIP3    H169286   2.045   6.555  17.112 -0.1660  1.5194 -0.5114
15957TIP3    H269287   1.950   6.585  17.226  1.0727 -0.9892  1.2296
15958TIP3   OH269288   4.174   6.077  10.945  0.4678  0.3084  0.4041
15958TIP3    H169289   4.155   6.008  11.009  4.0999  0.4416  1.7770
15958TIP3    H269290   4.147   6.158  10.988  0.0053  0.1143  0.4824
15959TIP3   OH269291   0.104   0.543  12.872  0.1265 -0.2973 -0.0274
15959TIP3    H169292   0.145   0.613  12.922 -0.6766  0.9727 -1.0882
15959TIP3    H269293   0.171   0.514  12.810 -0.1527  0.8951 -0.9002
15960TIP3   OH269294   5.001   2.811  16.280 -0.2939  0.5124 -0.8610
15960TIP3    H169295   4.928   2.872  16.272  0.1560  1.0320 -1.0642
15960TIP3    H269296   4.985   2.745  16.212 -0.6510  0.5444 -0.8060
15961TIP3   OH269297   1.654   6.259   0.676  0.2878 -0.4631  0.5627
15961TIP3    H169298   1.740   6.300   0.682 -0.3977  1.0901 -0.0502
15961TIP3    H269299   1.669   6.178   0.626  1.4494 -0.4285  0.8431
15962TIP3   OH269300   3.962   0.809  17.186 -0.1503 -0.4789  0.1169
15962TIP3    H169301   4.038   0.795  17.129  0.1425  1.8964 -0.1336
15962TIP3    H269302   3.923   0.891  17.153 -1.6935 -0.6559  1.4661
15963TIP3   OH269303   1.279   5.320  11.811  0.2322 -0.2358 -0.4079
15963TIP3    H169304   1.279   5.245  11.870  1.8226 -0.1907 -0.3258
15963TIP3    H269305   1.293   5.283  11.724  0.0722 -0.1138 -0.4874
15964TIP3   OH269306   4.720   4.601  13.127 -0.6111 -0.1455 -0.0871
15964TIP3    H169307   4.708   4.683  13.079  0.8288 -0.0617 -0.3408
15964TIP3    H269308   4.730   4.534  13.059 -2.2086 -0.6095  0.1188
15965TIP3   OH269309   2.001   2.181  13.423 -0.1108  0.0394  0.1758
15965TIP3    H169310   2.062   2.222  13.362  0.5354  0.3268  1.0164
15965TIP3    H269311   1.917   2.225  13.407  0.3422  0.9693  0.3541
15966TIP3   OH269312   1.170   4.326  14.132 -0.4117  0.0262 -0.1154
15966TIP3    H169313   1.262   4.301  14.143 -1.0485 -2.2812  0.2053
15966TIP3    H269314   1.123   4.268  14.192 -2.1274  0.7747 -0.7271
15967TIP3   OH269315   1.763   6.578  15.630  0.3270 -0.0862  0.1777
15967TIP3    H169316   1.845   6.582  15.679  0.3456  0.5833  0.0922
15967TIP3    H269317   1.695   6.578  15.697  0.4067 -1.4589  0.2828
15968TIP3   OH269318   4.014   1.394  17.021  0.1227  0.3098 -0.0883
15968TIP3    H169319   4.103   1.375  17.049  0.2065 -1.6470 -1.5384
15968TIP3    H269320   3.958   1.361  17.091  0.4932 -0.1217  0.0040
15969TIP3   OH269321   4.804   6.500  16.202  0.0570  0.8192  0.0677
15969TIP3    H169322   4.748   6.578  16.207  0.0366  0.7186  1.4119
15969TIP3    H269323   4.771   6.442  16.271  0.8743  0.1394 -0.1118
15970TIP3   OH269324   1.997   5.264  16.121 -0.3382  0.5457  0.2510
15970TIP3    H169325   1.917   5.316  16.112 -0.1755  0.8051  0.2965
15970TIP3    H269326   2.067   5.324  16.096 -0.2278  0.0699 -0.5690
15971TIP3   OH269327   1.304   0.860   0.438 -0.0949  0.4206  0.4535
15971TIP3    H169328   1.329   0.952   0.450 -1.1974  0.7146  0.5802
15971TIP3    H269329   1.385   0.811   0.451  0.4450  1.3582  0.6609
15972TIP3   OH269330   2.432   6.132  16.528 -0.1641 -0.1424 -0.3504
15972TIP3    H169331   2.525   6.119  16.510  0.2575  1.6372  0.3819
15972TIP3    H269332   2.429   6.166  16.617 -1.5159 -0.1495 -0.3706
15973TIP3   OH269333   2.520   6.102   4.900 -0.4718  0.7828 -0.0220
15973TIP3    H169334   2.488   6.096   4.810 -1.3064 -0.5891  0.3593
15973TIP3    H269335   2.520   6.196   4.919 -0.9706  1.0291 -1.2094
15974TIP3   OH269336   3.821   2.135   4.111 -0.2787 -0.0173 -0.0040
15974TIP3    H169337   3.787   2.171   4.029 -1.6931  2.1937  1.5208
15974TIP3    H269338   3.879   2.064   4.083 -0.5254  0.8645 -2.9233
15975TIP3   OH269339   1.394   0.628   1.258  0.5308  0.2432  0.2413
15975TIP3    H169340   1.437   0.711   1.240  1.4542  0.1991  2.1129
15975TIP3    H269341   1.346   0.642   1.339  1.7557 -1.3958  1.2989
15976TIP3   OH269342   1.382   2.428  16.503 -0.4002 -0.5051 -0.1058
15976TIP3    H169343   1.464   2.475  16.488 -0.3401 -0.2194  1.0853
15976TIP3    H269344   1.330   2.488  16.557 -0.5187 -1.6019  1.0126
15977TIP3   OH269345   6.270   0.028  10.989 -0.4483 -0.5037 -0.6296
15977TIP3    H169346   6.196   0.067  11.036 -0.2048 -0.3800 -0.3447
15977TIP3    H269347   6.276   0.079  10.908  0.0555  0.2563 -0.1241
15978TIP3   OH269348   0.464   5.553  12.301 -0.4855  0.0957 -0.0571
15978TIP3    H169349   0.534   5.533  12.239 -1.4781  2.2389 -1.9624
15978TIP3    H269350   0.502   5.617  12.361  0.2600 -1.4464  1.1393
15979TIP3   OH269351   3.559   2.727  16.734  0.0662  0.5071 -0.0507
15979TIP3    H169352   3.618   2.793  16.700  0.7735 -0.5308 -0.8669
15979TIP3    H269353   3.558   2.741  16.829 -0.9499  2.6144 -0.3557
15980TIP3   OH269354   1.009   1.817   2.792 -0.3449  0.6021  0.0594
15980TIP3    H169355   1.015   1.909   2.815 -1.9732  0.6979  0.1977
15980TIP3    H269356   1.081   1.775   2.840  0.8767  1.9037 -0.6292
15981TIP3   OH269357   6.387   2.189  12.741  0.2673 -0.8195  0.2800
15981TIP3    H169358   6.330   2.112  12.734 -0.0418 -0.4140 -2.0237
15981TIP3    H269359   6.331   2.262  12.712  1.4686 -0.1868 -0.4744
15982TIP3   OH269360   4.428   5.375  12.785 -0.2250  0.4421  0.1210
15982TIP3    H169361   4.446   5.351  12.876  0.7413  1.2380  0.1531
15982TIP3    H269362   4.431   5.292  12.737 -0.3736  0.0674  0.7635
15983TIP3   OH269363   4.154   1.408  13.631  0.5742  0.7937 -0.1424
15983TIP3    H169364   4.208   1.331  13.612 -0.6344  0.1482 -1.0147
15983TIP3    H269365   4.213   1.468  13.677  1.4688 -0.7392  0.7583
15984TIP3   OH269366   5.691   5.506  13.096  0.2468 -0.0065  0.1980
15984TIP3    H169367   5.731   5.430  13.053  0.8248  0.3118  0.1730
15984TIP3    H269368   5.613   5.525  13.043  1.0355  0.4724 -0.8039
15985TIP3   OH269369   0.447   3.182   0.368 -0.0293 -0.3485 -0.5603
15985TIP3    H169370   0.507   3.124   0.322  0.1950 -1.3912  0.9987
15985TIP3    H269371   0.361   3.161   0.331  0.2600 -0.5067 -1.1550
15986TIP3   OH269372   2.155   5.644   3.474  0.0152  0.0092  0.6295
15986TIP3    H169373   2.174   5.678   3.387 -1.1425 -0.1168  0.3165
15986TIP3    H269374   2.197   5.558   3.477 -0.0998 -0.0644  0.1267
15987TIP3   OH269375   2.987   1.421  13.660  0.5174  0.5762 -0.2941
15987TIP3    H169376   3.041   1.491  13.697  2.7611 -2.7284  3.0328
15987TIP3    H269377   3.028   1.403  13.575  1.0973  2.0019 -0.3409
15988TIP3   OH269378   4.826   4.426   6.861 -0.1727  0.1977  0.1304
15988TIP3    H169379   4.765   4.475   6.806  0.2251 -1.1321 -1.5092
15988TIP3    H269380   4.901   4.407   6.805  0.3629 -0.9326  1.1885
15989TIP3   OH269381   0.170   1.259  13.864  0.3121 -0.1421 -0.0074
15989TIP3    H169382   0.208   1.342  13.834 -0.1694 -0.1401 -0.6284
15989TIP3    H269383   0.082   1.258  13.827  0.5443 -1.2303 -0.5630
15990TIP3   OH269384   5.776   5.721   0.919  0.8379  0.4150  0.0998
15990TIP3    H169385   5.859   5.764   0.897  0.1915  0.8375 -1.5543
15990TIP3    H269386   5.710   5.788   0.903 -0.0069 -0.5928 -0.6390
15991TIP3   OH269387   6.729   0.218  11.112  0.1842  0.0978 -0.7511
15991TIP3    H169388   6.674   0.290  11.144  0.2751  0.5474 -1.5833
15991TIP3    H269389   6.670   0.143  11.106  0.2811 -0.1390  0.9534
15992TIP3   OH269390   0.983   2.268   1.205 -0.1654 -0.0851 -0.9400
15992TIP3    H169391   1.018   2.342   1.257 -1.1157 -0.5657  0.4165
15992TIP3    H269392   1.052   2.202   1.210  0.0841  0.1698 -0.9549
15993TIP3   OH269393   1.397   3.832   3.088 -0.2304 -0.2292 -0.3440
15993TIP3    H169394   1.364   3.799   3.005 -2.9662 -0.1988  0.7002
15993TIP3    H269395   1.348   3.784   3.155  0.4645  1.2112  1.2533
15994TIP3   OH269396   1.612   3.438  13.459 -0.2581 -0.3223  0.7423
15994TIP3    H169397   1.553   3.382  13.408 -0.9050 -1.0131  2.2332
15994TIP3    H269398   1.690   3.446  13.403 -0.6245 -1.7494 -0.0143
15995TIP3   OH269399   5.951   3.355   4.361  0.1031  0.2059 -0.7048
15995TIP3    H169400   5.864   3.356   4.321 -0.2072 -0.1984 -0.0512
15995TIP3    H269401   5.937   3.391   4.449  0.7406  0.8894 -0.8826
15996TIP3   OH269402   2.157   5.054  11.652 -0.3572 -0.0411  0.2482
15996TIP3    H169403   2.136   5.011  11.569 -0.2515 -1.9656  1.1877
15996TIP3    H269404   2.076   5.099  11.677 -1.1177 -1.3956  0.2571
15997TIP3   OH269405   6.066   6.090   3.175 -0.3244 -0.1085  1.0424
15997TIP3    H169406   6.066   6.163   3.113  0.0965 -0.9114  0.0744
15997TIP3    H269407   6.127   6.117   3.243  1.3260 -0.3488 -0.2963
15998TIP3   OH269408   1.729   6.547   4.620  0.1148 -0.0415  0.0761
15998TIP3    H169409   1.772   6.476   4.573  0.7583  0.1837  0.3243
15998TIP3    H269410   1.753   6.533   4.712  0.1663  0.4468  0.1384
15999TIP3   OH269411   2.538   0.098  11.724 -0.0463 -0.0336 -0.0765
15999TIP3    H169412   2.508   0.010  11.698  0.5760 -0.7478  1.5318
15999TIP3    H269413   2.622   0.108  11.681  1.2547 -1.4499  2.0296
16000TIP3   OH269414   1.638   5.814  15.668 -0.5256  0.3269 -0.1342
16000TIP3    H169415   1.674   5.747  15.611 -0.5802 -0.0715  0.2994
16000TIP3    H269416   1.599   5.766  15.741  0.5556  0.8644  0.8246
16001TIP3   OH269417   0.845   3.648   4.703  0.2517  0.7825  0.4685
16001TIP3    H169418   0.867   3.686   4.618  0.8069 -0.8754 -0.1528
16001TIP3    H269419   0.787   3.712   4.743 -1.2579  0.9325 -1.8158
16002TIP3   OH269420   4.358   2.728   3.389  0.1744  0.0478  0.0092
16002TIP3    H169421   4.349   2.796   3.322 -0.8626 -0.5827 -0.5033
16002TIP3    H269422   4.352   2.775   3.472 -0.1465  0.6351 -0.3472
16003TIP3   OH269423   1.725   1.457   1.382  0.5218  0.1009 -1.0034
16003TIP3    H169424   1.788   1.474   1.452  0.2581  1.0401 -0.9813
16003TIP3    H269425   1.715   1.362   1.381 -0.7515  0.1756  1.3625
16004TIP3   OH269426   6.140   0.431  14.011 -0.0092 -0.4765  0.0038
16004TIP3    H169427   6.228   0.397  13.996 -0.7307 -1.9462 -1.0098
16004TIP3    H269428   6.083   0.354  14.004 -1.3911  0.4839  0.4847
16005TIP3   OH269429   6.549   2.146  11.252 -0.2188 -0.1408  0.6244
16005TIP3    H169430   6.539   2.241  11.251 -0.7235 -0.1789  1.6693
16005TIP3    H269431   6.627   2.130  11.199  0.7456  0.9666  1.6814
16006TIP3   OH269432   1.026   4.532  14.250 -0.1676  0.2806  0.3653
16006TIP3    H169433   1.093   4.464  14.248 -0.3860  0.0718  0.0603
16006TIP3    H269434   0.995   4.533  14.340 -0.6764 -0.5317  0.2094
16007TIP3   OH269435   5.227   4.300   5.634  0.4735 -0.0014  0.7749
16007TIP3    H169436   5.292   4.367   5.614  0.9081 -1.1041 -1.7204
16007TIP3    H269437   5.155   4.318   5.573  0.3510 -1.4547  0.4683
16008TIP3   OH269438   4.786   3.650   3.023  0.2948  0.4549 -0.7759
16008TIP3    H169439   4.692   3.648   3.040  0.2341 -0.8255 -1.2226
16008TIP3    H269440   4.815   3.735   3.056 -0.1515 -1.1185  3.9229
16009TIP3   OH269441   0.753   3.118  12.324 -0.3741  0.1035 -0.4621
16009TIP3    H169442   0.806   3.056  12.274 -1.2897  1.0501 -2.6266
16009TIP3    H269443   0.796   3.122  12.410 -0.0637 -3.2057 -0.3990
16010TIP3   OH269444   5.852   3.061  15.191 -0.4937 -0.4684  0.2087
16010TIP3    H169445   5.944   3.068  15.165 -0.8979  0.0336 -1.1264
16010TIP3    H269446   5.855   3.022  15.279  0.9713 -0.8214  0.0219
16011TIP3   OH269447   2.848   6.442   3.987  0.4575  0.4041 -0.1874
16011TIP3    H169448   2.781   6.505   3.959 -0.3764 -0.4811 -0.1852
16011TIP3    H269449   2.924   6.497   4.008 -0.2355  1.4122 -0.2538
16012TIP3   OH269450   1.536   2.123  15.123  0.0129 -0.0603 -0.3537
16012TIP3    H169451   1.497   2.175  15.052  1.3830  0.4784 -0.7330
16012TIP3    H269452   1.465   2.111  15.186 -1.1148 -0.2192 -1.6407
16013TIP3   OH269453   1.869   5.423   4.616 -0.4416 -0.2673  0.4366
16013TIP3    H169454   1.790   5.419   4.562 -1.4141  1.3959  1.6984
16013TIP3    H269455   1.838   5.451   4.702  1.6159  0.9984  0.7908
16014TIP3   OH269456   4.853   1.794  16.197 -0.3733  0.2167  0.0180
16014TIP3    H169457   4.854   1.858  16.126 -1.9344  0.8541  0.5443
16014TIP3    H269458   4.913   1.830  16.262 -1.2643  1.1819  0.3226
16015TIP3   OH269459   5.846   2.331   2.974 -0.2685  0.1102 -0.1260
16015TIP3    H169460   5.782   2.371   2.915 -1.8888 -2.6508 -0.3358
16015TIP3    H269461   5.796   2.266   3.023  2.1083 -1.1816  0.6818
16016TIP3   OH269462   1.326   4.050  12.600 -0.6418 -0.4203 -0.2160
16016TIP3    H169463   1.354   3.959  12.591  1.5611  0.1821  0.1214
16016TIP3    H269464   1.285   4.071  12.516 -0.2286 -1.4202 -0.6752
16017TIP3   OH269465   0.231   4.968  12.281 -0.2269 -0.0463  0.2048
16017TIP3    H169466   0.279   4.897  12.324  0.4784  0.0156 -0.4626
16017TIP3    H269467   0.139   4.948  12.297  0.0052 -0.4335  1.0883
16018TIP3   OH269468   3.039   2.205   0.863  0.0463 -0.7079 -0.5728
16018TIP3    H169469   3.106   2.211   0.795  1.2280 -1.2142  0.5053
16018TIP3    H269470   3.089   2.197   0.944 -1.3255  1.8424  0.5630
16019TIP3   OH269471   4.041   3.697   3.507  0.0446 -0.3705  0.0286
16019TIP3    H169472   3.951   3.714   3.479 -0.0543 -0.3364  0.3627
16019TIP3    H269473   4.075   3.633   3.445 -0.1985 -0.3534 -0.1192
16020TIP3   OH269474   1.141   4.601   3.687  0.1812 -0.6789  0.2797
16020TIP3    H169475   1.089   4.643   3.619 -1.7173 -2.8748  0.2786
16020TIP3    H269476   1.221   4.574   3.643  0.0312  0.0789 -0.4730
16021TIP3   OH269477   1.147   1.272   0.086  0.2220 -0.4898 -0.5477
16021TIP3    H169478   1.188   1.350   0.049 -0.0507 -0.7007 -1.3158
16021TIP3    H269479   1.066   1.305   0.127  0.9034 -0.1475  0.5362
16022TIP3   OH269480   2.216   6.201  12.459  0.4967  0.1216  0.1557
16022TIP3    H169481   2.160   6.278  12.471  1.8903  1.2953 -0.7381
16022TIP3    H269482   2.183   6.160  12.378 -0.5392 -0.5015  0.8767
16023TIP3   OH269483   1.521   2.835   2.045  0.5005 -0.0385 -0.3888
16023TIP3    H169484   1.591   2.782   2.007  0.9495  1.0182 -1.0266
16023TIP3    H269485   1.482   2.880   1.971  0.0680  0.4853  0.1548
16024TIP3   OH269486   4.618   0.523  11.558  0.1036  0.1114 -0.3099
16024TIP3    H169487   4.615   0.487  11.469  0.0654  0.4787 -0.4586
16024TIP3    H269488   4.542   0.582  11.562  0.7019  0.8927 -0.3761
16025TIP3   OH269489   1.136   6.569  16.785  0.1270 -0.5908  0.1925
16025TIP3    H169490   1.141   6.538  16.694  1.0407 -0.3415  0.1495
16025TIP3    H269491   1.156   6.663  16.779  0.7931 -0.6969  0.7179
16026TIP3   OH269492   5.020   2.006   5.345 -0.3252 -0.3322  0.4459
16026TIP3    H169493   5.007   1.945   5.417  0.3171 -0.8078  0.1631
16026TIP3    H269494   5.053   1.953   5.273  1.3360  0.5210  0.5525
16027TIP3   OH269495   6.433   0.897   3.357  0.0151  0.6148 -0.0155
16027TIP3    H169496   6.497   0.843   3.403  0.5875 -0.3277 -1.9040
16027TIP3    H269497   6.411   0.966   3.420 -1.0259 -1.9954  2.5762
16028TIP3   OH269498   1.880   4.514   4.147  0.1247  0.2759  0.2853
16028TIP3    H169499   1.966   4.493   4.111  0.1971  0.3378  0.4205
16028TIP3    H269500   1.841   4.574   4.084  0.1032  0.0932  0.1268
16029TIP3   OH269501   5.322   1.371  15.548 -0.5386 -0.3192  0.3147
16029TIP3    H169502   5.274   1.449  15.576 -0.5758 -0.1876 -0.1126
16029TIP3    H269503   5.272   1.298  15.585 -1.1299 -0.1883 -0.2175
16030TIP3   OH269504   6.111   5.996   2.557  0.3275 -0.1550  0.3148
16030TIP3    H169505   6.168   5.933   2.602 -0.6125 -1.5027 -0.3502
16030TIP3    H269506   6.031   5.947   2.538 -0.1341  1.0311 -0.8742
16031TIP3   OH269507   4.629   3.862   1.634  0.0416  0.2706  0.1505
16031TIP3    H169508   4.557   3.926   1.637 -0.6819 -0.5035 -0.7089
16031TIP3    H269509   4.674   3.880   1.552 -1.4616 -1.7119 -1.1482
16032TIP3   OH269510   3.778   5.035  13.861 -0.6978  0.0173  0.2405
16032TIP3    H169511   3.768   5.064  13.770  0.3502 -1.6859 -0.4476
16032TIP3    H269512   3.721   4.959  13.869 -0.9529  0.2890  1.0790
16033TIP3   OH269513   3.823   4.300  14.091 -0.2464 -0.1790  0.5035
16033TIP3    H169514   3.777   4.228  14.134  0.0609 -0.9081 -0.3683
16033TIP3    H269515   3.753   4.351  14.051 -0.3628 -0.9706 -0.3369
16034TIP3   OH269516   0.189   5.599  12.380  0.0159 -0.3296 -0.3751
16034TIP3    H169517   0.228   5.684  12.401  0.0639 -0.1875 -1.0399
16034TIP3    H269518   0.262   5.546  12.350 -0.0823 -0.4853 -0.3388
16035TIP3   OH269519   5.844   4.713   1.743 -0.1458 -0.2837 -0.7943
16035TIP3    H169520   5.906   4.641   1.752 -1.3714 -1.3923 -0.9463
16035TIP3    H269521   5.862   4.770   1.818  2.7552  0.7915 -2.2366
16036TIP3   OH269522   2.256   2.728  11.184  0.3347  0.0611 -0.3348
16036TIP3    H169523   2.201   2.695  11.113 -0.3277  1.3143 -0.4183
16036TIP3    H269524   2.338   2.681  11.175 -0.5349 -1.4192 -0.5604
16037TIP3   OH269525   3.037   2.749   4.049 -0.1724 -0.1059 -0.2480
16037TIP3    H169526   3.132   2.755   4.051 -0.1911  0.3711 -0.6556
16037TIP3    H269527   3.008   2.784   4.134  0.1355 -2.9284  1.0735
16038TIP3   OH269528   2.701   3.479   3.403 -0.7282  0.1505  0.6203
16038TIP3    H169529   2.628   3.493   3.343  1.7729  0.5380 -2.4536
16038TIP3    H269530   2.731   3.390   3.384 -0.4620 -0.0641  1.9743
16039TIP3   OH269531   1.289   1.209   3.772 -0.4253 -0.2595  0.2717
16039TIP3    H169532   1.234   1.133   3.792 -0.4664 -0.5258 -0.8431
16039TIP3    H269533   1.342   1.181   3.698  0.6211  0.2902  0.8089
16040TIP3   OH269534   6.070   3.966  16.879  0.6298 -0.5410 -0.2191
16040TIP3    H169535   6.152   4.007  16.850  1.0399 -0.3737  1.1443
16040TIP3    H269536   6.001   4.017  16.835  1.2396 -0.5478 -1.2001
16041TIP3   OH269537   5.809   1.644   3.113  0.5804  0.5419 -0.0127
16041TIP3    H169538   5.820   1.577   3.045  0.7128  0.9808 -0.4262
16041TIP3    H269539   5.880   1.628   3.175  0.5063  0.1879 -0.0167
16042TIP3   OH269540   2.404   3.624  12.790 -0.6723 -0.4503  0.2169
16042TIP3    H169541   2.310   3.634  12.805 -0.9026  1.6945 -2.3709
16042TIP3    H269542   2.444   3.697  12.838 -0.7476  1.5018 -2.6269
16043TIP3   OH269543   0.685   3.625  13.070 -0.3326  0.3428 -0.4039
16043TIP3    H169544   0.662   3.683  12.998  0.1281  2.0030  0.7483
16043TIP3    H269545   0.620   3.644  13.138  0.4521  0.2642  0.3748
16044TIP3   OH269546   6.414   3.090  10.440 -0.0017 -0.1930 -0.2254
16044TIP3    H169547   6.493   3.041  10.462  0.7915  0.1089 -2.3483
16044TIP3    H269548   6.414   3.164  10.501  0.7482 -0.8066  0.5293
16045TIP3   OH269549   2.874   4.855  15.358 -0.3890  0.0096 -0.3580
16045TIP3    H169550   2.804   4.808  15.402 -1.6582  0.8070 -1.5024
16045TIP3    H269551   2.836   4.939  15.333  1.0337  0.5566 -0.7721
16046TIP3   OH269552   4.293   5.460  14.197 -0.0636  0.7029  0.1670
16046TIP3    H169553   4.306   5.502  14.111 -1.1018 -1.5544 -1.1458
16046TIP3    H269554   4.354   5.386  14.197 -1.6239 -0.6278  0.4068
16047TIP3   OH269555   0.285   6.491  13.161  0.3693  0.2978 -0.1206
16047TIP3    H169556   0.379   6.489  13.143  0.3325  0.3195 -0.3178
16047TIP3    H269557   0.265   6.584  13.174  0.0307  0.5057 -1.9413
16048TIP3   OH269558   2.633   2.770   2.352  0.0357  0.0077  0.5129
16048TIP3    H169559   2.597   2.857   2.332 -0.4798 -0.3399 -0.0773
16048TIP3    H269560   2.597   2.749   2.439 -0.3633  0.0995  0.3702
16049TIP3   OH269561   0.620   5.675   4.720  0.2848  0.1242  0.3153
16049TIP3    H169562   0.640   5.744   4.657  0.4419  1.9277  2.2769
16049TIP3    H269563   0.543   5.631   4.684 -1.3433  2.9495  0.2012
16050TIP3   OH269564   2.101   2.921   1.787 -0.2488 -0.0610  0.3501
16050TIP3    H169565   2.081   2.856   1.855 -0.0934  0.3973  0.8376
16050TIP3    H269566   2.195   2.913   1.773  0.0367  1.0731  1.4787
16051TIP3   OH269567   1.452   0.121  16.000  0.2230 -0.2681 -0.4111
16051TIP3    H169568   1.430   0.192  15.940 -1.3605 -0.6253 -0.2781
16051TIP3    H269569   1.544   0.135  16.020 -0.4516  2.8185  0.9718
16052TIP3   OH269570   1.881   5.261  15.263 -0.1110 -0.1029 -0.0228
16052TIP3    H169571   1.953   5.315  15.295 -0.3597 -0.4537  1.1407
16052TIP3    H269572   1.846   5.218  15.341  0.0621 -1.9318 -0.9069
16053TIP3   OH269573   1.487   1.034   4.844  0.1338 -0.0125 -0.2209
16053TIP3    H169574   1.537   1.110   4.814 -1.5344 -0.2495 -3.7619
16053TIP3    H269575   1.432   1.068   4.915  1.6546  1.3368  0.3478
16054TIP3   OH269576   5.655   4.137  10.785 -0.1131  0.7266  0.3336
16054TIP3    H169577   5.666   4.197  10.711  0.2620  0.2898  0.0300
16054TIP3    H269578   5.564   4.109  10.781  0.1089  0.1184 -0.4121
16055TIP3   OH269579   4.303   4.156  12.213 -0.8283 -0.3158  0.0959
16055TIP3    H169580   4.250   4.208  12.153 -1.7806 -0.3077  0.9205
16055TIP3    H269581   4.337   4.085  12.160  0.6074  1.2064 -1.0863
16056TIP3   OH269582   3.395   4.250  16.869 -0.3569  0.0834  0.5691
16056TIP3    H169583   3.402   4.186  16.798  1.0543 -0.4749  1.2029
16056TIP3    H269584   3.302   4.271  16.873 -0.4133  0.4045 -1.7048
16057TIP3   OH269585   4.600   6.134   1.290  0.4977  0.6145 -0.1106
16057TIP3    H169586   4.538   6.122   1.218  1.4215  0.6328 -0.9092
16057TIP3    H269587   4.630   6.046   1.311 -1.5687  0.3206  1.8811
16058TIP3   OH269588   2.485   2.668   4.051  0.4519 -0.0458  0.2074
16058TIP3    H169589   2.556   2.633   4.104  2.5154  1.6521 -1.3356
16058TIP3    H269590   2.514   2.756   4.027 -2.5250  1.0161  0.1640
16059TIP3   OH269591   1.475   5.126   1.086  0.2282 -0.0430 -0.1396
16059TIP3    H169592   1.507   5.215   1.100 -0.9507  0.1219  1.5599
16059TIP3    H269593   1.534   5.091   1.019  2.1774  1.2116  0.8509
16060TIP3   OH269594   4.634   6.357  14.483 -0.2597  0.7014 -0.2476
16060TIP3    H169595   4.549   6.312  14.485  0.3089 -0.3535  0.0045
16060TIP3    H269596   4.669   6.338  14.396 -0.0113  0.6515 -0.1341
16061TIP3   OH269597   6.443   0.089   4.913  0.2392 -0.9426  0.2877
16061TIP3    H169598   6.490   0.172   4.910  0.8521 -1.2670  0.7453
16061TIP3    H269599   6.510   0.024   4.934 -0.4907 -1.3441  1.4147
16062TIP3   OH269600   0.865   1.738  16.455  0.0558 -0.1820 -0.4027
16062TIP3    H169601   0.922   1.811  16.432 -0.1449 -0.2277 -1.0521
16062TIP3    H269602   0.906   1.698  16.531  0.2165  0.5500 -0.1033
16063TIP3   OH269603   3.640   3.834  15.081 -0.1200  0.0612 -0.4452
16063TIP3    H169604   3.613   3.921  15.110 -2.1749 -0.6459 -0.1887
16063TIP3    H269605   3.736   3.835  15.088 -0.2628  1.5290  1.7628
16064TIP3   OH269606   0.824   6.012  11.987  0.4162 -0.1268 -0.0467
16064TIP3    H169607   0.773   6.076  12.037  0.1737  0.5394 -1.1347
16064TIP3    H269608   0.870   6.064  11.921  2.0669 -0.7933  0.5605
16065TIP3   OH269609   5.166   4.861  11.454 -0.3396  0.2424 -0.0904
16065TIP3    H169610   5.158   4.904  11.540  0.2071 -1.3027  0.7493
16065TIP3    H269611   5.253   4.822  11.456 -1.1175 -1.5464 -0.5408
16066TIP3   OH269612   6.283   3.510  12.776 -0.1842  0.1512  0.0780
16066TIP3    H169613   6.233   3.591  12.776 -0.2969  0.0783  0.5047
16066TIP3    H269614   6.287   3.483  12.867 -1.8858 -1.3836 -0.2803
16067TIP3   OH269615   6.572   1.897   1.112  0.2404  0.2984 -0.0729
16067TIP3    H169616   6.570   1.957   1.187 -1.7022  1.2875 -0.8862
16067TIP3    H269617   6.559   1.811   1.150  0.4474  0.6637  0.8411
16068TIP3   OH269618   1.430   4.576  13.638 -0.2270  0.1168 -0.1179
16068TIP3    H169619   1.442   4.625  13.720  0.0940 -1.2726  0.6801
16068TIP3    H269620   1.335   4.572  13.627 -0.2520  1.5508 -0.5925
16069TIP3   OH269621   4.879   4.001  13.832  0.3589 -0.1016  0.3301
16069TIP3    H169622   4.916   3.926  13.786  0.5954 -1.1842  2.2586
16069TIP3    H269623   4.785   3.992  13.821  0.3685 -0.9087  0.8955
16070TIP3   OH269624   1.412   4.869   4.761 -0.2372 -0.1779 -0.4735
16070TIP3    H169625   1.479   4.835   4.703  0.0708 -1.4216  0.5982
16070TIP3    H269626   1.458   4.927   4.821  0.2760 -2.6038  1.5739
16071TIP3   OH269627   2.622   1.781   1.743  0.1073  0.1981 -0.1692
16071TIP3    H169628   2.717   1.776   1.744  0.2360  2.3549 -0.7145
16071TIP3    H269629   2.601   1.869   1.774 -1.7345 -0.3236  0.1921
16072TIP3   OH269630   4.204   5.257   7.014  0.5383  0.1582 -0.5766
16072TIP3    H169631   4.183   5.169   7.046  2.9183 -0.7649 -1.4061
16072TIP3    H269632   4.299   5.261   7.019  0.4288  2.8580 -0.1965
16073TIP3   OH269633   0.312   0.617  13.529 -0.2930 -0.0932  0.1065
16073TIP3    H169634   0.328   0.672  13.452 -2.5758  0.4364 -0.0129
16073TIP3    H269635   0.220   0.631  13.550  0.1465 -0.7214  2.5839
16074TIP3   OH269636   4.716   3.216   3.170  0.0795 -0.6696  0.2382
16074TIP3    H169637   4.697   3.126   3.196  1.7835 -1.5319 -1.4407
16074TIP3    H269638   4.812   3.222   3.170  0.0517  0.3644 -2.2586
16075TIP3   OH269639   4.479   4.969  16.326  0.8432  0.1162  0.0272
16075TIP3    H169640   4.503   4.887  16.284  0.3076 -0.2273  0.3733
16075TIP3    H269641   4.391   4.954  16.359  1.1471  0.4707  1.0215
16076TIP3   OH269642   0.846   1.136  11.694 -0.1043 -0.3927 -0.1337
16076TIP3    H169643   0.860   1.181  11.778  0.7414  1.7525 -1.3895
16076TIP3    H269644   0.755   1.154  11.672  0.0068  0.0189 -0.2487
16077TIP3   OH269645   5.341   3.520  11.023  0.5692 -0.4562 -0.4277
16077TIP3    H169646   5.275   3.525  10.954  0.0286  2.4815  0.2332
16077TIP3    H269647   5.409   3.581  10.997 -0.0055  1.2981  1.9535
16078TIP3   OH269648   1.176   3.419   1.887  0.6034 -0.7462 -0.0238
16078TIP3    H169649   1.196   3.442   1.796 -0.4925 -0.7873 -0.2760
16078TIP3    H269650   1.108   3.480   1.914  0.6196 -1.0089  0.6296
16079TIP3   OH269651   0.019   4.877   3.155  0.1009 -0.1663  0.6303
16079TIP3    H169652  -0.055   4.891   3.214  0.3874  0.6832  0.8027
16079TIP3    H269653   0.018   4.953   3.097  1.2502  0.2219  1.0922
16080TIP3   OH269654   5.228   4.895  12.387  0.2141  0.5570 -0.1493
16080TIP3    H169655   5.219   4.981  12.427 -1.2029  0.2006  0.3297
16080TIP3    H269656   5.271   4.912  12.303 -0.0627  1.7357 -0.0620
16081TIP3   OH269657   0.718   1.377   2.810  0.0050 -0.8726 -0.1602
16081TIP3    H169658   0.786   1.340   2.866 -0.5068 -0.4356  0.7667
16081TIP3    H269659   0.644   1.317   2.821 -0.3358 -0.3953  0.2053
16082TIP3   OH269660   2.965   0.462  16.149  0.2626 -0.5314 -0.1872
16082TIP3    H169661   3.000   0.389  16.099 -2.0696 -1.4384 -0.5573
16082TIP3    H269662   2.973   0.538  16.091 -2.2040 -1.5311 -1.8938
16083TIP3   OH269663   0.090   6.380   3.156  0.1353  0.4060 -0.2555
16083TIP3    H169664   0.002   6.415   3.142  0.7398  1.7011 -0.8468
16083TIP3    H269665   0.081   6.286   3.140 -1.0813  0.5642 -0.5685
16084TIP3   OH269666   2.104   6.739  15.108 -0.2218  0.5214 -0.2485
16084TIP3    H169667   2.125   6.649  15.084 -1.2531  0.0988  0.4049
16084TIP3    H269668   2.182   6.789  15.085  0.3424 -0.5369 -0.6458
16085TIP3   OH269669   4.826   6.210  15.279  0.6821 -0.6943 -0.3761
16085TIP3    H169670   4.894   6.226  15.345  0.4796 -0.5184 -0.2113
16085TIP3    H269671   4.798   6.298  15.252 -1.6893 -0.7265  1.8284
16086TIP3   OH269672   4.108   1.161   2.625 -0.4667 -0.4305 -0.0184
16086TIP3    H169673   4.149   1.156   2.711 -1.2914 -0.5477  0.3752
16086TIP3    H269674   4.149   1.236   2.583 -0.3351 -0.1380  0.6273
16087TIP3   OH269675   4.004   3.911  15.664 -0.5484  0.9739 -0.4554
16087TIP3    H169676   3.960   3.827  15.672  0.4734  0.3984 -0.8287
16087TIP3    H269677   3.944   3.973  15.706 -0.8957 -0.0671  0.6190
16088TIP3   OH269678   0.954   2.354   5.072 -0.0652 -0.5469  0.3848
16088TIP3    H169679   0.861   2.365   5.095  0.5916  1.0762  2.3816
16088TIP3    H269680   0.966   2.407   4.994 -0.0667  2.0449  2.0927
16089TIP3   OH269681   2.971   4.456   6.247  0.2965 -0.1061  0.4342
16089TIP3    H169682   2.887   4.463   6.293  0.9655 -0.1996  1.6985
16089TIP3    H269683   2.981   4.540   6.202  0.2769  0.5464  1.6160
16090TIP3   OH269684   4.937   5.231   2.214  0.1128  0.1307  0.5027
16090TIP3    H169685   4.848   5.215   2.181 -0.5310  1.0134  1.7637
16090TIP3    H269686   4.971   5.144   2.234 -0.3741 -0.2335 -0.2209
16091TIP3   OH269687   4.274   3.820   4.098 -0.5849 -0.0779  0.3201
16091TIP3    H169688   4.217   3.884   4.139 -0.7664  0.5694 -0.9254
16091TIP3    H269689   4.341   3.802   4.164 -1.1177  0.6222  1.0560
16092TIP3   OH269690   4.760   5.045   1.783  0.4948  0.7042 -0.5183
16092TIP3    H169691   4.720   5.081   1.704 -0.0891  0.4041 -0.3658
16092TIP3    H269692   4.844   5.091   1.791 -0.6085  2.6393  0.1601
16093TIP3   OH269693   5.100   1.069   5.346 -0.2852  0.1737  0.0756
16093TIP3    H169694   5.130   1.093   5.434 -1.6576  0.9575  0.3425
16093TIP3    H269695   5.027   1.009   5.361  0.7823 -1.3081 -0.5625
16094TIP3   OH269696   6.195   6.706  14.277 -0.0546  0.2593 -0.5250
16094TIP3    H169697   6.192   6.777  14.342  0.3600 -0.6343  0.4913
16094TIP3    H269698   6.282   6.712  14.239 -0.5504  1.2551 -1.5673
16095TIP3   OH269699   5.428   2.633   5.596  0.8389  0.2184  0.1065
16095TIP3    H169700   5.510   2.593   5.568 -0.3043 -0.9892 -1.6365
16095TIP3    H269701   5.377   2.561   5.632  0.1986  0.7816  0.3405
16096TIP3   OH269702   5.352   3.385   0.783  0.2174 -0.2241  0.0242
16096TIP3    H169703   5.420   3.443   0.818  0.3584  1.0629 -2.2555
16096TIP3    H269704   5.401   3.308   0.753  0.3919 -0.2718  0.4232
16097TIP3   OH269705   2.298   2.463  12.884  0.3036  0.0508 -0.0737
16097TIP3    H169706   2.244   2.386  12.904  0.4557 -0.3843 -1.3111
16097TIP3    H269707   2.237   2.537  12.890 -0.7110 -0.5383 -2.4648
16098TIP3   OH269708   5.781   0.063   4.332  0.0274  0.3887  0.0065
16098TIP3    H169709   5.722   0.138   4.324  0.9949  1.5468  3.0006
16098TIP3    H269710   5.744   0.012   4.404 -0.8665 -2.3179 -2.2845
16099TIP3   OH269711   4.350   4.975   2.999  0.3218 -0.8956  0.2340
16099TIP3    H169712   4.297   4.903   2.964 -1.0926  0.0290  0.4585
16099TIP3    H269713   4.351   4.960   3.094  1.9564 -1.9028  0.0831
16100TIP3   OH269714   1.656   3.684   4.299  0.3190  0.1735  0.0601
16100TIP3    H169715   1.653   3.780   4.297 -1.1185  0.1557  0.4999
16100TIP3    H269716   1.749   3.663   4.291  0.6408  1.5981 -0.2136
16101TIP3   OH269717   2.548   0.130  15.177 -0.0825 -0.5424  0.0671
16101TIP3    H169718   2.595   0.188  15.117 -1.8510 -1.3679 -2.1611
16101TIP3    H269719   2.610   0.060  15.196  0.2032 -0.7100 -1.4608
16102TIP3   OH269720   5.675   0.996  11.019 -0.0445 -0.1239 -0.7307
16102TIP3    H169721   5.656   1.074  10.966  2.4453  1.3490  0.4625
16102TIP3    H269722   5.770   0.991  11.020 -0.1718 -3.7083 -1.4726
16103TIP3   OH269723   5.663   6.771  14.316 -0.0236 -0.1955  0.0282
16103TIP3    H169724   5.623   6.764  14.230 -0.7813 -1.3443  0.4639
16103TIP3    H269725   5.598   6.817  14.369 -1.1672 -2.7802  0.9530
16104TIP3   OH269726   5.050   1.585   2.570  0.0500  0.1113  0.1639
16104TIP3    H169727   4.974   1.617   2.618  0.6326  0.7368  0.6717
16104TIP3    H269728   5.072   1.502   2.611 -0.3773 -0.0787  0.0016
16105TIP3   OH269729   1.271   6.383  16.052  0.7078 -0.7263  0.4120
16105TIP3    H169730   1.199   6.324  16.075 -0.2837  0.3516  0.0711
16105TIP3    H269731   1.277   6.376  15.956  0.0249  0.3669  0.2817
16106TIP3   OH269732   3.936   3.869   0.989  0.4125  0.3222 -0.0377
16106TIP3    H169733   3.998   3.938   0.967  1.0105  0.1128  0.9875
16106TIP3    H269734   3.921   3.823   0.906  0.9922  0.8853 -0.4572
16107TIP3   OH269735   2.212   2.964  11.974 -0.4100 -0.4946  0.5515
16107TIP3    H169736   2.232   2.979  12.067 -0.6909 -1.3304  0.7543
16107TIP3    H269737   2.233   2.871  11.960 -0.6400 -0.4414 -0.1547
16108TIP3   OH269738   4.605   5.454   1.405 -0.0950 -0.0798  0.1359
16108TIP3    H169739   4.682   5.486   1.453 -1.4588  1.5223  1.2972
16108TIP3    H269740   4.612   5.494   1.318  0.2903  0.1901  0.2923
16109TIP3   OH269741   2.230   3.526  11.728 -0.2484 -0.1999  0.2920
16109TIP3    H169742   2.270   3.604  11.765 -1.4399 -0.1044  1.3876
16109TIP3    H269743   2.305   3.472  11.700  0.5738  1.2322 -0.3055
16110TIP3   OH269744   2.318   1.312   5.790 -0.5000  0.0973 -0.5051
16110TIP3    H169745   2.230   1.334   5.821 -0.4043 -1.3212  0.8763
16110TIP3    H269746   2.347   1.243   5.849  1.5476  0.5310 -0.9676
16111TIP3   OH269747   4.043   4.449   1.140 -0.1454  0.1808 -0.6745
16111TIP3    H169748   3.978   4.481   1.077 -1.9381 -1.1345  0.4461
16111TIP3    H269749   4.066   4.362   1.109 -1.9947 -1.0029  1.0930
16112TIP3   OH269750   3.481   2.983  12.340 -0.3781 -0.2559 -0.4335
16112TIP3    H169751   3.418   3.013  12.406  0.1852 -0.0761  0.0197
16112TIP3    H269752   3.557   3.040  12.350  0.2698 -1.1348 -0.2835
16113TIP3   OH269753   0.174   0.312   0.010  0.1066  0.1816 -0.1283
16113TIP3    H169754   0.196   0.402  -0.013  0.3207  0.2750  0.4495
16113TIP3    H269755   0.157   0.314   0.104 -0.1017 -0.3357 -0.1540
16114TIP3   OH269756   4.956   3.124  14.561  0.5318 -0.2264 -0.6883
16114TIP3    H169757   4.967   3.181  14.637  0.2666  2.3103 -2.4494
16114TIP3    H269758   4.863   3.103  14.560  0.7329 -1.1951  0.3016
16115TIP3   OH269759   3.399   3.962   6.666 -0.2053  0.0123  0.3256
16115TIP3    H169760   3.463   3.905   6.624  0.8142  2.3275 -1.4059
16115TIP3    H269761   3.444   4.047   6.673 -2.5857  1.3147  0.3706
16116TIP3   OH269762   1.229   0.966  12.888  0.0632  0.0022 -0.2771
16116TIP3    H169763   1.236   1.052  12.928  1.3189  0.5171 -1.5570
16116TIP3    H269764   1.195   0.983  12.800 -2.4024 -1.0780  0.3973
16117TIP3   OH269765   2.573   6.507  14.210 -0.1514  0.0833  0.1785
16117TIP3    H169766   2.655   6.459  14.202  0.9490  2.0539 -0.9066
16117TIP3    H269767   2.506   6.440  14.218  1.6140 -1.5484  1.6314
16118TIP3   OH269768   3.144   2.460  16.330 -0.1963 -0.2220  0.6440
16118TIP3    H169769   3.112   2.403  16.260 -0.2289  1.3299 -0.6307
16118TIP3    H269770   3.225   2.418  16.359 -1.1979 -1.9352  1.0526
16119TIP3   OH269771   4.615   4.321   1.528  0.0458  0.1855  0.2078
16119TIP3    H169772   4.552   4.296   1.595 -0.3476  0.9730  0.1429
16119TIP3    H269773   4.697   4.333   1.576  0.1041 -0.6367  0.3221
16120TIP3   OH269774   4.580   0.328   0.265 -1.0882 -0.4410  0.0952
16120TIP3    H169775   4.654   0.342   0.324 -0.2698  1.5986 -1.3770
16120TIP3    H269776   4.511   0.292   0.321 -0.0328  0.6043  2.0984
16121TIP3   OH269777   2.773   0.448   5.084 -0.5176 -0.3089  0.5580
16121TIP3    H169778   2.756   0.486   4.998 -1.4862 -1.4913  0.2137
16121TIP3    H269779   2.706   0.488   5.141 -0.8128 -0.6404  0.4432
16122TIP3   OH269780   0.397   0.620   6.319 -0.5933  0.0542 -0.0514
16122TIP3    H169781   0.446   0.700   6.338 -1.1631  0.4074 -0.0341
16122TIP3    H269782   0.346   0.641   6.240  0.0722 -0.6529 -0.6733
16123TIP3   OH269783   6.494   3.095  12.623 -0.7523  0.6430  0.1231
16123TIP3    H169784   6.537   3.175  12.593 -1.1605  1.2230  1.0341
16123TIP3    H269785   6.427   3.126  12.684 -1.6696 -0.3176 -0.3806
16124TIP3   OH269786   1.298   1.191  13.031 -0.1655 -0.1766 -0.3533
16124TIP3    H169787   1.374   1.204  12.975  0.2757 -1.8510 -0.1735
16124TIP3    H269788   1.274   1.279  13.060  0.9809  0.4808 -1.3414
16125TIP3   OH269789   2.975   2.845  15.590  0.4860  0.3670  0.5217
16125TIP3    H169790   3.066   2.842  15.561  0.3963  0.3922  0.2290
16125TIP3    H269791   2.978   2.820  15.682  0.6406 -0.9292  0.1697
16126TIP3   OH269792   4.317   6.543  13.756  0.3239 -0.0791  0.5790
16126TIP3    H169793   4.285   6.586  13.835  0.5729  1.0455  0.0725
16126TIP3    H269794   4.263   6.581  13.686  0.0235 -1.1537  0.2194
16127TIP3   OH269795   0.090   6.175   1.374  0.1774 -0.1814  0.8468
16127TIP3    H169796   0.093   6.260   1.418  1.2526 -0.3177  1.0594
16127TIP3    H269797   0.001   6.144   1.388 -0.9634  2.0102 -1.3338
16128TIP3   OH269798   5.790   0.640  11.723 -0.2342  0.2240  0.7838
16128TIP3    H169799   5.861   0.704  11.732 -0.0758  0.1510  0.1150
16128TIP3    H269800   5.748   0.663  11.640 -0.0586 -0.6620  0.4481
16129TIP3   OH269801   4.029   2.006  13.680 -0.0166 -0.3673 -0.1310
16129TIP3    H169802   4.111   2.034  13.640 -0.1427 -0.1833 -0.2609
16129TIP3    H269803   4.007   1.925  13.635  1.0436 -1.3900  1.1661
16130TIP3   OH269804   1.132   6.201  14.208  0.0817  0.5108  0.3460
16130TIP3    H169805   1.105   6.187  14.299  0.3292 -1.2183  0.1683
16130TIP3    H269806   1.194   6.274  14.213  1.7585 -0.9525  1.8731
16131TIP3   OH269807   5.122   2.727  10.921  0.0244  0.0057  0.0542
16131TIP3    H169808   5.188   2.669  10.883 -0.7178 -0.1646 -0.9674
16131TIP3    H269809   5.154   2.744  11.010  0.1230 -2.1504  0.4528
16132TIP3   OH269810   6.641   3.664   1.910  0.1052 -0.5013 -0.4723
16132TIP3    H169811   6.642   3.571   1.888 -0.7508 -0.6458  0.0694
16132TIP3    H269812   6.616   3.708   1.828 -1.3698 -0.8978 -0.2368
16133TIP3   OH269813   6.525   1.253   0.171 -0.6613 -0.0410 -0.2327
16133TIP3    H169814   6.454   1.317   0.173 -1.1062 -0.4329 -2.6130
16133TIP3    H269815   6.489   1.176   0.217 -1.0633  0.4554  0.2915
16134TIP3   OH269816   2.877   3.733  11.563 -0.3476 -0.5389 -0.3923
16134TIP3    H169817   2.945   3.777  11.613 -1.1031  1.9746 -1.5017
16134TIP3    H269818   2.851   3.796  11.497 -1.5829 -2.6286 -1.9683
16135TIP3   OH269819   1.216   5.954   2.391 -0.2915  0.1271 -0.2555
16135TIP3    H169820   1.226   5.894   2.465  0.2715  0.1321 -0.3236
16135TIP3    H269821   1.122   5.961   2.377 -0.3817 -0.1471  0.2402
16136TIP3   OH269822   4.477   4.241  12.912  0.1101  0.0564  0.2561
16136TIP3    H169823   4.527   4.174  12.865 -1.1938 -0.4011 -0.5275
16136TIP3    H269824   4.443   4.297  12.843  0.3309  0.9199  0.8468
16137TIP3   OH269825   4.964   5.859  11.990 -0.4903 -0.0255 -0.0774
16137TIP3    H169826   4.970   5.885  12.082  0.1158 -1.2296  0.2286
16137TIP3    H269827   4.995   5.935  11.942  0.5480  0.1115  0.7804
16138TIP3   OH269828   1.635   4.546   2.504 -0.4586 -0.4933  0.2617
16138TIP3    H169829   1.564   4.601   2.537 -1.2251 -1.6002  0.4935
16138TIP3    H269830   1.629   4.555   2.409  0.4871  1.1225  0.3330
16139TIP3   OH269831   0.503   1.791   2.334  0.2144  0.3766  0.1678
16139TIP3    H169832   0.452   1.842   2.270  1.2323  3.1588  1.4972
16139TIP3    H269833   0.587   1.777   2.291  0.3632  0.8915  0.2928
16140TIP3   OH269834   5.492   3.177   0.656  0.0858  0.0463 -0.1773
16140TIP3    H169835   5.575   3.130   0.653  0.5993  0.9873 -0.6846
16140TIP3    H269836   5.428   3.116   0.619  0.6492 -0.4647 -0.3034
16141TIP3   OH269837   3.199   5.331  13.141 -0.2593  0.1160 -0.1266
16141TIP3    H169838   3.130   5.382  13.100  0.7839 -0.3434 -2.5091
16141TIP3    H269839   3.233   5.387  13.211 -2.4643  0.6548  0.5468
16142TIP3   OH269840   3.071   4.403   5.882 -0.5557  0.0641 -0.1372
16142TIP3    H169841   3.159   4.440   5.881 -0.4510 -0.1806 -0.0410
16142TIP3    H269842   3.017   4.469   5.838 -0.5416  0.7411  0.8479
16143TIP3   OH269843   2.467   3.667   4.766 -0.9760  0.1547  0.2230
16143TIP3    H169844   2.414   3.702   4.837 -1.1083 -1.8455  1.1259
16143TIP3    H269845   2.475   3.574   4.784  2.4729  0.2916 -0.1456
16144TIP3   OH269846   6.318   5.719   2.420  0.6653  0.3998 -0.2058
16144TIP3    H169847   6.263   5.691   2.494 -0.5953  0.0535 -1.2584
16144TIP3    H269848   6.407   5.722   2.456  0.3783 -1.8934  0.7812
16145TIP3   OH269849   3.746   2.352   5.749  0.1839  0.1656  0.8579
16145TIP3    H169850   3.704   2.275   5.787  0.1301 -0.2733 -0.1009
16145TIP3    H269851   3.828   2.361   5.797 -0.6496  0.6054  2.2442
16146TIP3   OH269852   1.880   2.924  15.948 -0.4639  0.1219  0.2069
16146TIP3    H169853   1.837   2.869  15.883 -1.6669  0.7106  0.4938
16146TIP3    H269854   1.808   2.963  15.998  0.3977  1.2784  0.5642
16147TIP3   OH269855   5.957   5.359  11.415  0.3200 -0.2337  0.0584
16147TIP3    H169856   5.969   5.308  11.335  1.2991 -0.5593  0.4013
16147TIP3    H269857   6.040   5.405  11.427 -0.4250  1.1523 -0.0434
16148TIP3   OH269858   6.476   5.444  16.674  0.2978 -0.3883  0.4525
16148TIP3    H169859   6.401   5.502  16.685 -0.3491 -1.0984 -0.1477
16148TIP3    H269860   6.452   5.387  16.601  1.6567 -0.2653 -0.0891
16149TIP3   OH269861   3.178   1.686  13.675  0.4300 -0.0603 -0.1723
16149TIP3    H169862   3.204   1.763  13.726  0.6886  0.8633 -1.6667
16149TIP3    H269863   3.258   1.635  13.666  0.0879 -0.9323  1.5077
16150TIP3   OH269864   2.960   1.876   6.186 -0.6396 -0.6143  0.2775
16150TIP3    H169865   2.972   1.781   6.178 -3.4846 -0.9492 -0.5527
16150TIP3    H269866   2.969   1.893   6.280  1.8070 -1.3743  0.2264
16151TIP3   OH269867   3.027   4.541   4.113  0.1553  0.4576  0.6224
16151TIP3    H169868   2.983   4.604   4.169  1.1433  2.8027 -1.1703
16151TIP3    H269869   2.956   4.503   4.060 -0.4646 -0.1318  1.8505
16152TIP3   OH269870   1.341   2.094  14.510 -0.1665 -0.5603 -0.2360
16152TIP3    H169871   1.253   2.105  14.473 -0.5267 -1.5144  0.3095
16152TIP3    H269872   1.359   2.177  14.554 -0.6960 -0.2626 -0.5733
16153TIP3   OH269873   1.366   0.653   2.539  0.5810 -0.2820 -0.1676
16153TIP3    H169874   1.306   0.590   2.498 -1.0353  0.2674  1.2657
16153TIP3    H269875   1.354   0.734   2.489  2.0626 -0.8520 -1.4998
16154TIP3   OH269876   4.003   5.946  16.998 -0.5382  0.3321 -0.5976
16154TIP3    H169877   4.016   6.030  16.954 -0.7016  0.4402 -0.4409
16154TIP3    H269878   4.015   5.880  16.930  1.3980  0.4005 -0.3504
16155TIP3   OH269879   6.647   1.233   0.948 -0.3309  0.0025 -0.1891
16155TIP3    H169880   6.729   1.223   0.899  0.9580 -1.6875  2.2049
16155TIP3    H269881   6.648   1.324   0.978  2.3749 -0.8614  2.6256
16156TIP3   OH269882   1.793   5.563   0.610 -0.1962  0.1319  0.2174
16156TIP3    H169883   1.761   5.629   0.548  0.7172  1.1254  0.7955
16156TIP3    H269884   1.749   5.482   0.582 -0.2390  0.6729 -1.3733
16157TIP3   OH269885   1.533   5.871  10.998 -0.1608  0.4316 -0.4552
16157TIP3    H169886   1.617   5.888  10.957 -0.7831  0.8805 -1.5672
16157TIP3    H269887   1.513   5.780  10.975  0.7087 -0.1727  1.0801
16158TIP3   OH269888   4.532   5.689  12.210 -0.2722  0.4996 -0.0898
16158TIP3    H169889   4.485   5.693  12.127  0.3923 -0.4743 -0.5172
16158TIP3    H269890   4.511   5.603  12.247  0.1929  0.5416  0.2950
16159TIP3   OH269891   1.042   6.131  12.227 -0.6092  0.7288 -0.5943
16159TIP3    H169892   1.053   6.202  12.289 -0.5309  0.0979  0.1231
16159TIP3    H269893   1.078   6.054  12.272 -0.2653  0.3257 -1.5301
16160TIP3   OH269894   4.306   0.518  10.700  0.5564 -0.4090 -0.6922
16160TIP3    H169895   4.355   0.547  10.623  1.3008  0.2179  0.0067
16160TIP3    H269896   4.349   0.438  10.728 -0.2181 -1.0883 -1.3953
16161TIP3   OH269897   6.439   3.801  16.725  0.3499 -0.6529 -0.7438
16161TIP3    H169898   6.386   3.834  16.652 -1.2869  0.1086  0.7392
16161TIP3    H269899   6.426   3.706  16.724 -0.1468 -0.5798 -1.0704
16162TIP3   OH269900   2.913   4.110  12.821 -0.0770 -0.0053 -0.5281
16162TIP3    H169901   2.921   4.041  12.755  0.5760 -1.0688  0.6410
16162TIP3    H269902   2.953   4.073  12.899 -0.3878  1.4334  0.3304
16163TIP3   OH269903   0.077   3.277   1.436  0.0687  0.6117 -0.3886
16163TIP3    H169904   0.139   3.241   1.499 -1.9043 -1.6013  0.3412
16163TIP3    H269905   0.083   3.220   1.360 -2.1949 -0.6254  0.3097
16164TIP3   OH269906   2.065   0.975  17.122 -0.0453 -0.1945 -0.1042
16164TIP3    H169907   2.150   0.931  17.113 -1.1460 -2.1898 -1.1515
16164TIP3    H269908   2.030   0.976  17.033 -2.1541 -1.5618  0.6696
16165TIP3   OH269909   1.117   4.134  14.717  0.0743 -0.7946 -0.2149
16165TIP3    H169910   1.161   4.082  14.649  0.5756  0.5368 -0.9214
16165TIP3    H269911   1.118   4.078  14.795  2.5781 -0.9942 -0.3647
16166TIP3   OH269912   0.271   4.114   5.614  0.0048 -0.3905 -0.2632
16166TIP3    H169913   0.294   4.046   5.677  0.8839  0.0982 -0.0395
16166TIP3    H269914   0.220   4.068   5.547 -0.4812 -1.0137  0.5302
16167TIP3   OH269915   4.443   1.288  15.454  0.2482  0.4451 -0.0766
16167TIP3    H169916   4.352   1.302  15.481  0.1962 -0.8063  0.4753
16167TIP3    H269917   4.446   1.195  15.432  1.6619  0.2309  0.9791
16168TIP3   OH269918   5.968   4.519   3.549 -0.2407  0.0962  0.2709
16168TIP3    H169919   5.932   4.431   3.561 -1.3397  0.2097 -2.0054
16168TIP3    H269920   5.950   4.563   3.632  1.3990 -2.1625  1.8797
16169TIP3   OH269921   5.092   2.773   5.433  0.0370 -0.0968 -0.3316
16169TIP3    H169922   5.048   2.851   5.398 -1.4193 -0.8983 -0.3319
16169TIP3    H269923   5.156   2.808   5.495 -0.4038  1.1157 -0.5419
16170TIP3   OH269924   0.699   0.853   4.935 -0.1399 -0.3440  0.2643
16170TIP3    H169925   0.720   0.760   4.948  0.1683 -0.2725  0.2793
16170TIP3    H269926   0.693   0.862   4.840 -1.6188 -0.6939  0.3019
16171TIP3   OH269927   3.952   4.911   3.991  0.6283 -0.2823  0.1631
16171TIP3    H169928   3.908   4.895   3.907  1.9171 -0.5361 -0.4896
16171TIP3    H269929   3.930   4.835   4.045  0.2371 -0.3865 -0.1386
16172TIP3   OH269930   6.524   5.513   3.868 -0.5293  0.2275  0.4470
16172TIP3    H169931   6.593   5.579   3.879  0.2876 -0.5226 -0.1864
16172TIP3    H269932   6.468   5.524   3.946 -0.3441  1.5971  0.4015
16173TIP3   OH269933   3.113   6.724  13.101 -0.0812 -0.1603 -0.0899
16173TIP3    H169934   3.120   6.778  13.180  3.4989 -1.5035  0.6424
16173TIP3    H269935   3.109   6.786  13.029  1.7799  1.1419  0.8716
16174TIP3   OH269936   6.171   2.535   5.137 -0.2236 -0.4744  0.3314
16174TIP3    H169937   6.213   2.501   5.216  0.0196  0.0970  0.4487
16174TIP3    H269938   6.077   2.522   5.153 -0.2031  0.0401  0.9053
16175TIP3   OH269939   4.767   3.152   0.417 -0.3556 -0.7963  0.0944
16175TIP3    H169940   4.685   3.105   0.402 -0.9047 -0.1002  0.8643
16175TIP3    H269941   4.776   3.155   0.512  0.8440 -1.3398  0.0066
16176TIP3   OH269942   0.413   0.118   1.289 -0.2051 -0.7327 -0.1267
16176TIP3    H169943   0.481   0.074   1.339 -0.1707 -0.0090  0.4757
16176TIP3    H269944   0.431   0.096   1.198  1.7199  0.6700 -0.1092
16177TIP3   OH269945   5.844   3.538   2.416 -0.4218  0.2325 -0.1910
16177TIP3    H169946   5.874   3.604   2.479 -0.0859  0.9107 -1.0452
16177TIP3    H269947   5.752   3.558   2.403 -0.2472  0.7251 -0.6775
16178TIP3   OH269948   1.369   0.061  14.659  0.4367  0.2767  0.3734
16178TIP3    H169949   1.321   0.020  14.732 -0.8960  0.5094 -0.3516
16178TIP3    H269950   1.442   0.002  14.642  0.0730 -0.4010  1.1082
16179TIP3   OH269951   3.030   1.714   3.429  0.0382  0.0727 -0.4206
16179TIP3    H169952   3.051   1.791   3.481  1.3816  1.4830 -3.0175
16179TIP3    H269953   2.938   1.725   3.406 -0.6568 -0.6956  1.7679
16180TIP3   OH269954   0.483   4.096  11.764 -0.3322 -0.0783 -0.5619
16180TIP3    H169955   0.404   4.136  11.729  0.6396  0.5115 -2.1305
16180TIP3    H269956   0.554   4.134  11.713  1.1277  0.5993  1.8677
16181TIP3   OH269957   0.604   4.818  14.672 -0.0824  0.0535  0.0098
16181TIP3    H169958   0.601   4.723  14.658 -0.2686  0.0081  0.3535
16181TIP3    H269959   0.671   4.830  14.740  1.2057  0.3170 -1.2714
16182TIP3   OH269960   1.354   4.312  11.254 -0.2247 -0.0523  0.0589
16182TIP3    H169961   1.369   4.218  11.265 -0.1957 -0.1196 -0.5516
16182TIP3    H269962   1.442   4.351  11.263 -0.2059 -0.1025  0.0944
16183TIP3   OH269963   0.516   5.538  11.723 -0.2172  0.0224  0.3116
16183TIP3    H169964   0.430   5.561  11.757 -0.3386 -0.3142  0.2334
16183TIP3    H269965   0.500   5.463  11.666 -0.0348  0.6599 -0.5908
16184TIP3   OH269966   5.497   6.316   4.577  0.3087 -0.0467  0.4034
16184TIP3    H169967   5.453   6.238   4.543 -1.9259  1.6329 -0.5785
16184TIP3    H269968   5.590   6.299   4.560 -0.2366 -1.9593 -0.8877
16185TIP3   OH269969   0.792   0.116  13.436 -0.0670  0.3188  0.3545
16185TIP3    H169970   0.734   0.192  13.430  1.5710  1.4887 -1.0074
16185TIP3    H269971   0.766   0.073  13.517 -0.2506  2.9646  1.7413
16186TIP3   OH269972   1.948   5.427   3.486 -0.1562  0.3222  0.2018
16186TIP3    H169973   1.998   5.470   3.417  0.4086 -1.0819 -0.2726
16186TIP3    H269974   1.859   5.463   3.476  0.0195  0.4659 -0.9682
16187TIP3   OH269975   4.664   6.326  12.344  0.0726 -0.3044 -0.2383
16187TIP3    H169976   4.687   6.417  12.328  1.7452 -0.7127 -0.2779
16187TIP3    H269977   4.583   6.313  12.295  0.1748  0.9798 -0.7723
16188TIP3   OH269978   0.140   1.907   0.808  0.1494  0.1113  0.6918
16188TIP3    H169979   0.191   1.859   0.874  2.0812  0.8383 -0.2612
16188TIP3    H269980   0.119   1.841   0.742 -0.2217 -0.2004  1.1141
16189TIP3   OH269981   5.003   1.248   6.117 -0.3341 -0.0680 -0.2491
16189TIP3    H169982   5.038   1.182   6.177 -1.5022 -1.4005 -0.9963
16189TIP3    H269983   4.987   1.325   6.172  3.0924  0.3719  0.2358
16190TIP3   OH269984   4.876   1.980  12.966  0.3517 -0.1739  0.1970
16190TIP3    H169985   4.844   2.028  13.042  2.1172 -0.5259  1.2077
16190TIP3    H269986   4.804   1.923  12.941  0.0288 -0.6490  2.1379
16191TIP3   OH269987   5.352   6.186   3.333 -0.3818 -0.3763  0.3293
16191TIP3    H169988   5.274   6.223   3.374 -1.5947  0.6551 -2.7781
16191TIP3    H269989   5.419   6.253   3.344 -0.1462 -0.8841  2.2008
16192TIP3   OH269990   4.698   4.236   2.810 -0.3133 -0.3123 -0.7025
16192TIP3    H169991   4.791   4.240   2.791  0.1036  0.0279  1.3090
16192TIP3    H269992   4.662   4.315   2.769  0.1535 -0.7927 -2.0675
16193TIP3   OH269993   4.926   4.396  14.101 -0.1026 -0.1356 -0.2760
16193TIP3    H169994   4.903   4.315  14.147  2.4774 -1.3456 -0.9665
16193TIP3    H269995   4.854   4.456  14.119 -1.3302 -2.0817  1.5342
16194TIP3   OH269996   6.779   5.300  15.056  0.2661  0.8881  0.3196
16194TIP3    H169997   6.780   5.266  15.145  1.6440  0.1031  0.0375
16194TIP3    H269998   6.715   5.245  15.010 -1.2894  2.0373  1.0762
16195TIP3   OH269999   0.856   6.739  13.208 -0.4139  0.1304  0.3906
16195TIP3    H170000   0.815   6.780  13.284  1.2340 -0.8942  1.8622
16195TIP3    H270001   0.838   6.645  13.219 -0.0362 -0.0362 -0.4034
16196TIP3   OH270002   4.863   4.062  11.286 -0.2064  0.1114 -0.3197
16196TIP3    H170003   4.768   4.052  11.291 -0.1765  0.5006  1.4946
16196TIP3    H270004   4.883   4.065  11.193 -1.9208 -0.4780 -0.7088
16197TIP3   OH270005   6.408   2.695   1.705  0.2619  0.3204 -0.6212
16197TIP3    H170006   6.407   2.789   1.688  2.3073  0.2648 -1.1745
16197TIP3    H270007   6.450   2.686   1.791 -3.3462  0.1220  1.1933
16198TIP3   OH270008   1.001   0.927  16.276 -0.4485 -0.5422  0.4708
16198TIP3    H170009   1.032   0.886  16.195  0.4719  0.2584  0.3999
16198TIP3    H270010   0.924   0.876  16.301 -0.2322 -1.3388 -0.4404
16199TIP3   OH270011   1.406   5.421  14.402 -0.0915  0.4209  0.0410
16199TIP3    H170012   1.329   5.430  14.345 -1.9259  0.5511  2.4845
16199TIP3    H270013   1.393   5.338  14.447  1.0052  0.6444  0.7823
16200TIP3   OH270014   5.744   1.973  12.538 -0.3499  0.3040 -0.0612
16200TIP3    H170015   5.749   1.878  12.543 -2.2379  0.3271  3.7011
16200TIP3    H270016   5.817   2.004  12.591 -1.3558  0.8914  1.0182
16201TIP3   OH270017   2.318   4.961  14.851 -0.0100  0.5582  0.2229
16201TIP3    H170018   2.391   5.000  14.900  0.1997 -1.3307  1.4539
16201TIP3    H270019   2.327   4.867  14.866 -1.8895  0.2028 -0.7731
16202TIP3   OH270020   3.366   6.164   1.476 -0.4522  0.5104 -0.0921
16202TIP3    H170021   3.282   6.129   1.505 -1.1113  2.7546  0.8303
16202TIP3    H270022   3.353   6.259   1.472  1.5432  0.7735 -1.5875
16203TIP3   OH270023   5.967   5.024   4.227  0.4307  0.1780  0.0559
16203TIP3    H170024   5.960   4.936   4.189 -1.7080 -0.4016  1.6436
16203TIP3    H270025   6.031   5.014   4.298 -0.5724 -0.3661  0.8951
16204TIP3   OH270026   1.018   2.370   1.778  0.3058 -0.4822  0.1028
16204TIP3    H170027   0.960   2.417   1.719  1.2588  1.2568  0.5323
16204TIP3    H270028   0.959   2.318   1.833 -0.5958 -2.1013 -2.2918
16205TIP3   OH270029   3.746   3.239  13.971 -0.7438  0.4065 -0.6347
16205TIP3    H170030   3.709   3.162  13.926  0.2639 -1.0242  0.9259
16205TIP3    H270031   3.673   3.273  14.023 -1.2005  0.5225 -1.3454
16206TIP3   OH270032   1.271   1.078  10.672  0.6393  0.4588  0.4906
16206TIP3    H170033   1.311   0.993  10.690 -1.5536 -0.6081  0.3759
16206TIP3    H270034   1.346   1.136  10.656  2.1626 -1.3878  0.7498
16207TIP3   OH270035   1.870   3.624   2.992 -0.5030  0.5359  0.4285
16207TIP3    H170036   1.903   3.587   3.073 -0.4296  1.2862  0.7430
16207TIP3    H270037   1.943   3.615   2.930 -1.2415 -1.9311 -0.1666
16208TIP3   OH270038   1.947   5.867   2.427 -0.1118  0.1375 -0.2410
16208TIP3    H170039   1.868   5.824   2.460 -0.2827  1.0202  0.5550
16208TIP3    H270040   2.019   5.812   2.459 -0.3596 -0.0448  0.0108
16209TIP3   OH270041   3.326   5.875  11.003 -0.4271 -0.3196 -0.4051
16209TIP3    H170042   3.334   5.915  11.090 -1.9643  0.9286 -0.8008
16209TIP3    H270043   3.350   5.945  10.943 -1.3419 -0.5621 -1.0531
16210TIP3   OH270044   3.579   3.795  15.787  0.5209  0.3815 -0.4052
16210TIP3    H170045   3.671   3.815  15.770  0.5398 -1.1705 -2.3007
16210TIP3    H270046   3.545   3.764  15.703 -1.6752  0.6775  0.3359
16211TIP3   OH270047   2.420   2.552  17.035  0.1750  0.5239 -1.1659
16211TIP3    H170048   2.401   2.644  17.016 -0.2697  0.2399 -2.1428
16211TIP3    H270049   2.422   2.510  16.949  1.2635 -0.2172 -0.7991
16212TIP3   OH270050   6.495   4.801   5.510  0.1744 -0.2328 -0.4758
16212TIP3    H170051   6.504   4.822   5.603  1.8985 -0.7116 -0.5033
16212TIP3    H270052   6.425   4.736   5.506  0.7391 -0.9193  0.6190
16213TIP3   OH270053   0.790   0.375   3.343 -0.0153 -0.0738  1.0826
16213TIP3    H170054   0.765   0.371   3.251 -1.4444  0.5530  1.4208
16213TIP3    H270055   0.852   0.303   3.355 -1.3109 -1.3777  0.0818
16214TIP3   OH270056   5.128   2.196  15.508  0.0306  0.0370 -0.4766
16214TIP3    H170057   5.162   2.177  15.420  1.6153 -1.2993  0.3971
16214TIP3    H270058   5.048   2.144  15.513  0.6448 -0.9453 -0.6617
16215TIP3   OH270059   0.580   2.558   1.670 -0.3420  0.3783 -0.7631
16215TIP3    H170060   0.614   2.614   1.739  1.5232  0.7436 -1.9438
16215TIP3    H270061   0.502   2.603   1.639 -0.0690  1.2254 -0.2331
16216TIP3   OH270062   5.204   3.215  17.110 -0.0324  0.4020  0.1330
16216TIP3    H170063   5.163   3.271  17.176 -0.6503 -0.1753  0.2522
16216TIP3    H270064   5.135   3.200  17.045  0.1524 -0.1442  0.0574
16217TIP3   OH270065   4.399   2.308   5.238 -0.6990 -0.2154  0.3355
16217TIP3    H170066   4.397   2.277   5.147 -0.9458  1.9108 -0.3980
16217TIP3    H270067   4.308   2.304   5.267 -0.7603  0.0186  0.1766
16218TIP3   OH270068   2.969   1.776   0.376  0.3633  0.2135 -0.2796
16218TIP3    H170069   2.905   1.824   0.323 -0.6347 -2.0754 -1.2137
16218TIP3    H270070   2.939   1.685   0.373  2.6634 -0.6148  0.7655
16219TIP3   OH270071   3.940   0.286  15.658  0.0924  0.5157 -0.4754
16219TIP3    H170072   3.987   0.270  15.739  1.4207  1.7766 -0.9667
16219TIP3    H270073   3.928   0.381  15.655 -1.2314  0.3461 -1.0485
16220TIP3   OH270074   6.486   3.083  15.029 -0.1047 -0.2331  0.1865
16220TIP3    H170075   6.561   3.025  15.029  0.8622  0.9446 -1.4780
16220TIP3    H270076   6.443   3.069  15.113  0.5822 -2.6973  0.1510
16221TIP3   OH270077   3.231   6.334  14.541 -0.0946 -0.7440 -0.2640
16221TIP3    H170078   3.307   6.391  14.554 -0.3806  0.0272 -1.7975
16221TIP3    H270079   3.268   6.247  14.530  0.5657 -0.4235 -0.6645
16222TIP3   OH270080   6.763   5.665  17.159  0.4347  0.1026 -0.0417
16222TIP3    H170081   6.686   5.610  17.148 -0.4065  1.1032  0.7383
16222TIP3    H270082   6.787   5.693  17.071 -0.3526  0.1365 -0.2412
16223TIP3   OH270083   2.758   0.150   5.596  0.8255 -0.1218 -0.3040
16223TIP3    H170084   2.787   0.180   5.510  1.4748 -0.4472 -0.2009
16223TIP3    H270085   2.717   0.226   5.636 -0.8807 -0.3604 -1.5137
16224TIP3   OH270086   1.332   0.097  15.698 -0.0379  0.5672  0.2377
16224TIP3    H170087   1.309   0.031  15.633 -0.1418 -0.7832  1.6040
16224TIP3    H270088   1.356   0.175  15.647 -0.3809 -0.3714 -1.3807
16225TIP3   OH270089   4.256   4.010   5.273  0.1083  0.8076  0.4749
16225TIP3    H170090   4.199   4.017   5.348 -0.6992  1.7627 -0.2160
16225TIP3    H270091   4.199   4.024   5.197  1.0361  0.6046 -0.2801
16226TIP3   OH270092   6.616   0.411  14.489  0.6935 -0.0032 -0.0481
16226TIP3    H170093   6.648   0.477  14.550  1.0422  0.8895 -1.1785
16226TIP3    H270094   6.527   0.439  14.468  0.2182 -0.8420  0.7768
16227TIP3   OH270095   5.973   4.471   2.456  0.4839  0.1002 -0.4714
16227TIP3    H170096   5.914   4.527   2.405  1.5145  0.0838 -1.7007
16227TIP3    H270097   6.025   4.531   2.508 -0.1387  0.1474  0.1093
16228TIP3   OH270098   0.532   1.648   1.572 -0.2245 -0.2637  0.3223
16228TIP3    H170099   0.606   1.586   1.570  0.3390  0.3550  1.5353
16228TIP3    H270100   0.509   1.659   1.480  1.1154 -0.5692 -0.0756
16229TIP3   OH270101   0.191   5.777   1.450  0.4090  0.3523 -0.4445
16229TIP3    H170102   0.256   5.847   1.457  0.5341  0.2481 -0.5744
16229TIP3    H270103   0.232   5.711   1.394 -0.6545  1.2791 -2.4074
16230TIP3   OH270104   3.791   0.844   2.673  0.5486  0.0561 -0.6094
16230TIP3    H170105   3.826   0.767   2.628 -2.4870 -1.2712 -0.7700
16230TIP3    H270106   3.804   0.825   2.766  2.7897  0.8668 -0.7046
16231TIP3   OH270107   0.129   6.097   3.111  0.0288  0.2188 -0.1036
16231TIP3    H170108   0.080   6.044   3.174 -1.4337  0.0860 -1.3335
16231TIP3    H270109   0.130   6.046   3.031 -2.0073  2.3018 -1.5269
16232TIP3   OH270110   2.554   3.579   0.235 -0.0720  0.2512 -0.2010
16232TIP3    H170111   2.638   3.534   0.229 -0.9177 -1.4319  0.1959
16232TIP3    H270112   2.553   3.617   0.323 -0.9657 -2.3129  0.9267
16233TIP3   OH270113   2.674   4.312  13.969 -0.1065 -0.1451  0.1983
16233TIP3    H170114   2.590   4.299  14.013 -1.7251  0.8263 -2.5002
16233TIP3    H270115   2.714   4.385  14.017 -1.1404 -0.0937  1.0136
16234TIP3   OH270116   5.100   3.909  16.843 -0.0126 -0.1399 -0.4510
16234TIP3    H170117   5.046   3.987  16.832 -0.6678 -0.5493 -0.1989
16234TIP3    H270118   5.159   3.930  16.915 -1.1183 -0.3664  0.5393
16235TIP3   OH270119   3.966   6.717   1.023  0.2081 -0.7534  0.4181
16235TIP3    H170120   3.970   6.718   0.927  1.3429 -0.6293  0.4564
16235TIP3    H270121   3.955   6.809   1.047 -0.5224 -0.8314  0.3978
16236TIP3   OH270122   5.202   2.541  14.574 -0.3681 -0.3252 -0.6898
16236TIP3    H170123   5.297   2.529  14.572 -0.0600  2.0445 -1.4330
16236TIP3    H270124   5.186   2.596  14.651 -1.0919 -0.3054 -0.8527
16237TIP3   OH270125   5.627   0.654   4.001  0.3145 -0.0581  0.2226
16237TIP3    H170126   5.658   0.692   4.083 -0.9414 -2.0863  1.6836
16237TIP3    H270127   5.696   0.673   3.938  0.1538  3.7456  1.1094
16238TIP3   OH270128   0.715   3.486  13.901  0.0022  0.1175 -0.5200
16238TIP3    H170129   0.796   3.479  13.952  0.8177  1.3639 -1.6213
16238TIP3    H270130   0.668   3.404  13.918  1.4658 -0.5874  0.1556
16239TIP3   OH270131   5.111   1.183   0.692  0.0426  1.0627 -0.3772
16239TIP3    H170132   5.091   1.271   0.724 -0.6874  0.8193 -0.1622
16239TIP3    H270133   5.079   1.124   0.761  3.3202  0.7075  0.9663
16240TIP3   OH270134   3.035   5.965   5.557  0.6712  0.0721 -0.0517
16240TIP3    H170135   2.964   5.991   5.498  0.2543  0.8720  0.7936
16240TIP3    H270136   3.115   5.990   5.510  0.2873  2.4581  0.5298
16241TIP3   OH270137   2.063   0.506   4.921  0.1129 -0.3231 -0.2914
16241TIP3    H170138   2.034   0.452   4.847 -0.7636  1.5529 -1.3359
16241TIP3    H270139   1.982   0.528   4.968  0.2914  1.3631 -0.7606
16242TIP3   OH270140   3.784   1.399   2.526  0.2587  0.1504  0.5394
16242TIP3    H170141   3.728   1.459   2.478 -1.2354 -0.6478  1.2323
16242TIP3    H270142   3.806   1.446   2.607 -1.2050 -0.3606  1.2447
16243TIP3   OH270143   3.731   5.467  15.130  0.0215 -0.3604  0.0302
16243TIP3    H170144   3.647   5.507  15.107 -0.3690 -0.0004  1.9717
16243TIP3    H270145   3.742   5.486  15.223  1.6668 -1.4922  0.0960
16244TIP3   OH270146   1.345   5.738   2.852 -0.4696  0.1199 -0.0024
16244TIP3    H170147   1.303   5.717   2.768  0.2784  0.9566 -0.6073
16244TIP3    H270148   1.337   5.833   2.859  0.4036  0.1688  0.3679
16245TIP3   OH270149   5.299   3.377  14.060 -0.1026  0.1184  0.2346
16245TIP3    H170150   5.264   3.349  14.145  0.7881 -1.5433  0.0810
16245TIP3    H270151   5.389   3.400  14.078 -0.0295  0.1543 -0.1746
16246TIP3   OH270152   6.613   6.682   0.210  0.1355  0.0016  0.0747
16246TIP3    H170153   6.648   6.689   0.299  0.3160  3.0043 -0.1784
16246TIP3    H270154   6.632   6.767   0.171 -1.1409 -0.8288 -2.4144
16247TIP3   OH270155   0.397   5.775  13.589  0.4430  0.3805  0.2611
16247TIP3    H170156   0.319   5.736  13.549  0.1629 -0.9679  2.1121
16247TIP3    H270157   0.422   5.845  13.527 -0.7766 -0.7607 -1.5803
16248TIP3   OH270158   3.175   6.468   6.014  0.2154  0.5366  0.0761
16248TIP3    H170159   3.114   6.541   6.027  0.9331  1.1401  0.0772
16248TIP3    H270160   3.183   6.427   6.100  1.6450  1.9106  0.6114
16249TIP3   OH270161   4.125   6.061   1.397 -0.5480 -0.2783 -0.2485
16249TIP3    H170162   4.040   6.024   1.371 -2.3423  2.0684  2.0164
16249TIP3    H270163   4.138   6.134   1.337 -0.3316 -0.4047 -0.3531
16250TIP3   OH270164   2.342   1.428  10.471  0.4475 -0.1362 -0.0701
16250TIP3    H170165   2.423   1.477  10.486 -0.4272  1.3905 -0.2407
16250TIP3    H270166   2.371   1.344  10.435  1.8665  0.9751 -1.5432
16251TIP3   OH270167   4.370   4.463   6.195  0.1523 -0.4124  0.0880
16251TIP3    H170168   4.353   4.419   6.278  0.5630  0.9161  0.8911
16251TIP3    H270169   4.443   4.521   6.213 -1.4805  1.8944 -0.4742
16252TIP3   OH270170   4.969   4.025  17.164 -0.0664 -0.2170  0.5381
16252TIP3    H170171   4.938   3.968  17.235  0.6659 -0.8879  0.3277
16252TIP3    H270172   5.064   4.025  17.173  0.2322 -2.4172 -2.0182
16253TIP3   OH270173   3.729   5.919   0.778  0.3739  0.7311 -0.9662
16253TIP3    H170174   3.682   6.000   0.793  0.5301  0.4606  1.1806
16253TIP3    H270175   3.667   5.850   0.802  0.8946  0.2781 -0.8987
16254TIP3   OH270176   6.664   3.910  16.869 -0.9249 -0.0385  0.1574
16254TIP3    H170177   6.634   4.001  16.872  0.5773  0.6204 -2.9934
16254TIP3    H270178   6.610   3.869  16.802 -0.3652 -1.0109  0.2965
16255TIP3   OH270179   5.123   5.446  11.783  0.3640  0.3089  0.5215
16255TIP3    H170180   5.197   5.498  11.811 -0.0934  1.6623 -0.7010
16255TIP3    H270181   5.110   5.470  11.691 -1.8685  0.4780  0.8330
16256TIP3   OH270182   1.595   6.333   2.452 -0.6155 -0.4521 -0.1924
16256TIP3    H170183   1.650   6.310   2.527  1.1964  2.0518 -0.6785
16256TIP3    H270184   1.540   6.257   2.438 -0.9500 -1.0132  3.6648
16257TIP3   OH270185   2.982   0.746  11.823 -0.2153  0.0653  0.1015
16257TIP3    H170186   3.018   0.791  11.899 -1.3238 -1.1770  1.3880
16257TIP3    H270187   3.015   0.796  11.748 -0.8854  2.6199  1.4509
16258TIP3   OH270188   5.912   0.871   5.423  0.2027  0.3003  0.3283
16258TIP3    H170189   5.946   0.895   5.509 -1.4440  3.5472  0.1298
16258TIP3    H270190   5.822   0.843   5.440  0.0335  0.4628 -0.2856
16259TIP3   OH270191   2.259   4.211  12.330 -0.2441  0.2249  0.3271
16259TIP3    H170192   2.235   4.274  12.262  0.6581 -0.3454 -0.5306
16259TIP3    H270193   2.217   4.129  12.303  1.2209 -0.3375 -0.2537
16260TIP3   OH270194   1.755   1.205   1.050  0.2814 -0.1606 -0.8518
16260TIP3    H170195   1.770   1.121   1.006 -1.8907 -1.1176  0.1761
16260TIP3    H270196   1.815   1.203   1.125  0.3708 -0.7096 -0.9328
16261TIP3   OH270197   6.775   0.243  10.819  0.0756  0.2733 -0.2002
16261TIP3    H170198   6.856   0.291  10.801  0.2213 -0.1295 -0.6158
16261TIP3    H270199   6.744   0.280  10.902 -0.0929  1.4633 -0.7753
16262TIP3   OH270200   4.608   0.251   2.896 -1.2810  0.3634  0.0890
16262TIP3    H170201   4.659   0.331   2.896 -3.4395  1.8336  2.8340
16262TIP3    H270202   4.666   0.185   2.933 -0.9659  1.7485  2.1324
16263TIP3   OH270203   6.268   6.678  13.581 -0.4649  0.0540  0.2272
16263TIP3    H170204   6.330   6.743  13.548  0.3667 -0.6375  0.3955
16263TIP3    H270205   6.234   6.636  13.502  0.4774 -0.6453  0.1801
16264TIP3   OH270206   1.754   6.569  10.426  0.6853  0.0771 -0.5001
16264TIP3    H170207   1.816   6.554  10.497  0.9610 -1.3653 -1.0265
16264TIP3    H270208   1.686   6.625  10.465  0.5204 -1.1799  1.0801
16265TIP3   OH270209   0.088   1.185  15.065  0.4905 -0.0884  0.2713
16265TIP3    H170210   0.151   1.192  15.137  0.0418 -0.1839  0.6791
16265TIP3    H270211   0.141   1.161  14.989  0.8704 -0.7607  0.7427
16266TIP3   OH270212   5.169   1.969  13.445  0.6646 -0.2040  0.4543
16266TIP3    H170213   5.097   1.968  13.382  1.9787 -0.7850 -1.0642
16266TIP3    H270214   5.201   2.060  13.444  0.9851 -0.3216 -0.0737
16267TIP3   OH270215   0.916   2.356   3.076  0.4072  0.4871 -0.2603
16267TIP3    H170216   0.937   2.271   3.036  0.5822  0.5555 -0.3132
16267TIP3    H270217   0.979   2.417   3.037 -0.0582  0.7415 -0.6089
16268TIP3   OH270218   1.075   5.757  17.085 -0.4408 -0.0701 -0.0059
16268TIP3    H170219   0.981   5.773  17.073 -0.4356 -0.6277 -0.7797
16268TIP3    H270220   1.095   5.684  17.026  0.4045 -0.1940  0.4281
16269TIP3   OH270221   6.535   4.158  11.872 -0.1978  0.2147 -0.0760
16269TIP3    H170222   6.522   4.090  11.806  0.2990  0.0972 -0.0512
16269TIP3    H270223   6.527   4.112  11.956  1.7158 -0.1172 -0.0558
16270TIP3   OH270224   6.671   6.647   4.053 -0.2650 -0.2587 -0.0242
16270TIP3    H170225   6.589   6.649   4.004 -1.1273  0.6152  1.3904
16270TIP3    H270226   6.720   6.722   4.019 -0.8612  0.3499  0.4261
16271TIP3   OH270227   2.298   4.137   1.925  0.0200  0.1536  0.5910
16271TIP3    H170228   2.228   4.200   1.943 -0.2167 -0.9515  3.8656
16271TIP3    H270229   2.377   4.178   1.957  0.3365 -0.0447  0.0808
16272TIP3   OH270230   6.780   2.708   0.062  0.0227 -0.5232 -0.0064
16272TIP3    H170231   6.834   2.632   0.083  0.3470  0.2102  1.9194
16272TIP3    H270232   6.712   2.710   0.130  0.7788  1.6113  0.7530
16273TIP3   OH270233   1.340   4.889  13.924  0.0190  0.2828  0.0119
16273TIP3    H170234   1.299   4.849  14.001 -0.2019  0.3203 -0.0862
16273TIP3    H270235   1.290   4.856  13.850  0.5861 -0.1925 -0.1623
16274TIP3   OH270236   1.368   1.573   6.344  0.7376  0.2991  0.3624
16274TIP3    H170237   1.368   1.553   6.250  1.0314  1.6138  0.0807
16274TIP3    H270238   1.349   1.489   6.386 -1.0032 -0.0073 -0.9493
16275TIP3   OH270239   3.300   6.227  15.292  0.1087  0.5334 -0.0369
16275TIP3    H170240   3.216   6.205  15.251 -0.1862  1.8969 -0.1694
16275TIP3    H270241   3.364   6.223  15.221  0.0897 -0.0274 -0.0290
16276TIP3   OH270242   1.052   6.379   4.852  0.1348 -0.4001 -0.8673
16276TIP3    H170243   1.046   6.472   4.874 -1.2261 -0.5061 -0.7545
16276TIP3    H270244   1.136   6.352   4.889  0.6167  0.8138 -1.0364
16277TIP3   OH270245   6.300   1.780  11.612 -0.1106 -0.8242 -0.0733
16277TIP3    H170246   6.233   1.813  11.672 -0.8138 -2.2763 -0.0422
16277TIP3    H270247   6.284   1.828  11.531 -0.4796 -0.3440  0.2792
16278TIP3   OH270248   0.526   2.846  15.418  0.0048 -0.2959 -0.5256
16278TIP3    H170249   0.547   2.802  15.335 -0.2996 -1.5807  0.0618
16278TIP3    H270250   0.522   2.775  15.482 -1.7301  0.4311  0.2079
16279TIP3   OH270251   5.369   3.184   1.729  0.3841 -0.1842 -0.2209
16279TIP3    H170252   5.281   3.148   1.736  0.0796  0.3286 -1.2285
16279TIP3    H270253   5.426   3.112   1.755 -0.2310 -1.3633 -2.0041
16280TIP3   OH270254   6.237   6.309  10.537 -0.1565  0.7290 -0.0219
16280TIP3    H170255   6.230   6.342  10.627  1.0561 -0.1963  0.4301
16280TIP3    H270256   6.259   6.386  10.485  0.7719  0.9805  0.7318
16281TIP3   OH270257   2.772   0.505  14.348 -0.4183  0.1921  0.1930
16281TIP3    H170258   2.867   0.506  14.344 -0.4283  0.8754 -0.0399
16281TIP3    H270259   2.750   0.425  14.394  0.2098 -1.0004 -1.5356
16282TIP3   OH270260   5.875   5.111   4.536  0.3897 -0.2679 -0.2121
16282TIP3    H170261   5.850   5.096   4.445 -1.7431  1.2414  0.0961
16282TIP3    H270262   5.861   5.026   4.579  0.2887 -0.6709 -1.0339
16283TIP3   OH270263   3.006   3.525  16.311  0.4100  0.2916 -0.1000
16283TIP3    H170264   2.966   3.443  16.341 -0.0286  1.0948  1.5180
16283TIP3    H270265   3.063   3.498  16.238  0.1054 -1.4197  0.2820
16284TIP3   OH270266   1.072   5.729   3.853 -0.1161 -0.1863  0.1871
16284TIP3    H170267   1.071   5.665   3.924  1.7096  2.4926  2.7223
16284TIP3    H270268   0.983   5.765   3.852  0.5733  1.7812  3.1034
16285TIP3   OH270269   4.435   2.042   3.575  0.0185  0.1830 -0.3973
16285TIP3    H170270   4.380   1.976   3.616  0.1125 -0.1498 -0.7922
16285TIP3    H270271   4.379   2.082   3.508  0.5495 -0.8597 -1.4934
16286TIP3   OH270272   1.139   0.011   0.622 -0.1693 -0.0583  0.1482
16286TIP3    H170273   1.207   0.071   0.651 -0.0949 -0.3248  0.5166
16286TIP3    H270274   1.067   0.024   0.684 -0.2112 -0.2471  0.1387
16287TIP3   OH270275   0.801   4.739   3.147  0.7295  0.3389  0.1070
16287TIP3    H170276   0.766   4.789   3.221  2.1018  1.2712  0.1609
16287TIP3    H270277   0.893   4.766   3.143  1.2140 -1.3853 -0.5566
16288TIP3   OH270278   5.612   4.761   4.059  0.2594  0.3422 -0.2241
16288TIP3    H170279   5.531   4.763   4.110 -0.0895  0.7048 -0.7845
16288TIP3    H270280   5.646   4.672   4.069  0.3265  0.4839  0.8474
16289TIP3   OH270281   6.039   5.431   5.571  0.3335  0.2820 -0.0394
16289TIP3    H170282   6.020   5.395   5.485  1.5497  1.4691 -0.8288
16289TIP3    H270283   5.958   5.420   5.621  0.2762 -2.3006 -0.6578
16290TIP3   OH270284   5.456   1.922  11.594 -0.1946  0.2351 -0.1759
16290TIP3    H170285   5.431   1.832  11.614 -2.5232  0.5294 -1.5505
16290TIP3    H270286   5.475   1.962  11.679  0.2627 -1.3776  0.4889
16291TIP3   OH270287   4.426   3.670  15.548  0.4012 -0.0236 -0.1982
16291TIP3    H170288   4.477   3.738  15.591 -0.4961  0.7892 -0.4208
16291TIP3    H270289   4.421   3.697  15.456 -1.4148  0.5043  0.0428
16292TIP3   OH270290   6.391   3.667   5.153  0.5863  0.1835 -0.0062
16292TIP3    H170291   6.421   3.652   5.064 -0.8380  2.0670 -0.8436
16292TIP3    H270292   6.466   3.706   5.198  0.9443  0.2866 -0.6922
16293TIP3   OH270293   0.290   5.552   0.732 -0.2800 -0.4900  0.5124
16293TIP3    H170294   0.365   5.552   0.791 -0.5761  0.1446  0.8979
16293TIP3    H270295   0.214   5.545   0.790 -0.4984 -1.5767  0.0955
16294TIP3   OH270296   1.711   5.829  12.662 -0.3332 -0.0317 -0.3705
16294TIP3    H170297   1.793   5.875  12.676 -0.1654 -0.8855  1.4531
16294TIP3    H270298   1.650   5.898  12.634  0.0685  1.2233  1.7613
16295TIP3   OH270299   5.343   4.485   2.291 -0.4308 -0.5717  0.2261
16295TIP3    H170300   5.419   4.527   2.331  0.2639 -1.4526 -0.1598
16295TIP3    H270301   5.362   4.484   2.197 -0.2974 -2.0174  0.2546
16296TIP3   OH270302   2.534   5.772  14.955  0.0854 -0.6232  0.0332
16296TIP3    H170303   2.542   5.845  14.894 -1.1801 -2.0627 -1.9174
16296TIP3    H270304   2.572   5.697  14.908  0.7944 -1.3583  1.7497
16297TIP3   OH270305   0.012   4.721  17.160  0.0997 -0.2876 -0.1877
16297TIP3    H170306   0.079   4.758  17.216 -1.2454  0.2456  1.1112
16297TIP3    H270307  -0.071   4.753  17.197 -0.7845  0.7595 -2.9647
16298TIP3   OH270308   4.065   0.136  12.133 -0.2870  0.2747  0.5365
16298TIP3    H170309   3.997   0.203  12.140 -0.5560 -0.0427  1.0633
16298TIP3    H270310   4.027   0.068  12.078 -0.3357  0.1710  0.6971
16299TIP3   OH270311   0.482   1.743  11.468 -0.2186 -0.3029  0.4072
16299TIP3    H170312   0.543   1.768  11.537 -1.0080 -0.0835  1.0273
16299TIP3    H270313   0.428   1.821  11.455  1.0823  0.2997 -1.7354
16300TIP3   OH270314   6.672   4.371   3.704  0.0056 -0.3652  0.6324
16300TIP3    H170315   6.721   4.444   3.740  0.8276 -0.8546  0.5164
16300TIP3    H270316   6.582   4.386   3.733  0.4960 -0.2994  2.1772
16301TIP3   OH270317   5.842   1.399  12.143 -0.1875  1.0699 -0.0965
16301TIP3    H170318   5.883   1.436  12.221 -0.4178  0.3971  0.3457
16301TIP3    H270319   5.822   1.309  12.167 -0.8056  1.0366 -0.7318
16302TIP3   OH270320   4.814   4.618  16.876  0.6370 -0.0034 -0.4131
16302TIP3    H170321   4.785   4.580  16.959  0.5912  2.3348  0.6941
16302TIP3    H270322   4.741   4.604  16.816 -0.8373  1.4672  0.9781
16303TIP3   OH270323   6.585   0.423   4.136  0.1136 -0.4507  0.0285
16303TIP3    H170324   6.663   0.410   4.082 -0.0920 -0.7000 -0.2084
16303TIP3    H270325   6.540   0.339   4.134 -1.7492  0.5499 -2.3267
16304TIP3   OH270326   1.028   5.665   1.588  0.2932 -0.1002 -0.0306
16304TIP3    H170327   1.087   5.590   1.580  0.2165  0.0343 -1.9512
16304TIP3    H270328   1.086   5.740   1.597  0.4283 -0.0296 -1.3854
16305TIP3   OH270329   3.861   1.137  15.130 -0.1242 -0.3790  0.1965
16305TIP3    H170330   3.776   1.172  15.156 -0.5895 -1.5070  0.1893
16305TIP3    H270331   3.877   1.064  15.189  0.6408 -0.4455 -0.0857
16306TIP3   OH270332   0.073   2.099  13.464 -0.7957 -0.0389  0.0869
16306TIP3    H170333  -0.006   2.098  13.409 -0.9852 -1.3727  0.3528
16306TIP3    H270334   0.052   2.042  13.537  0.4976 -0.6051  0.0372
16307TIP3   OH270335   2.396   6.315  14.166 -0.4567  0.1063 -0.4281
16307TIP3    H170336   2.419   6.237  14.115 -1.0121  0.3997 -1.1490
16307TIP3    H270337   2.302   6.328  14.149 -0.3676  0.9294 -0.3285
16308TIP3   OH270338   2.978   6.415  15.738  0.1111  0.0497 -0.1079
16308TIP3    H170339   3.064   6.407  15.779 -0.4232 -3.4862  0.5253
16308TIP3    H270340   2.991   6.391  15.647  0.1518  1.5833 -0.5150
16309TIP3   OH270341   3.578   3.233  13.238  0.5016 -0.5799 -0.0601
16309TIP3    H170342   3.557   3.160  13.179  1.7784 -1.0371  0.0259
16309TIP3    H270343   3.498   3.248  13.288 -0.0834 -1.2588 -0.7820
16310TIP3   OH270344   3.329   1.683   1.789  0.8357  0.5782 -0.2268
16310TIP3    H170345   3.285   1.704   1.872 -1.9887  0.8335 -1.7123
16310TIP3    H270346   3.272   1.617   1.748  3.2458 -1.0373 -1.0789
16311TIP3   OH270347   4.752   3.395   2.524  0.2197 -0.0321 -0.0525
16311TIP3    H170348   4.788   3.320   2.477 -0.3392 -1.6492  2.0038
16311TIP3    H270349   4.662   3.368   2.544 -0.6398  2.0295 -1.0408
16312TIP3   OH270350   3.206   2.306  12.254  0.4027  0.4571 -0.0684
16312TIP3    H170351   3.272   2.289  12.321  1.4126 -0.0051 -1.1723
16312TIP3    H270352   3.207   2.401  12.242 -0.3683  0.6410  1.1410
16313TIP3   OH270353   4.316   6.693  12.893 -0.6911 -0.1791  0.6934
16313TIP3    H170354   4.384   6.694  12.960 -0.1711 -2.8554  0.2543
16313TIP3    H270355   4.363   6.708  12.811 -0.4738 -2.7450  0.3074
16314TIP3   OH270356   0.045   6.176   5.418 -0.3531 -0.1060  0.4446
16314TIP3    H170357   0.091   6.103   5.377  0.4651  0.1408  0.9282
16314TIP3    H270358  -0.046   6.163   5.392  0.4342  1.1882 -3.1898
16315TIP3   OH270359   3.034   1.487   3.248 -0.0848 -0.6828 -0.4497
16315TIP3    H170360   3.088   1.562   3.276  0.8713 -0.7832 -1.9605
16315TIP3    H270361   2.948   1.505   3.285  0.3612  0.7114 -0.0225
16316TIP3   OH270362   5.272   3.680  16.373 -0.4645 -0.2928  0.1820
16316TIP3    H170363   5.254   3.626  16.450 -1.6200  0.5508  0.5176
16316TIP3    H270364   5.239   3.767  16.396 -1.6649 -0.2472 -1.5939
16317TIP3   OH270365   4.553   6.032   2.691 -0.0907  0.1246  0.5161
16317TIP3    H170366   4.597   6.096   2.635  1.5957 -0.7512  0.8018
16317TIP3    H270367   4.506   5.975   2.630 -0.3443  0.7097  0.1608
16318TIP3   OH270368   5.230   5.995  12.109  0.4842  0.0620 -0.1063
16318TIP3    H170369   5.217   6.063  12.044 -3.1387 -0.5950 -0.1764
16318TIP3    H270370   5.281   5.928  12.064  0.5302  0.9279 -1.3512
16319TIP3   OH270371   3.778   3.739   0.003  0.0283 -0.1023 -0.4522
16319TIP3    H170372   3.861   3.725  -0.042 -0.1173 -0.4937 -0.5980
16319TIP3    H270373   3.781   3.830   0.032  0.2038  0.0889 -1.0812
16320TIP3   OH270374   6.357   6.023  13.038 -0.0286  0.6388 -0.2175
16320TIP3    H170375   6.448   6.005  13.017 -0.4838 -1.0806 -0.7361
16320TIP3    H270376   6.361   6.097  13.100  1.6871  0.6551 -0.3259
16321TIP3   OH270377   1.165   0.428  15.030  0.0252  0.1685 -0.3774
16321TIP3    H170378   1.127   0.511  15.003  0.8310  0.6945  0.0941
16321TIP3    H270379   1.184   0.383  14.947  0.0153  0.6472 -0.6451
16322TIP3   OH270380   3.288   0.925   1.709 -0.0818 -0.0401  0.5699
16322TIP3    H170381   3.353   0.879   1.763 -1.2606  0.6257  2.6241
16322TIP3    H270382   3.231   0.855   1.677  0.8977 -0.4938 -0.2434
16323TIP3   OH270383   6.014   6.150   5.485  0.3713 -0.5310  0.0118
16323TIP3    H170384   5.935   6.099   5.467  0.1906  0.0363 -0.8183
16323TIP3    H270385   6.071   6.133   5.410  0.1593  0.7785 -0.4458
16324TIP3   OH270386   6.638   3.893  16.030 -0.4428 -0.1716  0.2817
16324TIP3    H170387   6.551   3.909  15.993  0.0378  0.8412 -0.4252
16324TIP3    H270388   6.698   3.940  15.972  0.6244 -1.1870  0.5382
16325TIP3   OH270389   3.980   2.957  15.771  0.0280  0.0350  0.0602
16325TIP3    H170390   3.960   2.865  15.757 -0.9426  0.0771  1.1151
16325TIP3    H270391   3.895   3.001  15.768  0.2311  0.5831  1.9034
16326TIP3   OH270392   2.916   0.759   0.179 -0.0962  0.0149  0.7566
16326TIP3    H170393   2.828   0.763   0.142  0.3665 -0.8863 -0.4577
16326TIP3    H270394   2.902   0.729   0.269 -0.9405 -1.4346  0.1621
16327TIP3   OH270395   1.295   1.576   5.172 -0.6481 -0.4148  0.0221
16327TIP3    H170396   1.333   1.586   5.259 -1.1150  1.1089  0.0586
16327TIP3    H270397   1.204   1.549   5.189 -0.1278 -2.3212 -0.0460
16328TIP3   OH270398   3.353   6.170  10.989  0.3412  0.0051 -0.1688
16328TIP3    H170399   3.307   6.148  10.908 -1.3490 -0.7960  0.9683
16328TIP3    H270400   3.284   6.202  11.047  1.2743 -0.9492  1.4905
16329TIP3   OH270401   5.255   5.113  13.486 -0.1307 -0.0448 -0.3031
16329TIP3    H170402   5.310   5.189  13.505  0.6831 -0.5475 -0.6259
16329TIP3    H270403   5.185   5.148  13.432 -0.7576  0.8155  1.0132
16330TIP3   OH270404   1.171   0.939   6.135 -0.0807 -0.0493  0.1340
16330TIP3    H170405   1.140   1.025   6.109  1.8806  0.8909  0.8370
16330TIP3    H270406   1.092   0.885   6.138 -1.2376  1.5502 -0.9347
16331TIP3   OH270407   5.301   3.952  17.013 -0.4854  0.0468 -0.2959
16331TIP3    H170408   5.395   3.946  17.032 -0.7757 -3.4145  0.3435
16331TIP3    H270409   5.262   3.989  17.093  0.1830  0.4700 -0.1609
16332TIP3   OH270410   1.934   5.514  14.768  0.0195  0.5489  0.0450
16332TIP3    H170411   2.004   5.450  14.753  0.6612  0.6328  2.3859
16332TIP3    H270412   1.980   5.598  14.777 -0.7961  1.3464 -2.7851
16333TIP3   OH270413   6.714   6.562   0.664  0.1949  0.0930  0.4765
16333TIP3    H170414   6.639   6.525   0.710  0.7862 -0.6087  0.8816
16333TIP3    H270415   6.744   6.634   0.721 -0.0415  0.2412  0.4141
16334TIP3   OH270416   4.853   6.022   3.285  0.5509  0.6619  0.7328
16334TIP3    H170417   4.925   6.030   3.348 -0.3874  0.6536  1.8147
16334TIP3    H270418   4.811   5.939   3.306 -1.0446  1.6331  1.4605
16335TIP3   OH270419   3.128   3.453  15.212  0.1350 -0.3187  0.0405
16335TIP3    H170420   3.116   3.411  15.127 -1.2895  2.0151 -0.9855
16335TIP3    H270421   3.073   3.532  15.207  0.8227  0.3797  2.7501
16336TIP3   OH270422   1.974   2.890   5.562  0.6175  0.3434  0.2671
16336TIP3    H170423   2.069   2.891   5.573  0.7535  1.8127 -0.8982
16336TIP3    H270424   1.940   2.938   5.638  0.6368 -2.2949  1.9826
16337TIP3   OH270425   2.921   1.435   0.598  0.1728  0.2599  0.1332
16337TIP3    H170426   2.865   1.479   0.534 -1.1346 -1.8934 -0.2557
16337TIP3    H270427   2.881   1.455   0.683 -1.0610 -1.0588 -0.1261
16338TIP3   OH270428   2.428   5.950   3.050  0.1325 -0.0347 -0.0070
16338TIP3    H170429   2.405   5.861   3.023  0.1973 -0.2818  0.7359
16338TIP3    H270430   2.521   5.944   3.073 -0.0067  0.0860  0.6026
16339TIP3   OH270431   1.944   1.296  13.615  0.3749 -0.6794  0.3388
16339TIP3    H170432   1.889   1.352  13.561  0.7729 -0.0902  0.5294
16339TIP3    H270433   2.007   1.356  13.655  1.3865 -1.3984 -0.1671
16340TIP3   OH270434   2.879   5.018   5.870  0.0968  0.6291 -0.5091
16340TIP3    H170435   2.834   4.952   5.923 -1.0506  1.1853 -0.7752
16340TIP3    H270436   2.971   5.010   5.895 -0.2221 -0.1411  0.4596
16341TIP3   OH270437   6.729   5.643   3.089  0.3193  0.0298  0.2802
16341TIP3    H170438   6.825   5.645   3.090  0.3702 -0.2863 -1.3682
16341TIP3    H270439   6.705   5.711   3.026 -0.5667  0.4948  1.1081
16342TIP3   OH270440   5.533   2.232   5.560  0.0652 -0.0046  0.0696
16342TIP3    H170441   5.524   2.215   5.654 -1.2027 -1.1316 -0.2380
16342TIP3    H270442   5.477   2.308   5.544 -1.0013 -0.8112 -0.0564
16343TIP3   OH270443   0.470   4.530  12.594  0.0288 -0.7715 -0.5562
16343TIP3    H170444   0.470   4.499  12.684 -0.4740 -0.3264 -0.4011
16343TIP3    H270445   0.504   4.619  12.599 -1.2912 -0.2534 -0.6296
16344TIP3   OH270446   6.000   1.965  16.811  0.1218  0.8733  0.8229
16344TIP3    H170447   6.079   1.912  16.811 -1.1729 -1.1136  2.1126
16344TIP3    H270448   6.031   2.056  16.812  2.3574  0.1235  0.4749
16345TIP3   OH270449   5.782   3.394  12.811  0.3712 -0.0872 -0.0369
16345TIP3    H170450   5.877   3.391  12.817  0.3031 -0.9759  0.7334
16345TIP3    H270451   5.761   3.487  12.801  1.3539  0.0340 -0.9990
16346TIP3   OH270452   5.757   0.415  15.399 -0.1069  0.2272 -0.0887
16346TIP3    H170453   5.850   0.432  15.383  0.2012  0.3769  1.7574
16346TIP3    H270454   5.729   0.484  15.459 -0.7943 -1.1931  1.2796
16347TIP3   OH270455   4.346   6.475   5.518 -0.1288 -0.0467 -0.0507
16347TIP3    H170456   4.297   6.452   5.440 -0.1208 -0.3904  0.0443
16347TIP3    H270457   4.359   6.392   5.564 -0.6489  0.2362  0.6190
16348TIP3   OH270458   1.329   1.053  13.341  0.0005 -0.4463  0.0920
16348TIP3    H170459   1.303   0.984  13.403 -3.3961 -1.1924 -2.0654
16348TIP3    H270460   1.265   1.123  13.355 -0.3852 -0.3468 -2.0720
16349TIP3   OH270461   5.413   2.481   1.641  0.6360  0.5686  0.1036
16349TIP3    H170462   5.448   2.444   1.722  0.2562  0.5957  0.2830
16349TIP3    H270463   5.401   2.574   1.660  1.2076  0.7101 -0.2159
16350TIP3   OH270464   3.248   3.547  14.237 -0.3089  0.2135 -0.2848
16350TIP3    H170465   3.307   3.606  14.284 -2.6401 -0.5687  3.8247
16350TIP3    H270466   3.168   3.599  14.223 -0.3604 -0.2166 -1.6612
16351TIP3   OH270467   2.168   4.302  13.139 -0.2239  0.0439  0.1722
16351TIP3    H170468   2.245   4.258  13.176  1.2148  0.5393 -2.0876
16351TIP3    H270469   2.151   4.375  13.198  0.6475 -0.4574  1.0529
16352TIP3   OH270470   4.634   5.960   5.810 -0.9183 -0.4097 -0.0765
16352TIP3    H170471   4.641   6.055   5.815 -1.5781 -0.2936 -1.0612
16352TIP3    H270472   4.578   5.945   5.734  0.0423 -1.6077 -0.5617
16353TIP3   OH270473   1.084   5.059  14.919 -0.3525 -0.4631  0.3238
16353TIP3    H170474   1.013   4.998  14.902  0.7990 -1.2484 -1.7959
16353TIP3    H270475   1.119   5.033  15.004  0.5027 -3.1841 -0.7940
16354TIP3   OH270476   2.188   4.180   4.850 -0.2962 -0.2322  0.2492
16354TIP3    H170477   2.215   4.120   4.782  2.0522 -0.9139  1.7098
16354TIP3    H270478   2.146   4.125   4.916 -2.5057  0.4120 -0.5785
16355TIP3   OH270479   2.853   4.463   3.902  0.1743 -0.3271  0.0081
16355TIP3    H170480   2.785   4.395   3.901 -1.4896  1.3030 -1.7904
16355TIP3    H270481   2.804   4.545   3.911  2.0228  0.7544  0.2905
16356TIP3   OH270482   5.052   3.586   0.392 -0.5766  0.5551  0.5166
16356TIP3    H170483   5.008   3.506   0.361 -1.0617  0.4833  1.3980
16356TIP3    H270484   5.090   3.561   0.476  0.3182  0.9084  0.2199
16357TIP3   OH270485   3.981   3.921  14.742 -0.0309  0.1733  0.3188
16357TIP3    H170486   3.919   3.993  14.728  0.2526  0.4646  0.5480
16357TIP3    H270487   3.927   3.842  14.743 -0.2714  0.3307 -0.5215
16358TIP3   OH270488   2.342   5.832  11.485 -0.3623 -0.1689  0.2193
16358TIP3    H170489   2.435   5.810  11.488 -0.4992 -1.0301 -1.3333
16358TIP3    H270490   2.321   5.859  11.574  0.7803 -2.4455  1.2229
16359TIP3   OH270491   4.943   4.670   1.697 -0.3837 -0.2418  0.1522
16359TIP3    H170492   5.019   4.716   1.661  0.2646 -1.5313 -0.1644
16359TIP3    H270493   4.929   4.711   1.783 -0.2640  1.0161 -0.4191
16360TIP3   OH270494   1.639   5.954  13.009 -0.3961 -0.2488  0.7650
16360TIP3    H170495   1.605   5.994  13.089 -0.7977  2.2059 -0.6177
16360TIP3    H270496   1.733   5.968  13.013 -0.4930  0.4698  0.4720
16361TIP3   OH270497   1.616   4.957  12.749  0.2275 -0.3152 -0.4535
16361TIP3    H170498   1.598   4.895  12.679 -1.1695 -0.0497 -0.3419
16361TIP3    H270499   1.570   4.922  12.825 -2.0988  1.7701 -0.8394
16362TIP3   OH270500   4.934   0.634  11.933 -0.3402  0.2445  0.0897
16362TIP3    H170501   4.875   0.658  11.862  1.2712  1.1767 -0.9684
16362TIP3    H270502   4.931   0.708  11.993  0.6741  0.8534 -0.5889
16363TIP3   OH270503   0.020   3.049   3.978  0.1836 -0.0337 -0.7635
16363TIP3    H170504  -0.052   3.081   4.032  1.4306  1.1262  0.2718
16363TIP3    H270505  -0.017   3.042   3.890 -1.6572 -1.1889  0.0718
16364TIP3   OH270506   3.148   1.432   6.189  0.1828  0.0564  0.7342
16364TIP3    H170507   3.064   1.393   6.214 -0.1221 -0.4397 -1.0543
16364TIP3    H270508   3.205   1.415   6.264 -0.9201 -0.8064  1.3873
16365TIP3   OH270509   2.051   1.086  13.173 -0.1650 -0.3414  0.0777
16365TIP3    H170510   2.022   1.025  13.241 -1.3092  1.1484  0.9569
16365TIP3    H270511   1.975   1.142  13.157 -0.1985 -1.2329 -3.1010
16366TIP3   OH270512   1.000   0.353  16.830  0.4633  0.7053 -0.0882
16366TIP3    H170513   0.908   0.378  16.838  0.1792 -0.2170 -0.3192
16366TIP3    H270514   1.008   0.273  16.882  0.3049 -1.1906 -2.8219
16367TIP3   OH270515   3.097   5.130  16.901  0.4813  0.2376 -0.0050
16367TIP3    H170516   3.054   5.047  16.884  0.8597  0.2683 -1.1849
16367TIP3    H270517   3.029   5.196  16.890  0.1015  0.0693  1.2635
16368TIP3   OH270518   0.374   1.520  12.069  0.3998  0.2804 -0.5982
16368TIP3    H170519   0.371   1.426  12.053  1.4189  0.2159 -0.4550
16368TIP3    H270520   0.330   1.532  12.153  1.1308 -0.1804 -0.1526
16369TIP3   OH270521   5.975   0.552  11.339  0.0557  0.2619 -0.1232
16369TIP3    H170522   5.922   0.545  11.260  2.0621 -1.8214 -1.3725
16369TIP3    H270523   6.054   0.598  11.310  1.0559 -1.0342  0.4798
16370TIP3   OH270524   3.452   2.308   0.995 -0.1160  0.3365 -0.2470
16370TIP3    H170525   3.476   2.358   1.073 -0.6215 -0.7511  0.6187
16370TIP3    H270526   3.362   2.334   0.976 -0.4590 -0.3973  0.3400
16371TIP3   OH270527   4.551   2.928   0.530  0.1154  0.1697  0.2368
16371TIP3    H170528   4.486   2.999   0.529  1.3667  1.3647  1.7728
16371TIP3    H270529   4.604   2.945   0.608  1.6929 -1.3310 -0.4786
16372TIP3   OH270530   1.272   4.805  12.752  0.0840 -0.6935 -0.5100
16372TIP3    H170531   1.236   4.844  12.672 -0.4678 -1.7195 -0.7670
16372TIP3    H270532   1.232   4.718  12.757 -2.9586  0.7585  2.9652
16373TIP3   OH270533   1.983   4.859   5.427  0.0489  0.8425  0.0291
16373TIP3    H170534   2.050   4.821   5.370  0.2414 -0.4730  1.1016
16373TIP3    H270535   2.001   4.954   5.425  1.9238  0.5177  0.2634
16374TIP3   OH270536   3.504   5.638   6.283  0.5126 -0.0359 -0.4254
16374TIP3    H170537   3.415   5.611   6.261  0.3347 -1.2626  1.7575
16374TIP3    H270538   3.502   5.657   6.376  2.2984  0.9067 -0.5569
16375TIP3   OH270539   5.399   6.195   2.488 -0.4316 -0.3111  0.4556
16375TIP3    H170540   5.383   6.106   2.519  1.1068 -0.0675  2.0252
16375TIP3    H270541   5.319   6.243   2.512 -0.6492 -0.9231  0.9831
16376TIP3   OH270542   4.715   3.286  14.950  0.2953 -0.8267 -0.8428
16376TIP3    H170543   4.685   3.367  14.909  0.8080  0.1969  0.7733
16376TIP3    H270544   4.635   3.240  14.975  0.0015  0.8497  1.4304
16377TIP3   OH270545   1.290   4.113  15.043  0.4455  0.3850 -0.6294
16377TIP3    H170546   1.220   4.165  15.083 -0.0577 -0.0214 -0.9641
16377TIP3    H270547   1.268   4.023  15.066  1.7545  0.3789  0.6252
16378TIP3   OH270548   5.552   1.133  14.077 -0.2666 -0.2566 -0.0082
16378TIP3    H170549   5.564   1.089  14.161  1.5643  2.2076  1.1044
16378TIP3    H270550   5.632   1.113  14.029  0.4904  1.6142  0.4345
16379TIP3   OH270551   0.100   4.043  12.406 -0.4855 -0.2280  0.0899
16379TIP3    H170552   0.182   4.070  12.449  1.0195 -0.6014 -2.4581
16379TIP3    H270553   0.085   3.954  12.438  0.0891 -0.1529  0.5832
16380TIP3   OH270554   4.781   4.138  14.798  0.2958  0.2107 -0.4278
16380TIP3    H170555   4.752   4.221  14.837 -0.5087 -0.6812  0.9256
16380TIP3    H270556   4.815   4.088  14.872  1.5009 -0.3672 -1.3618
16381TIP3   OH270557   5.603   1.698   1.786 -0.3412 -0.4623 -0.1133
16381TIP3    H170558   5.529   1.758   1.775 -0.6204 -0.8866 -0.5300
16381TIP3    H270559   5.605   1.680   1.880 -0.8107 -0.5065 -0.1111
16382TIP3   OH270560   6.436   1.794  12.585  0.3899  0.1411  0.1761
16382TIP3    H170561   6.523   1.832  12.598 -0.1753  1.3298  0.4816
16382TIP3    H270562   6.450   1.725  12.520  1.2847  1.3397 -0.9102
16383TIP3   OH270563   2.852   6.171   0.038  0.7390 -0.3854 -0.2983
16383TIP3    H170564   2.876   6.080   0.051 -1.2916 -0.9908 -0.7173
16383TIP3    H270565   2.865   6.212   0.123 -2.3189 -1.9874  0.9973
16384TIP3   OH270566   5.160   2.099  16.397  0.5091  0.3151 -0.0602
16384TIP3    H170567   5.164   2.111  16.302  0.7092 -0.6096 -0.1760
16384TIP3    H270568   5.227   2.034  16.416  0.9349  0.9987  0.8113
16385TIP3   OH270569   6.478   6.776  15.226 -0.1223  0.3063 -0.0436
16385TIP3    H170570   6.396   6.821  15.246 -0.1089  2.3433 -4.0546
16385TIP3    H270571   6.451   6.689  15.198 -0.9068  0.7658 -0.7574
16386TIP3   OH270572   1.362   6.304   5.440 -0.0339  0.3536 -0.3927
16386TIP3    H170573   1.358   6.211   5.416  0.9259  0.7342 -2.1655
16386TIP3    H270574   1.401   6.304   5.528  2.5351 -0.8155 -1.4634
16387TIP3   OH270575   6.518   3.269   3.336 -0.7444 -0.0818 -0.1234
16387TIP3    H170576   6.477   3.185   3.352  1.3632 -0.8744  1.3463
16387TIP3    H270577   6.590   3.249   3.276 -0.2186  0.6661  0.2481
16388TIP3   OH270578   4.832   1.195   5.569 -0.0111  0.2015 -0.8732
16388TIP3    H170579   4.833   1.154   5.482 -0.1850 -3.2351  0.6912
16388TIP3    H270580   4.923   1.193   5.598 -0.0496  0.8049 -0.6926
16389TIP3   OH270581   5.084   0.704   4.534  0.3272  0.1930  0.7570
16389TIP3    H170582   5.088   0.611   4.558  1.4622 -0.4568 -1.6884
16389TIP3    H270583   5.165   0.719   4.485 -1.4487  1.5664 -1.8647
16390TIP3   OH270584   1.307   4.099   2.415 -0.2582  0.2965 -0.5775
16390TIP3    H170585   1.367   4.165   2.381  0.3943 -0.2305 -0.4682
16390TIP3    H270586   1.242   4.088   2.346 -0.9291  1.7465 -0.1954
16391TIP3   OH270587   6.483   2.292  12.111  0.6283  0.0307  0.1096
16391TIP3    H170588   6.411   2.349  12.139  0.3602 -0.5880  0.7036
16391TIP3    H270589   6.535   2.279  12.190 -0.0818 -1.6581  0.3320
16392TIP3   OH270590   3.206   6.334   1.877  0.2930 -1.0199 -0.3360
16392TIP3    H170591   3.209   6.319   1.783  0.4569 -0.2015 -0.4676
16392TIP3    H270592   3.139   6.400   1.889  0.0904 -1.3099  0.1500
16393TIP3   OH270593   6.049   2.901  14.971  0.1394  0.0238  0.6563
16393TIP3    H170594   6.110   2.829  14.960  0.3904  0.3071  0.1965
16393TIP3    H270595   6.083   2.950  15.046  0.0769 -0.2231  0.8469
16394TIP3   OH270596   0.648   3.500   5.837 -0.1071  0.2501  0.5746
16394TIP3    H170597   0.694   3.514   5.920 -1.7832  3.2232  1.1084
16394TIP3    H270598   0.560   3.471   5.863 -0.4618  0.6457 -0.1594
16395TIP3   OH270599   4.785   2.537   1.299 -0.0430  0.6025  0.0464
16395TIP3    H170600   4.795   2.554   1.393  1.7852 -0.9840  0.1878
16395TIP3    H270601   4.753   2.447   1.295 -1.2006  1.0504 -0.8347
16396TIP3   OH270602   4.561   3.296   4.445 -0.5885  0.7496  0.3301
16396TIP3    H170603   4.476   3.294   4.402  0.5559 -0.2118 -1.9813
16396TIP3    H270604   4.594   3.206   4.436  0.9992  1.2999  0.5411
16397TIP3   OH270605   6.713   4.309   4.498 -0.5068 -0.4064 -0.8457
16397TIP3    H170606   6.793   4.328   4.449 -1.5770  1.3657 -1.9825
16397TIP3    H270607   6.743   4.295   4.588  1.2167 -1.1260 -1.5056
16398TIP3   OH270608   3.888   6.769  12.653  0.8463  0.2975  0.9440
16398TIP3    H170609   3.849   6.820  12.725 -0.3978  0.7574 -0.0355
16398TIP3    H270610   3.977   6.751  12.683  1.1991  2.7270  1.5048
16399TIP3   OH270611   5.667   5.774  13.764  0.0196 -0.5001 -0.0062
16399TIP3    H170612   5.706   5.695  13.803 -1.1000 -1.3398 -0.5652
16399TIP3    H270613   5.717   5.846  13.803  1.7758 -1.5085 -0.3002
16400TIP3   OH270614   0.635   1.859   4.745 -0.2354 -0.0529  0.1219
16400TIP3    H170615   0.581   1.928   4.706  1.6472  0.7545 -1.1496
16400TIP3    H270616   0.724   1.895   4.746  0.3470 -1.4584  1.8755
16401TIP3   OH270617   4.938   0.116   0.770  0.0722 -0.8345 -0.0724
16401TIP3    H170618   5.015   0.060   0.761  1.1572  0.4536  0.8892
16401TIP3    H270619   4.973   0.205   0.758 -1.8660 -0.4314 -3.2492
16402TIP3   OH270620   2.357   5.562   4.796 -0.5307  0.0583  0.1015
16402TIP3    H170621   2.341   5.497   4.728 -1.2335  0.4811 -0.1473
16402TIP3    H270622   2.286   5.549   4.859 -0.5436  0.4345  0.1674
16403TIP3   OH270623   4.101   0.792  14.308  0.3500 -0.0338 -0.0420
16403TIP3    H170624   4.015   0.827  14.330  0.2848  1.4617 -2.4834
16403TIP3    H270625   4.083   0.715  14.255  0.5274 -1.1380  1.4709
16404TIP3   OH270626   3.718   5.820  12.649  0.2294 -0.3023  0.1424
16404TIP3    H170627   3.696   5.898  12.700  1.8285  0.2008  0.0659
16404TIP3    H270628   3.653   5.818  12.579 -0.1289  0.6756  0.4402
16405TIP3   OH270629   1.274   2.249  12.988 -0.2193  0.2788 -0.3352
16405TIP3    H170630   1.306   2.209  12.907 -0.9740  0.9626 -0.9821
16405TIP3    H270631   1.295   2.342  12.979  0.0567  0.2977  0.4370
16406TIP3   OH270632   0.135   0.361  15.701 -0.3807  0.2575  0.3461
16406TIP3    H170633   0.165   0.411  15.776  0.0876 -1.4242  1.2977
16406TIP3    H270634   0.042   0.383  15.693 -0.0545  1.6616  0.4288
16407TIP3   OH270635   2.116   4.360  16.208 -0.4479  0.1019 -0.4051
16407TIP3    H170636   2.180   4.382  16.141 -1.2762  0.6785 -1.0147
16407TIP3    H270637   2.070   4.283  16.174 -0.6980  0.2407 -0.3802
16408TIP3   OH270638   2.218   2.375   6.451 -0.5582 -0.0434 -0.0186
16408TIP3    H170639   2.246   2.462   6.421 -0.3495  0.1892  0.8384
16408TIP3    H270640   2.291   2.318   6.429 -1.1097 -0.2092 -1.5196
16409TIP3   OH270641   3.515   2.501  14.743 -0.0984 -0.4239  0.6313
16409TIP3    H170642   3.421   2.513  14.729 -0.5474 -2.5841  1.5220
16409TIP3    H270643   3.538   2.427  14.686  0.9450 -0.3032  0.8812
16410TIP3   OH270644   3.168   4.404  15.961 -0.0388 -0.1044  0.0211
16410TIP3    H170645   3.158   4.476  15.898 -0.3168  0.8796  1.1582
16410TIP3    H270646   3.248   4.427  16.009  0.2215 -0.8942 -0.0405
16411TIP3   OH270647   1.809   6.365   3.461 -0.2006 -1.0314 -0.2912
16411TIP3    H170648   1.841   6.277   3.442  0.4093 -0.6386 -1.1792
16411TIP3    H270649   1.749   6.384   3.389  0.7274 -0.2131 -0.8763
16412TIP3   OH270650   2.489   0.280  13.546 -0.2333 -0.2711 -0.8298
16412TIP3    H170651   2.410   0.334  13.555  0.9321  1.4086 -0.6789
16412TIP3    H270652   2.515   0.262  13.637 -0.7887 -1.3652 -0.8750
16413TIP3   OH270653   3.573   4.427  14.032 -0.7245  0.2809  0.5727
16413TIP3    H170654   3.519   4.459  13.960 -0.2457 -0.9501 -0.3482
16413TIP3    H270655   3.551   4.335  14.041 -0.6210  0.3666  1.8781
16414TIP3   OH270656   5.708   6.544  12.560 -0.3806 -0.3010 -0.0087
16414TIP3    H170657   5.758   6.618  12.524 -0.3846  0.2784  1.1352
16414TIP3    H270658   5.680   6.575  12.646 -0.0554 -1.7964  0.6380
16415TIP3   OH270659   1.279   4.187  13.597 -0.2080 -0.7500  0.3984
16415TIP3    H170660   1.276   4.162  13.690 -0.2141 -1.3712  0.2365
16415TIP3    H270661   1.351   4.135  13.561 -0.6746 -1.0567 -0.1029
16416TIP3   OH270662   1.046   1.523   1.817  0.0827 -0.4060 -0.5007
16416TIP3    H170663   1.052   1.454   1.752 -0.2633  0.5067 -1.5110
16416TIP3    H270664   0.965   1.570   1.795  0.5305  0.5754 -0.0659
16417TIP3   OH270665   3.873   5.535  14.556 -0.0716 -0.1334  0.3461
16417TIP3    H170666   3.840   5.554  14.468 -0.2294 -0.2103  0.3874
16417TIP3    H270667   3.824   5.457  14.583  0.2452 -0.3316  0.3545
16418TIP3   OH270668   2.594   5.822   5.783 -0.4445  0.0730 -0.1023
16418TIP3    H170669   2.532   5.791   5.849  1.3999  0.1023  1.6858
16418TIP3    H270670   2.670   5.766   5.792  0.3747  0.9558 -1.2828
16419TIP3   OH270671   5.078   3.149   1.754 -0.6778 -0.0962 -0.1621
16419TIP3    H170672   5.025   3.219   1.792 -0.3861  0.1917 -0.2830
16419TIP3    H270673   5.056   3.149   1.661  0.6611  1.0353 -0.4887
16420TIP3   OH270674   6.090   3.665   0.678  0.0280 -0.1694  0.0785
16420TIP3    H170675   6.061   3.595   0.620 -0.6854 -0.3017  0.5873
16420TIP3    H270676   6.009   3.710   0.703  0.3553  0.0451  0.7569
16421TIP3   OH270677   1.370   1.502   3.161 -0.2415 -0.3190 -0.0657
16421TIP3    H170678   1.458   1.485   3.195 -0.1389  1.3539  0.5796
16421TIP3    H270679   1.311   1.456   3.221  0.1030  0.1305  0.6274
16422TIP3   OH270680   0.452   3.673   1.104 -0.4057 -0.3059 -0.0973
16422TIP3    H170681   0.375   3.730   1.101  0.3689  0.8670  1.4084
16422TIP3    H270682   0.522   3.726   1.067  1.0515  1.0275  4.1959
16423TIP3   OH270683   1.087   3.707  12.595  0.0029 -0.1058 -0.2783
16423TIP3    H170684   1.131   3.767  12.535  0.8730  0.7310  1.1632
16423TIP3    H270685   1.155   3.684  12.659 -0.9301 -0.9139  0.4242
16424TIP3   OH270686   3.302   2.627  16.106 -0.2553  0.2251 -0.8408
16424TIP3    H170687   3.243   2.700  16.122  0.2075  0.3424  0.4809
16424TIP3    H270688   3.256   2.572  16.043 -2.5537 -0.5496  1.3920
16425TIP3   OH270689   4.170   5.055   4.085  0.3407  0.4053  0.1145
16425TIP3    H170690   4.254   5.054   4.039  0.1614 -0.4285 -0.2007
16425TIP3    H270691   4.122   4.981   4.048 -0.1704  0.3098  0.9684
16426TIP3   OH270692   0.269   1.532   4.632 -0.1453 -0.5973  0.1169
16426TIP3    H170693   0.225   1.552   4.549 -0.2017 -0.4451  0.1834
16426TIP3    H270694   0.207   1.480   4.681  0.0150 -0.9698 -0.0726
16427TIP3   OH270695   4.816   4.248  15.817  0.2508 -0.7686  0.5658
16427TIP3    H170696   4.826   4.325  15.761 -2.1697  0.1413  1.3143
16427TIP3    H270697   4.832   4.174  15.760 -0.3776  0.1993 -0.8793
16428TIP3   OH270698   3.193   4.510   1.047 -0.6414 -0.4481  0.5218
16428TIP3    H170699   3.246   4.589   1.034  1.2182 -2.0846 -2.4676
16428TIP3    H270700   3.217   4.480   1.135 -1.4786  2.3213  1.7567
16429TIP3   OH270701   2.367   0.624   0.837  0.0627 -0.2929  0.6684
16429TIP3    H170702   2.357   0.546   0.890 -3.3921  0.1118  0.7478
16429TIP3    H270703   2.361   0.592   0.746 -3.0124 -0.0127  0.7171
16430TIP3   OH270704   5.140   1.559   3.929  0.5752 -0.1806  0.1077
16430TIP3    H170705   5.087   1.482   3.950  0.1004  0.0406 -0.2750
16430TIP3    H270706   5.077   1.624   3.897  0.6656  1.1060  2.4156
16431TIP3   OH270707   3.863   0.245   1.357  0.3582  0.2593  0.0116
16431TIP3    H170708   3.888   0.232   1.448  0.4674  0.6763  0.0430
16431TIP3    H270709   3.777   0.287   1.361  1.4301  2.5760 -0.0217
16432TIP3   OH270710   0.390   2.866   0.426 -0.0022 -0.8192  0.0119
16432TIP3    H170711   0.317   2.840   0.371 -0.4511 -2.4422  1.3306
16432TIP3    H270712   0.349   2.904   0.504  0.6235  2.2734 -1.0716
16433TIP3   OH270713   3.854   1.568   0.020  0.3659  0.5717  0.1638
16433TIP3    H170714   3.864   1.473   0.012  0.6225  0.6635 -0.6653
16433TIP3    H270715   3.921   1.594   0.083 -0.8217 -0.0114  1.6855
16434TIP3   OH270716   0.246   6.295  15.815 -0.1658 -0.1845  1.0460
16434TIP3    H170717   0.199   6.329  15.891 -0.9466 -0.9268  0.9174
16434TIP3    H270718   0.189   6.226  15.782 -0.1943  0.6238 -0.6517
16435TIP3   OH270719   5.766   0.715  12.240 -0.2621  0.4418 -0.1557
16435TIP3    H170720   5.707   0.667  12.299 -0.4065 -2.7288 -2.7756
16435TIP3    H270721   5.713   0.788  12.208 -0.9663  0.7995  1.7472
16436TIP3   OH270722   5.688   6.549  13.719 -0.3371  0.2356  0.3908
16436TIP3    H170723   5.595   6.541  13.697 -0.0536 -0.4726 -0.5661
16436TIP3    H270724   5.707   6.642  13.706 -0.7220  0.2365 -0.1934
16437TIP3   OH270725   3.175   5.807  14.815 -0.5400 -0.4624  0.2379
16437TIP3    H170726   3.257   5.763  14.838 -0.2141 -0.2556 -0.5085
16437TIP3    H270727   3.171   5.883  14.873  0.1227 -0.1169 -0.1579
16438TIP3   OH270728   5.031   1.130   0.447  0.3287  0.2731 -0.0314
16438TIP3    H170729   5.071   1.163   0.527  0.5332  1.9644 -0.8129
16438TIP3    H270730   4.960   1.074   0.477  0.6887  0.5406  1.3410
16439TIP3   OH270731   1.135   5.658  15.929 -0.2627  0.2854  0.3915
16439TIP3    H170732   1.221   5.634  15.965  1.0973 -0.3753 -3.0210
16439TIP3    H270733   1.130   5.753  15.942  1.0017  0.3337  0.6446
16440TIP3   OH270734   5.203   2.415  16.756  0.0319 -0.2897  0.8016
16440TIP3    H170735   5.124   2.380  16.715 -0.7191  3.0774 -0.7732
16440TIP3    H270736   5.261   2.437  16.684  0.5985  1.3760  1.7302
16441TIP3   OH270737   3.444   1.081  17.064  0.1980  0.0138 -0.4417
16441TIP3    H170738   3.362   1.109  17.023  0.4338  0.1802 -0.7974
16441TIP3    H270739   3.455   0.990  17.036  1.6349  0.8830 -2.7805
16442TIP3   OH270740   3.962   4.447  16.364 -0.1211  0.1785  0.3266
16442TIP3    H170741   3.901   4.395  16.416  1.1907  0.2677  2.0121
16442TIP3    H270742   3.976   4.527  16.415 -0.8278  1.4550 -1.4396
16443TIP3   OH270743   5.428   0.422   0.050  0.0244  0.1393 -0.4182
16443TIP3    H170744   5.414   0.444   0.143  2.0254 -1.1403  0.2177
16443TIP3    H270745   5.378   0.342   0.037  0.9795 -0.5284 -0.0238
16444TIP3   OH270746   5.996   2.725  13.455  0.2965  0.3721 -0.6597
16444TIP3    H170747   6.031   2.640  13.428  0.2999  0.2409 -0.2325
16444TIP3    H270748   6.051   2.788  13.409  1.8844  0.1966  0.9397
16445TIP3   OH270749   6.607   3.908   3.517 -0.3701 -0.2390 -0.5392
16445TIP3    H170750   6.659   3.895   3.438 -0.4090  1.7594 -0.9129
16445TIP3    H270751   6.670   3.940   3.582 -0.7114  0.0203 -0.3362
16446TIP3   OH270752   6.507   2.742  15.116 -0.1076 -0.3612  0.4445
16446TIP3    H170753   6.562   2.815  15.087  0.5706 -1.4805 -1.1579
16446TIP3    H270754   6.570   2.676  15.147 -0.6323 -0.9592  0.2389
16447TIP3   OH270755   0.101   2.698  13.012  0.0306  0.3876  0.2532
16447TIP3    H170756   0.057   2.630  13.064  0.0868 -0.5619 -0.9260
16447TIP3    H270757   0.143   2.650  12.941 -0.1657  1.7054 -0.7605
16448TIP3   OH270758   3.473   2.676  11.446  0.0266  0.4402  0.1830
16448TIP3    H170759   3.555   2.724  11.444  0.5757 -0.4090  1.4079
16448TIP3    H270760   3.418   2.717  11.379  1.1081  1.6125  0.0165
16449TIP3   OH270761   4.256   1.246  15.764  0.3093  0.6425 -0.1948
16449TIP3    H170762   4.233   1.270  15.854 -1.0778  0.5514 -0.5101
16449TIP3    H270763   4.261   1.330  15.718 -2.3097  0.5406 -0.7763
16450TIP3   OH270764   6.358   2.548  13.870 -0.3152 -0.7296  0.0286
16450TIP3    H170765   6.293   2.540  13.800 -2.7096  0.5043  2.0573
16450TIP3    H270766   6.356   2.463  13.914 -0.7996 -0.5630  0.3217
16451TIP3   OH270767   2.288   1.751  14.278  0.1106 -0.6616  0.2151
16451TIP3    H170768   2.366   1.760  14.223 -0.1545 -2.1283 -0.4342
16451TIP3    H270769   2.280   1.835  14.323  2.4308 -0.7057  0.7747
16452TIP3   OH270770   0.474   1.775   2.958 -0.2313 -0.9568  0.3938
16452TIP3    H170771   0.436   1.691   2.982  1.4988 -1.9338 -0.2412
16452TIP3    H270772   0.546   1.754   2.899 -0.1580  1.0029 -0.2674
16453TIP3   OH270773   4.313   6.672  14.548  0.0352 -0.3519 -0.7164
16453TIP3    H170774   4.257   6.594  14.543 -0.0031 -0.3923  0.2151
16453TIP3    H270775   4.256   6.744  14.524  0.2007 -0.6744 -2.0790
16454TIP3   OH270776   0.878   3.334  15.045 -0.1410 -0.2125 -0.7475
16454TIP3    H170777   0.806   3.271  15.049 -0.9004  0.6829 -0.2038
16454TIP3    H270778   0.899   3.353  15.136 -1.0700  1.6325 -0.9098
16455TIP3   OH270779   0.278   3.842   1.487  0.2368  0.0851 -0.3954
16455TIP3    H170780   0.203   3.785   1.505  0.0194  0.5425  0.1674
16455TIP3    H270781   0.241   3.930   1.483  0.6365  0.2335 -0.8431
16456TIP3   OH270782   1.491   2.658  16.391  0.5851 -0.3410  0.1543
16456TIP3    H170783   1.455   2.734  16.436  2.6778  0.4990  0.4917
16456TIP3    H270784   1.501   2.686  16.300 -0.1497 -0.7833 -0.0728
16457TIP3   OH270785   6.376   3.300   3.009  0.6637 -0.6113 -0.2285
16457TIP3    H170786   6.436   3.239   2.967  1.1857  0.4944 -1.1380
16457TIP3    H270787   6.429   3.378   3.026  0.8916 -1.5683  3.9697
16458TIP3   OH270788   0.755   0.540   3.808 -0.5198 -0.2220  0.1977
16458TIP3    H170789   0.723   0.501   3.726 -0.3217 -0.4380  0.2245
16458TIP3    H270790   0.719   0.629   3.807  1.4755  0.6093 -1.2996
16459TIP3   OH270791   5.613   1.728   1.029 -0.4233 -0.1225 -0.0627
16459TIP3    H170792   5.703   1.695   1.037 -0.9720 -1.6878 -0.3131
16459TIP3    H270793   5.605   1.790   1.102  0.8321 -0.0319  0.0186
16460TIP3   OH270794   0.043   1.747   5.606  0.3311 -0.4704 -0.2396
16460TIP3    H170795   0.092   1.819   5.646  1.7156 -1.2344 -0.5292
16460TIP3    H270796   0.107   1.677   5.595 -0.3680 -0.8103 -2.4115
16461TIP3   OH270797   4.551   2.836  15.881  0.1710 -0.8563 -0.2088
16461TIP3    H170798   4.635   2.816  15.838  0.6125 -0.3205  0.3914
16461TIP3    H270799   4.530   2.925  15.852 -0.0969 -0.9218 -0.2127
16462TIP3   OH270800   3.168   2.594  12.205 -0.7233 -0.6040  0.0591
16462TIP3    H170801   3.223   2.633  12.273 -0.2687 -0.0022 -0.6505
16462TIP3    H270802   3.225   2.586  12.129 -0.9394 -2.2601  0.0657
16463TIP3   OH270803   2.227   4.211   3.752 -0.2777 -0.0836 -0.3783
16463TIP3    H170804   2.161   4.146   3.728  0.1927 -0.4851 -0.5877
16463TIP3    H270805   2.294   4.162   3.800 -2.2854  1.0342  3.8965
16464TIP3   OH270806   4.426   4.790   0.749 -0.0029 -0.6855  0.6955
16464TIP3    H170807   4.409   4.853   0.680 -0.2939 -0.0841  1.3100
16464TIP3    H270808   4.465   4.715   0.704  1.1175  0.2533  0.0804
16465TIP3   OH270809   3.432   1.435  12.344 -0.2448 -0.4383  0.3572
16465TIP3    H170810   3.489   1.365  12.312  1.0290  0.4996  0.5210
16465TIP3    H270811   3.346   1.416  12.305  0.7896 -0.4646 -1.9869
16466TIP3   OH270812   0.786   5.768   6.354  0.0221 -0.4216  0.4650
16466TIP3    H170813   0.750   5.801   6.272 -1.1002  4.0295  2.5516
16466TIP3    H270814   0.872   5.812   6.362  0.3984 -1.3019  1.3452
16467TIP3   OH270815   3.062   6.363  15.494 -0.2048 -0.9319  0.5638
16467TIP3    H170816   3.004   6.355  15.418  2.0535 -0.8986 -1.2218
16467TIP3    H270817   3.147   6.389  15.457  0.9893 -1.0793  3.0878
16468TIP3   OH270818   1.584   0.550  13.538 -0.5452 -0.3592  0.3392
16468TIP3    H170819   1.542   0.469  13.512 -0.7836 -0.1413  0.0496
16468TIP3    H270820   1.677   0.527  13.547 -0.5131 -0.5035 -0.3815
16469TIP3   OH270821   1.911   6.431   0.367  0.1290  0.1790 -0.2012
16469TIP3    H170822   1.847   6.377   0.319  2.3203 -0.9919 -1.8737
16469TIP3    H270823   1.971   6.368   0.406  1.0817  1.3251  0.1918
16470TIP3   OH270824   1.196   3.851   5.564  0.3421  0.0943 -0.0042
16470TIP3    H170825   1.281   3.892   5.578  0.1869  0.2974  0.3677
16470TIP3    H270826   1.201   3.767   5.610  0.2240  0.2594  0.3122
16471TIP3   OH270827   4.294   0.120   4.195 -0.4165  0.0363 -0.0551
16471TIP3    H170828   4.223   0.099   4.255 -1.9394  0.6122 -1.6273
16471TIP3    H270829   4.308   0.214   4.206 -0.6885  0.1405 -0.5767
16472TIP3   OH270830   4.738   6.333  17.137 -0.2703  0.5843  0.1894
16472TIP3    H170831   4.674   6.385  17.088 -0.0578  1.4044  0.7681
16472TIP3    H270832   4.762   6.262  17.078 -0.6035  1.1137 -0.5865
16473TIP3   OH270833   4.131   1.131  16.203 -0.2542  0.0859  0.1548
16473TIP3    H170834   4.052   1.124  16.258 -1.3097  0.0013 -1.3327
16473TIP3    H270835   4.117   1.065  16.135  0.7765  0.5778 -0.5298
16474TIP3   OH270836   6.308   2.746   0.548  0.1618 -0.4196 -0.3200
16474TIP3    H170837   6.246   2.718   0.481  0.1114 -1.5690  0.1872
16474TIP3    H270838   6.330   2.665   0.595  2.7491 -0.1895 -1.0914
16475TIP3   OH270839   2.583   2.183  17.169 -0.2578  0.2206  0.1333
16475TIP3    H170840   2.617   2.271  17.183  0.8546 -0.4232  1.5991
16475TIP3    H270841   2.661   2.129  17.155 -0.9086 -0.5958 -0.3672
16476TIP3   OH270842   1.567   3.899  13.878 -0.7824 -0.3898  0.1569
16476TIP3    H170843   1.518   3.863  13.953 -0.4318  0.1392  0.6480
16476TIP3    H270844   1.643   3.841  13.870 -1.0783 -0.7431 -0.1050
16477TIP3   OH270845   3.140   1.343  13.995  0.0467 -0.4313 -0.3043
16477TIP3    H170846   3.110   1.424  13.953 -1.9605 -0.1244  1.6011
16477TIP3    H270847   3.195   1.301  13.929 -0.4060  1.5648 -2.0280
16478TIP3   OH270848   5.787   5.021  16.093 -0.1305 -0.0722 -0.0124
16478TIP3    H170849   5.758   4.980  16.174  0.2533 -0.8123 -0.2359
16478TIP3    H270850   5.846   5.091  16.121 -1.6130  1.0258  0.4187
16479TIP3   OH270851   2.028   1.268   6.474  0.3373 -0.0553  0.0918
16479TIP3    H170852   2.117   1.266   6.509  1.0596  1.3387 -1.6023
16479TIP3    H270853   1.987   1.343   6.516 -0.4937 -1.4288  1.8338
16480TIP3   OH270854   3.198   4.024  13.842 -0.1528 -0.1083  0.0026
16480TIP3    H170855   3.249   4.044  13.920  2.1350 -1.4320 -1.1111
16480TIP3    H270856   3.140   3.953  13.868 -0.1322  0.1509  0.7684
16481TIP3   OH270857   6.075   5.588  15.960 -0.5633 -0.3240 -0.2005
16481TIP3    H170858   6.127   5.584  16.040 -0.4059 -2.4127 -0.3827
16481TIP3    H270859   6.029   5.672  15.965 -0.4752 -0.3946  2.0290
16482TIP3   OH270860   4.772   6.693  11.447 -0.1934 -0.0372 -0.7240
16482TIP3    H170861   4.758   6.750  11.372 -2.9817 -0.1237 -0.3286
16482TIP3    H270862   4.717   6.616  11.429 -0.0417 -0.5386  0.8723
16483TIP3   OH270863   2.482   0.043  13.346  0.4177 -0.2728  0.1804
16483TIP3    H170864   2.387   0.035  13.352  0.5240 -0.1450  2.8102
16483TIP3    H270865   2.502   0.130  13.381  1.4957 -0.2710 -0.4082
16484TIP3   OH270866   3.089   4.836  13.728 -0.4855  0.4549 -0.4814
16484TIP3    H170867   3.004   4.879  13.741  0.0188  0.9993  1.1468
16484TIP3    H270868   3.080   4.752  13.772  0.2072  1.0200  0.7659
16485TIP3   OH270869   3.738   0.893   3.329 -0.4505  0.4142  0.6063
16485TIP3    H170870   3.705   0.933   3.409  0.4569  2.8249 -0.2053
16485TIP3    H270871   3.702   0.946   3.258 -1.4296 -1.8327 -0.6223
16486TIP3   OH270872   5.146   1.907   1.521 -0.2919 -0.0108 -0.4957
16486TIP3    H170873   5.190   1.831   1.558  0.8098  0.5936 -0.5471
16486TIP3    H270874   5.053   1.891   1.536 -0.0706 -1.4004 -0.5814
16487TIP3   OH270875   4.293   4.508   4.562 -0.1953 -0.3278  0.2084
16487TIP3    H170876   4.241   4.571   4.612  1.7950  0.5098  1.2618
16487TIP3    H270877   4.344   4.460   4.629  0.9608 -0.6053 -0.8570
16488TIP3   OH270878   2.782   1.672   5.955 -0.4799 -0.6826 -0.0884
16488TIP3    H170879   2.701   1.636   5.918 -0.7333 -0.8185  0.5842
16488TIP3    H270880   2.838   1.596   5.970  0.0372 -0.5216 -1.1760
16489TIP3   OH270881   6.043   1.806   3.469  0.4564  0.0470  0.3249
16489TIP3    H170882   6.139   1.808   3.470  0.4806 -0.5465 -0.4374
16489TIP3    H270883   6.017   1.898   3.470  1.0622  0.2432 -1.1167
16490TIP3   OH270884   4.863   2.704  11.546  0.0595  0.5540 -0.2303
16490TIP3    H170885   4.868   2.675  11.638 -0.2224  2.3889  0.3699
16490TIP3    H270886   4.781   2.667  11.514  0.6087 -0.8962 -0.0533
16491TIP3   OH270887   3.806   5.011  16.429 -0.4352  0.0409 -0.6932
16491TIP3    H170888   3.726   4.979  16.471  1.2464 -0.3694  2.3172
16491TIP3    H270889   3.870   4.942  16.444  1.6334  2.1617  0.7286
16492TIP3   OH270890   4.858   0.129   2.016  0.4518  0.5441  0.0754
16492TIP3    H170891   4.808   0.210   2.007 -1.7552 -0.7651  0.3236
16492TIP3    H270892   4.865   0.095   1.927  0.7021  0.5903  0.0757
16493TIP3   OH270893   2.459   4.940  17.112 -0.3433 -0.1002 -0.5672
16493TIP3    H170894   2.389   4.933  17.047 -1.9515 -1.2437  1.2326
16493TIP3    H270895   2.427   4.891  17.188  2.4547 -0.7369  0.2836
16494TIP3   OH270896   2.753   0.849   5.266  0.4228  0.6065 -0.0468
16494TIP3    H170897   2.732   0.940   5.287  0.1438  0.4016  0.5931
16494TIP3    H270898   2.762   0.807   5.352  1.2442  0.1871 -0.3267
16495TIP3   OH270899   5.684   3.464   3.480 -0.1958 -0.3814 -0.3434
16495TIP3    H170900   5.591   3.476   3.495 -0.4314 -1.5317 -0.8295
16495TIP3    H270901   5.714   3.414   3.557  0.0405  0.0680 -0.1408
16496TIP3   OH270902   5.317   3.726  10.795  0.1604 -0.7308  0.1735
16496TIP3    H170903   5.289   3.804  10.843 -0.6460  0.2294 -1.7932
16496TIP3    H270904   5.390   3.756  10.741  0.4612 -1.5699  0.1044
16497TIP3   OH270905   1.713   2.855   3.517  0.4773 -0.1726 -0.3261
16497TIP3    H170906   1.700   2.866   3.422  0.4918  3.4187  0.0206
16497TIP3    H270907   1.804   2.881   3.531  0.1997  0.1944  0.7967
16498TIP3   OH270908   2.167   3.314  14.886 -0.3813  0.4299 -0.1877
16498TIP3    H170909   2.229   3.273  14.946  1.0891  1.2195 -1.1459
16498TIP3    H270910   2.096   3.250  14.878  1.9925 -2.1273 -1.8490
16499TIP3   OH270911   3.485   0.588  16.757 -0.0149  0.3224  0.0107
16499TIP3    H170912   3.412   0.575  16.697 -0.7961 -0.1842  1.0793
16499TIP3    H270913   3.455   0.555  16.841  1.3032  0.4557  0.5565
16500TIP3   OH270914   3.060   2.546   3.606 -0.6846 -0.0460 -0.0990
16500TIP3    H170915   3.033   2.525   3.516 -0.7338  1.6465 -0.4959
16500TIP3    H270916   3.052   2.641   3.611  1.5641  0.0951  0.9743
16501TIP3   OH270917   0.519   6.687  13.516  0.0948  0.1651  0.4991
16501TIP3    H170918   0.553   6.755  13.575  0.1034  2.3278 -1.9045
16501TIP3    H270919   0.445   6.729  13.472 -0.1082 -1.4968 -0.7803
16502TIP3   OH270920   5.773   1.730   4.062 -0.1680  0.0214  0.0975
16502TIP3    H170921   5.834   1.682   4.006 -1.1158 -1.4648  0.2940
16502TIP3    H270922   5.825   1.799   4.102  0.7622  0.4842 -1.8469
16503TIP3   OH270923   6.666   2.981   0.257  0.3074  0.5183 -0.1753
16503TIP3    H170924   6.696   3.025   0.336 -0.4754  1.5846 -0.4520
16503TIP3    H270925   6.629   2.898   0.287  1.6018  0.1343  0.3781
16504TIP3   OH270926   0.289   4.731  12.449 -0.4540  0.1774  1.3226
16504TIP3    H170927   0.371   4.705  12.406 -1.5629  1.0427 -1.4622
16504TIP3    H270928   0.223   4.672  12.412 -1.0347 -0.9612  4.0467
16505TIP3   OH270929   1.436   4.920  12.953  0.2752 -0.1938 -0.6712
16505TIP3    H170930   1.393   4.860  12.892 -0.2193 -0.8949  0.3534
16505TIP3    H270931   1.364   4.964  12.997  0.6013 -0.7912  0.4773
16506TIP3   OH270932   0.051   4.567  14.393  0.3196 -0.0288 -0.1959
16506TIP3    H170933   0.144   4.585  14.384  0.9317 -2.6039  0.5169
16506TIP3    H270934   0.034   4.496  14.330 -1.0901  0.1652 -0.0636
16507TIP3   OH270935   5.837   4.720  16.900 -0.2457 -0.0943 -0.3460
16507TIP3    H170936   5.802   4.790  16.955  0.6202  0.7379 -0.8408
16507TIP3    H270937   5.898   4.672  16.956  0.5627  0.6936 -0.5423
16508TIP3   OH270938   2.230   4.408   0.116 -0.4181 -0.3335  0.1155
16508TIP3    H170939   2.252   4.459   0.194 -1.3974  0.9379 -0.4114
16508TIP3    H270940   2.248   4.468   0.043 -2.0480 -0.5547 -0.4932
16509TIP3   OH270941   0.897   4.287  12.557  0.4237 -0.1705 -0.0117
16509TIP3    H170942   0.826   4.314  12.499  0.5462  0.5043  0.1544
16509TIP3    H270943   0.858   4.284  12.644  0.6439  0.3761  0.1062
16510TIP3   OH270944   0.533   2.631  16.156 -0.3567 -0.0677  0.1871
16510TIP3    H170945   0.594   2.616  16.228  0.8946  1.7404 -0.4386
16510TIP3    H270946   0.448   2.640  16.198  0.0702 -0.9271  1.2524
16511TIP3   OH270947   3.723   4.566  12.729 -0.4528 -0.3067 -0.2817
16511TIP3    H170948   3.693   4.583  12.640  0.6100 -0.6769 -0.7241
16511TIP3    H270949   3.783   4.638  12.749  0.4477 -1.0026 -0.4266
16512TIP3   OH270950   1.407   4.509  14.942 -0.3132 -1.0646 -0.1325
16512TIP3    H170951   1.332   4.499  14.883  0.4347  0.3307 -1.3473
16512TIP3    H270952   1.378   4.469  15.024 -2.9600  0.8427 -0.0672
16513TIP3   OH270953   6.310   4.860  13.901 -0.4293  0.2119  0.3303
16513TIP3    H170954   6.319   4.772  13.865  0.6963  0.5568 -0.2873
16513TIP3    H270955   6.263   4.909  13.833  0.8138  0.6099 -0.2644
16514TIP3   OH270956   1.539   0.378   5.844 -0.0266  0.2420  0.1467
16514TIP3    H170957   1.558   0.307   5.905  2.8146 -0.9660 -2.0202
16514TIP3    H270958   1.618   0.433   5.846 -0.5003  1.0145 -1.3106
16515TIP3   OH270959   3.803   5.098  11.446 -0.0118  0.8789  0.1691
16515TIP3    H170960   3.771   5.186  11.468 -0.4058  0.6265  0.6034
16515TIP3    H270961   3.799   5.095  11.350 -0.0505  1.3126  0.1553
16516TIP3   OH270962   5.659   6.165  11.705 -0.1653 -0.0852  0.2606
16516TIP3    H170963   5.674   6.072  11.686 -3.1012 -0.6089  0.3048
16516TIP3    H270964   5.701   6.211  11.632 -0.3812 -1.5463 -0.8172
16517TIP3   OH270965   2.818   4.387   2.541 -0.5242 -0.4990  0.0152
16517TIP3    H170966   2.816   4.443   2.464 -1.6362 -0.7789 -0.1779
16517TIP3    H270967   2.772   4.437   2.609 -0.3079 -0.6057  0.2407
16518TIP3   OH270968   1.467   5.307   0.312 -0.5388 -0.4265  0.1854
16518TIP3    H170969   1.456   5.329   0.219 -0.4106 -0.7459  0.0955
16518TIP3    H270970   1.440   5.215   0.318  0.5974 -0.7546  0.2480
16519TIP3   OH270971   2.334   0.392  11.246 -0.1239 -0.2114  0.3569
16519TIP3    H170972   2.312   0.456  11.179  0.7711  0.4491  0.6869
16519TIP3    H270973   2.274   0.319  11.229  0.5602 -0.3555 -1.6079
16520TIP3   OH270974   4.045   4.469  14.153 -0.2937  0.0337 -0.2839
16520TIP3    H170975   4.122   4.428  14.113 -0.5142  0.4909 -1.2093
16520TIP3    H270976   3.971   4.416  14.122 -0.6083  1.2901 -1.7465
16521TIP3   OH270977   2.785   3.668   4.811  0.1841  0.8430  0.3345
16521TIP3    H170978   2.763   3.630   4.726 -0.2668  1.2891  0.2498
16521TIP3    H270979   2.802   3.760   4.793 -2.1073  1.4353  1.0655
16522TIP3   OH270980   5.863   0.263  13.052 -0.4593 -0.0847  0.2654
16522TIP3    H170981   5.953   0.234  13.070 -0.1737  0.3922 -0.3459
16522TIP3    H270982   5.855   0.256  12.956 -0.6621  1.0435  0.1932
16523TIP3   OH270983   4.096   5.405   0.783 -0.2847 -0.3341 -0.2177
16523TIP3    H170984   4.188   5.380   0.781  0.1278  1.0614  0.3366
16523TIP3    H270985   4.097   5.496   0.813 -1.9297 -0.7652  1.2257
16524TIP3   OH270986   0.352   5.550  14.496  0.4159  0.3925  0.5260
16524TIP3    H170987   0.317   5.462  14.489 -0.3650  0.4295  3.4617
16524TIP3    H270988   0.277   5.608  14.482  0.5387  0.5783  0.6248
16525TIP3   OH270989   0.548   0.016  16.005 -0.6949  0.0601 -0.6331
16525TIP3    H170990   0.465  -0.020  15.974 -2.0225  2.1677  0.3569
16525TIP3    H270991   0.528   0.107  16.026  1.6131  0.2997  0.6664
16526TIP3   OH270992   6.322   4.047   1.922  0.4079 -0.1994 -0.3905
16526TIP3    H170993   6.317   4.123   1.980  1.2281  0.3271 -0.9995
16526TIP3    H270994   6.237   4.003   1.933  0.1934  0.4123  0.4842
16527TIP3   OH270995   0.805   1.966   1.802  0.2248 -0.2994  0.4204
16527TIP3    H170996   0.716   1.957   1.768 -0.3076  0.3061  1.6106
16527TIP3    H270997   0.839   1.877   1.804  0.7508 -0.2539 -2.8648
16528TIP3   OH270998   3.979   0.896   3.058  0.4701 -0.2859  0.2698
16528TIP3    H170999   4.069   0.899   3.091  0.2388 -1.0729  1.0157
16528TIP3    H271000   3.937   0.973   3.096  0.5487 -0.5067  0.8211
16529TIP3   OH271001   1.038   0.980  15.373  0.5501 -0.3765 -0.4777
16529TIP3    H171002   1.111   1.014  15.425 -0.2609  1.0168 -0.2099
16529TIP3    H271003   0.986   1.057  15.353  0.0216 -1.1368 -2.0562
16530TIP3   OH271004   4.552   4.527   2.200 -0.5254  0.2814 -0.0454
16530TIP3    H171005   4.582   4.561   2.115  0.8046  1.7256  0.9759
16530TIP3    H271006   4.625   4.544   2.259 -1.4097 -0.8079  1.3780
16531TIP3   OH271007   5.364   5.827   1.443 -0.4062 -0.4242 -0.6761
16531TIP3    H171008   5.446   5.779   1.443 -0.1297  0.0460 -1.5452
16531TIP3    H271009   5.364   5.876   1.360 -1.1464  0.2735 -0.2731
16532TIP3   OH271010   5.488   5.831  17.083 -0.5022  0.0955  0.4961
16532TIP3    H171011   5.539   5.909  17.107 -1.1815  0.3753  1.0305
16532TIP3    H271012   5.400   5.849  17.114 -0.1045 -1.9985  2.9593
16533TIP3   OH271013   0.364   6.338  14.645  0.2698 -0.0648 -0.5319
16533TIP3    H171014   0.423   6.264  14.630  0.9500  0.3355  0.1033
16533TIP3    H271015   0.308   6.310  14.717  2.2136  0.9681  1.4578
16534TIP3   OH271016   4.694   2.695   4.171  0.3939 -0.1029 -0.7617
16534TIP3    H171017   4.735   2.641   4.102 -0.4073 -1.3389 -0.2900
16534TIP3    H271018   4.605   2.709   4.140  0.2937  0.0808 -0.3845
16535TIP3   OH271019   6.045   1.409   4.506  0.1722  0.5349 -0.8542
16535TIP3    H171020   6.141   1.416   4.506  0.1383  0.9752 -1.3041
16535TIP3    H271021   6.016   1.472   4.440 -0.4513  0.7174 -0.4082
16536TIP3   OH271022   5.089   5.887   1.789 -0.2911  0.3940  0.4845
16536TIP3    H171023   5.007   5.917   1.828 -0.6340 -1.8642  1.5216
16536TIP3    H271024   5.064   5.853   1.703 -0.2310  0.9029  0.2608
16537TIP3   OH271025   1.311   5.403  12.742  0.3363 -0.2332  0.0202
16537TIP3    H171026   1.310   5.387  12.836 -0.7443  0.4243  0.1254
16537TIP3    H271027   1.393   5.363  12.712  1.1199  0.3173  1.3660
16538TIP3   OH271028   6.215   0.496   3.178 -0.5426  0.6898 -0.2180
16538TIP3    H171029   6.160   0.422   3.203  0.7874 -0.3473 -0.3306
16538TIP3    H271030   6.290   0.493   3.237 -0.1379  1.5370 -0.6697
16539TIP3   OH271031   0.704   3.197   5.187 -0.2827  0.5970  0.2408
16539TIP3    H171032   0.731   3.106   5.201 -0.8160  0.5734  1.1231
16539TIP3    H271033   0.783   3.248   5.206 -0.1949  0.3743  0.4711
16540TIP3   OH271034   5.760   1.654  14.432 -1.3896 -0.8627  0.1727
16540TIP3    H171035   5.777   1.631  14.340  1.1629 -0.0648  0.4210
16540TIP3    H271036   5.710   1.736  14.427  1.2251  0.7526 -0.5125
16541TIP3   OH271037   0.980   5.117   0.957 -0.2138  0.6048  0.6250
16541TIP3    H171038   1.072   5.096   0.942 -0.0838  1.9479 -0.5938
16541TIP3    H271039   0.934   5.034   0.946  0.9022 -0.1842  1.8125
16542TIP3   OH271040   3.674   2.588  15.057 -0.6472 -0.1834  0.3592
16542TIP3    H171041   3.633   2.553  14.978 -0.0917  0.0100 -0.0219
16542TIP3    H271042   3.627   2.548  15.129 -2.0304  0.6442 -0.0697
16543TIP3   OH271043   6.142   6.323  16.590 -0.3942  0.2540 -0.0005
16543TIP3    H171044   6.224   6.348  16.546 -0.6488 -2.6083 -2.2978
16543TIP3    H271045   6.097   6.406  16.605  1.3655  1.6379 -1.9225
16544TIP3   OH271046   4.005   4.125  13.983 -0.6271 -0.3036 -0.3159
16544TIP3    H171047   3.925   4.178  13.983 -0.0517  0.5663 -0.7955
16544TIP3    H271048   4.041   4.137  14.071 -1.6370 -1.6526  0.3086
16545TIP3   OH271049   5.609   2.579   3.036  0.1218  0.5642  0.0521
16545TIP3    H171050   5.555   2.650   3.071  2.0687  2.4267 -0.6629
16545TIP3    H271051   5.651   2.616   2.959  0.4814 -1.6675 -0.8584
16546TIP3   OH271052   2.504   4.314  14.592  0.1381 -0.4518 -0.2320
16546TIP3    H171053   2.519   4.334  14.685 -0.9093 -0.5199 -0.0407
16546TIP3    H271054   2.528   4.395  14.547 -0.9550  0.1673  0.2585
16547TIP3   OH271055   2.949   4.647  13.275  0.0937 -0.0086 -0.3555
16547TIP3    H171056   3.040   4.638  13.249 -0.0292 -1.0294 -0.4484
16547TIP3    H271057   2.946   4.616  13.366 -0.1865 -0.1629 -0.4145
16548TIP3   OH271058   0.404   5.295  17.171 -0.0534  0.2811  0.1871
16548TIP3    H171059   0.402   5.313  17.265 -1.3715 -0.2580  0.2726
16548TIP3    H271060   0.335   5.350  17.134  0.2560  0.2616 -0.4272
16549TIP3   OH271061   1.204   3.764   4.006 -0.1286  0.5245  0.2388
16549TIP3    H171062   1.246   3.821   3.942 -0.6455 -0.7274 -1.2413
16549TIP3    H271063   1.275   3.710   4.041  0.5721  2.8158  2.5054
16550TIP3   OH271064   0.834   3.065  14.517 -0.0855 -0.7583 -0.6440
16550TIP3    H171065   0.801   3.044  14.429 -0.9609 -2.3500  0.0439
16550TIP3    H271066   0.781   3.011  14.576 -0.1944  1.0554  0.9579
16551TIP3   OH271067   2.842   4.061   3.280 -0.9691  0.7786  0.1109
16551TIP3    H171068   2.897   4.135   3.254  0.2394 -0.4495 -0.9182
16551TIP3    H271069   2.792   4.093   3.355  2.4317  1.3854  2.2060
16552TIP3   OH271070   0.406   3.581  13.797  0.3447 -0.5086  0.0222
16552TIP3    H171071   0.481   3.562  13.853  0.4732 -0.3852 -0.1105
16552TIP3    H271072   0.405   3.509  13.733 -0.5260 -1.3281  0.9367
16553TIP3   OH271073   1.437   3.978   1.650  0.4499 -0.4603 -1.1059
16553TIP3    H171074   1.481   3.957   1.567 -1.3931 -2.8232 -1.5195
16553TIP3    H271075   1.499   3.950   1.718  1.5657  0.6183 -1.6574
16554TIP3   OH271076   2.046   1.299  12.051 -0.0679  0.0108 -0.4221
16554TIP3    H171077   1.969   1.351  12.073  0.5736  0.0543  1.8620
16554TIP3    H271078   2.011   1.214  12.025 -0.9355  0.3492 -0.3730
16555TIP3   OH271079   0.207   5.819  11.243  0.1980 -0.4154 -0.0384
16555TIP3    H171080   0.131   5.837  11.189  1.4220 -0.0336 -1.6722
16555TIP3    H271081   0.175   5.762  11.313 -2.2486  2.2756  1.1306
16556TIP3   OH271082   3.159   6.686  14.813  0.0102  0.0798 -0.0730
16556TIP3    H171083   3.170   6.591  14.820  0.1981  0.1294  0.2931
16556TIP3    H271084   3.184   6.706  14.723 -1.5830 -0.4422 -0.6576
16557TIP3   OH271085   5.940   1.183   0.385 -0.1426 -0.1322 -0.2662
16557TIP3    H171086   5.940   1.163   0.292 -0.2727  2.5851 -0.8845
16557TIP3    H271087   5.932   1.279   0.390  0.5972 -0.1495  2.5024
16558TIP3   OH271088   3.499   5.880  15.711  0.0223  0.4716 -0.2523
16558TIP3    H171089   3.517   5.806  15.769 -1.8208 -0.7199 -1.1483
16558TIP3    H271090   3.585   5.908  15.679  0.8354 -0.4777  1.0577
16559TIP3   OH271091   2.324   2.313   2.943 -0.0570  0.1824 -0.3604
16559TIP3    H171092   2.397   2.299   2.881  0.7145 -0.8009  0.7422
16559TIP3    H271093   2.364   2.301   3.029 -0.5598  4.0521  0.4981
16560TIP3   OH271094   2.306   2.975  12.676 -0.4727 -0.3480  0.1156
16560TIP3    H171095   2.334   2.884  12.682  0.1721 -0.1460  0.1609
16560TIP3    H271096   2.248   2.977  12.600  0.1851 -0.6206 -0.3989
16561TIP3   OH271097   5.136   4.080  13.592 -0.1498 -0.0129  0.3082
16561TIP3    H171098   5.179   4.166  13.592  1.3950 -0.7456 -1.4311
16561TIP3    H271099   5.207   4.019  13.610 -0.6482 -1.1508 -1.4509
16562TIP3   OH271100   3.016   3.041  14.492 -0.3626 -0.0379 -0.1539
16562TIP3    H171101   2.988   3.119  14.444 -2.8585 -1.3084 -0.8093
16562TIP3    H271102   3.064   2.989  14.428 -0.2476  0.1116 -0.1902
16563TIP3   OH271103   5.846   6.686  13.421 -0.1692  0.3149 -0.2650
16563TIP3    H171104   5.804   6.717  13.501  0.4046 -0.4293  0.3263
16563TIP3    H271105   5.935   6.663  13.447  0.2591  0.7905 -1.2746
16564TIP3   OH271106   1.428   5.837  11.736 -0.2682  0.0250 -0.0662
16564TIP3    H171107   1.340   5.813  11.766  0.7784 -2.0154  1.5708
16564TIP3    H271108   1.430   5.813  11.644 -0.4872 -2.8417  0.6223
16565TIP3   OH271109   1.529   1.245  13.305 -0.1329 -0.4707  0.6217
16565TIP3    H171110   1.587   1.230  13.380  1.2116  1.9618  0.1127
16565TIP3    H271111   1.452   1.191  13.324 -0.4271  1.1182  4.4252
16566TIP3   OH271112   4.098   1.433  16.740 -0.1630 -0.0104  0.5530
16566TIP3    H171113   4.035   1.389  16.797 -0.6282  1.2005  0.9844
16566TIP3    H271114   4.101   1.523  16.772 -2.8835  1.5582 -3.2978
16567TIP3   OH271115   2.142   1.132  14.691  0.2314 -0.4671 -0.4627
16567TIP3    H171116   2.160   1.214  14.738  1.4355 -0.9165 -0.1264
16567TIP3    H271117   2.151   1.155  14.598  1.7301 -0.4767 -0.3313
16568TIP3   OH271118   2.704   6.473  11.192 -0.1548  0.0483  0.5139
16568TIP3    H171119   2.620   6.458  11.149 -0.2663  2.3368 -0.1147
16568TIP3    H271120   2.769   6.464  11.123  0.0014 -0.1662  0.6859
16569TIP3   OH271121   5.472   5.448   7.050 -0.4227 -0.3809 -0.2988
16569TIP3    H171122   5.450   5.420   6.961 -0.9513 -1.4410  0.1578
16569TIP3    H271123   5.539   5.515   7.038  0.9208 -1.8773 -1.4286
16570TIP3   OH271124   6.731   5.050  12.854  0.4160 -0.1851 -0.1695
16570TIP3    H171125   6.697   5.021  12.769 -0.1091  0.4785 -0.1881
16570TIP3    H271126   6.824   5.028  12.851  0.4534  0.0588 -1.0222
16571TIP3   OH271127   2.530   3.165  14.257 -0.2519 -0.4173  0.2927
16571TIP3    H171128   2.625   3.158  14.253 -0.2762 -0.8615  0.5100
16571TIP3    H271129   2.513   3.229  14.326 -0.1060 -0.1967  0.1247
16572TIP3   OH271130   2.416   6.015  13.404 -0.3203  0.6243 -0.1832
16572TIP3    H171131   2.438   6.096  13.358 -1.6520  0.4251 -1.2055
16572TIP3    H271132   2.490   5.957  13.386  1.1210  1.9189  1.3880
16573TIP3   OH271133   5.090   5.127   1.560 -0.4630  0.2585 -0.9682
16573TIP3    H171134   5.151   5.156   1.491  0.1617  1.5014  0.0837
16573TIP3    H271135   5.090   5.032   1.553  2.7819  0.1180 -0.0473
16574TIP3   OH271136   2.396   5.415  15.698 -0.0536  0.1451  0.2888
16574TIP3    H171137   2.414   5.482  15.764  0.7865 -0.4044  0.6173
16574TIP3    H271138   2.420   5.457  15.615  0.3374  0.3019  0.4777
16575TIP3   OH271139   4.483   4.850  12.156  0.0689 -0.0152  0.0409
16575TIP3    H171140   4.465   4.801  12.236 -1.0388 -0.3757 -0.4172
16575TIP3    H271141   4.471   4.787  12.085  1.3711  0.2116 -0.4033
16576TIP3   OH271142   0.982   3.616   2.623  0.5192  0.3959 -0.4188
16576TIP3    H171143   0.887   3.608   2.632  0.1626  0.0822 -3.7158
16576TIP3    H271144   1.012   3.527   2.602  1.1112  1.0366 -2.4014
16577TIP3   OH271145   5.656   2.059   3.022 -0.0216  0.6940 -0.2414
16577TIP3    H171146   5.685   2.038   3.110 -2.2591  2.5910  0.9873
16577TIP3    H271147   5.670   1.978   2.972 -2.6071 -1.7393  2.8125
16578TIP3   OH271148   5.105   3.171   5.498 -0.1581  0.2110 -0.0413
16578TIP3    H171149   5.066   3.139   5.579 -1.1300 -1.8593 -1.2823
16578TIP3    H271150   5.075   3.261   5.490  0.2108  0.5453  2.0453
16579TIP3   OH271151   2.484   1.387  13.406 -0.4934 -0.2721 -0.3998
16579TIP3    H171152   2.439   1.460  13.448  0.8252  2.1472 -3.0053
16579TIP3    H271153   2.561   1.371  13.461 -1.4184 -0.5763  0.8476
16580TIP3   OH271154   0.351   0.022   1.726  0.8324  0.0939  0.2285
16580TIP3    H171155   0.376  -0.020   1.643  3.6919  1.5854  0.2806
16580TIP3    H271156   0.307   0.102   1.700 -0.4631 -0.6239  0.1637
16581TIP3   OH271157   0.827   5.466  15.062  0.3857  0.0570 -0.3270
16581TIP3    H171158   0.846   5.399  15.127 -2.8994 -1.7885 -1.1762
16581TIP3    H271159   0.890   5.535  15.080  3.2667 -2.8401  1.1615
16582TIP3   OH271160   5.196   4.765   6.127 -0.0271  0.2453 -0.5177
16582TIP3    H171161   5.244   4.846   6.105 -0.4695  0.5403 -0.3960
16582TIP3    H271162   5.260   4.713   6.175 -0.3221  1.3403  1.0992
16583TIP3   OH271163   2.567   3.714   2.191 -0.5075  0.0356  0.4849
16583TIP3    H171164   2.614   3.631   2.185 -2.8888 -1.3201 -0.4347
16583TIP3    H271165   2.610   3.761   2.262  0.8503 -2.0154  1.0710
16584TIP3   OH271166   3.642   0.236  14.390  0.0765 -0.4713 -0.4889
16584TIP3    H171167   3.610   0.167  14.448 -0.6289 -1.2384 -1.7618
16584TIP3    H271168   3.728   0.205  14.361  1.0433  0.5542  1.1917
16585TIP3   OH271169   1.839   2.319  15.919  0.2428  0.2852 -0.8359
16585TIP3    H171170   1.834   2.382  15.991  0.4630  0.2549 -0.7940
16585TIP3    H271171   1.754   2.326  15.875 -0.2383 -0.3675 -0.0128
16586TIP3   OH271172   4.694   5.268  16.547 -0.3392  0.1267 -0.0857
16586TIP3    H171173   4.776   5.245  16.504 -1.1018 -1.4637 -0.6901
16586TIP3    H271174   4.721   5.309  16.629  1.0500 -0.9157 -0.0162
16587TIP3   OH271175   0.900   0.343  16.420  0.2566  0.3867 -0.3148
16587TIP3    H171176   0.809   0.325  16.445  0.2618  1.6153  0.6270
16587TIP3    H271177   0.946   0.261  16.440  0.0058  0.9015  2.5565
16588TIP3   OH271178   2.849   5.916  15.608 -0.2391 -0.0665 -0.5520
16588TIP3    H171179   2.922   5.958  15.564  0.5294  0.9412  1.6284
16588TIP3    H271180   2.874   5.824  15.613  1.1646  0.3830  0.7426
16589TIP3   OH271181   2.887   4.529   1.988 -0.2317 -0.5608  0.2313
16589TIP3    H171182   2.899   4.494   2.076 -0.1804  2.2163  1.3789
16589TIP3    H271183   2.799   4.502   1.962  0.0309 -2.0044  0.8271
16590TIP3   OH271184   5.258   0.376   4.983  0.0268 -0.5791  0.4118
16590TIP3    H171185   5.315   0.394   4.909  0.6583  0.4958  1.1447
16590TIP3    H271186   5.205   0.456   4.993 -1.1448 -1.3094  0.1446
16591TIP3   OH271187   4.465   1.574  17.173  0.1684  0.1639  0.2006
16591TIP3    H171188   4.504   1.640  17.115  2.3335  0.7859  2.3243
16591TIP3    H271189   4.405   1.624  17.228 -2.2351 -0.4960 -1.7019
16592TIP3   OH271190   1.308   5.509  13.474  0.1764 -0.4510 -0.7333
16592TIP3    H171191   1.277   5.468  13.555 -0.2861 -1.6010 -1.4724
16592TIP3    H271192   1.389   5.463  13.453 -0.3530 -1.0108 -1.5758
16593TIP3   OH271193   6.235   1.800  16.892 -0.4200 -0.1909 -0.0852
16593TIP3    H171194   6.326   1.810  16.920 -0.8194  1.4594  0.6675
16593TIP3    H271195   6.199   1.733  16.950 -0.0673  0.1454  0.5222
16594TIP3   OH271196   2.965   6.367  16.779 -0.3387 -1.0592  0.1758
16594TIP3    H171197   2.958   6.272  16.769 -2.2164 -1.0232  0.9855
16594TIP3    H271198   2.875   6.397  16.784  0.2628  0.5957  1.5678
16595TIP3   OH271199   1.679   3.965  17.221 -0.0832  0.2669  0.1780
16595TIP3    H171200   1.634   3.925  17.296 -0.0733  1.3607  0.7793
16595TIP3    H271201   1.763   3.920  17.216 -0.1471  0.0824  0.7354
16596TIP3   OH271202   2.967   4.479  14.209  0.0815 -0.5655 -0.8666
16596TIP3    H171203   3.060   4.483  14.184  0.2644  0.6930 -0.0763
16596TIP3    H271204   2.922   4.523  14.137  0.4585  1.7602  0.2597
16597TIP3   OH271205   0.343   3.951  15.401  0.5642 -0.6420 -0.4337
16597TIP3    H171206   0.310   3.891  15.468  0.2504 -1.4335 -1.2830
16597TIP3    H271207   0.354   3.896  15.323 -0.3563  0.5387 -1.4251
16598TIP3   OH271208   6.704   0.171  16.150 -0.6560  0.0430  0.2176
16598TIP3    H171209   6.788   0.142  16.114 -1.7413 -2.1078 -0.7218
16598TIP3    H271210   6.688   0.256  16.109  1.5743  1.0111  1.2697
16599TIP3   OH271211   4.606   4.560  15.388  0.0116 -0.6758  0.3258
16599TIP3    H171212   4.674   4.622  15.361  1.6132 -2.4586  0.1041
16599TIP3    H271213   4.545   4.557  15.315  0.1879  0.2622  0.1380
16600TIP3   OH271214   2.567   3.997  16.498  0.4231 -0.2705 -0.4314
16600TIP3    H171215   2.522   3.946  16.565  0.1051 -0.8967 -1.1208
16600TIP3    H271216   2.513   4.075  16.486  0.8701  0.2055  0.5652
16601TIP3   OH271217   6.639   0.958  15.529  0.1883  0.0537 -0.1816
16601TIP3    H171218   6.612   0.901  15.602 -1.2965 -1.4872 -1.8727
16601TIP3    H271219   6.732   0.938  15.516 -0.1498 -1.5527 -0.3220
16602TIP3   OH271220   2.296   6.636   4.824  0.0865 -0.0946 -0.2139
16602TIP3    H171221   2.379   6.609   4.864  0.5258  1.8789  0.2472
16602TIP3    H271222   2.319   6.663   4.736 -0.2208 -0.4164 -0.3960
16603TIP3   OH271223   3.477   1.646  17.179  0.0782  0.1086 -0.8287
16603TIP3    H171224   3.441   1.607  17.099 -0.2881 -0.4381 -0.4055
16603TIP3    H271225   3.403   1.647  17.240  0.2302  0.9580 -0.6487
16604TIP3   OH271226   4.091   3.627   2.579  0.4153  0.0188 -0.0226
16604TIP3    H171227   4.114   3.538   2.551 -1.1306 -0.6816  0.8329
16604TIP3    H271228   4.147   3.684   2.526  2.2625 -1.4965  0.2407
16605TIP3   OH271229   3.719   0.791  16.100 -0.9598  0.1763 -0.2502
16605TIP3    H171230   3.625   0.809  16.104 -1.1303 -0.2034 -1.9380
16605TIP3    H271231   3.759   0.860  16.153 -2.1840  0.4274  0.3535
16606TIP3   OH271232   0.017   6.423   4.327 -0.5686  0.8450 -0.2496
16606TIP3    H171233  -0.033   6.483   4.383 -2.2773 -0.9414  0.2136
16606TIP3    H271234   0.099   6.410   4.374 -0.7732  1.6971  0.3666
16607TIP3   OH271235   3.248   5.952  15.625 -0.5025 -0.7313 -0.3383
16607TIP3    H171236   3.335   5.920  15.651 -0.6656 -0.0076  1.1342
16607TIP3    H271237   3.188   5.902  15.680 -0.8786  0.5237  0.4014
16608TIP3   OH271238   0.722   4.144   6.709 -0.0912 -0.4517 -0.1284
16608TIP3    H171239   0.737   4.229   6.750 -0.3708  0.4309 -1.8401
16608TIP3    H271240   0.803   4.126   6.661 -0.2688 -0.8708 -0.2776
16609TIP3   OH271241   6.183   4.648  13.432  0.1421 -0.0603  0.2442
16609TIP3    H171242   6.109   4.603  13.473  1.1649 -1.3308  0.7405
16609TIP3    H271243   6.157   4.741  13.431 -1.5684 -0.5240  0.1155
16610TIP3   OH271244   5.200   0.173  14.499 -0.1088  0.0271 -0.2213
16610TIP3    H171245   5.111   0.206  14.505  0.4734  1.3508  1.5836
16610TIP3    H271246   5.237   0.186  14.587  1.0832 -2.7690 -0.2280
16611TIP3   OH271247   0.870   5.670   2.123 -0.2963  0.0265 -0.3364
16611TIP3    H171248   0.775   5.661   2.125 -0.4185  1.2497 -0.5144
16611TIP3    H271249   0.899   5.641   2.209 -0.7157 -1.4696 -0.6717
16612TIP3   OH271250   5.842   2.809  11.658  0.6324 -0.2972 -0.3709
16612TIP3    H171251   5.763   2.758  11.643  0.2772  0.0037  0.4255
16612TIP3    H271252   5.840   2.828  11.752  2.0535 -0.9674 -0.1946
16613TIP3   OH271253   3.435   2.275  12.436  0.8271  0.3187  0.2072
16613TIP3    H171254   3.459   2.182  12.447  0.5517  0.1648 -0.5014
16613TIP3    H271255   3.435   2.310  12.525 -1.5131 -0.9722  0.7501
16614TIP3   OH271256   0.645   5.122  15.141  0.1345 -1.0580 -0.0650
16614TIP3    H171257   0.723   5.156  15.185 -1.7749  1.2090  1.7304
16614TIP3    H271258   0.625   5.040  15.187  0.4117 -0.6903  0.7161
16615TIP3   OH271259   1.841   5.935  10.187 -0.3199  0.0761  0.5667
16615TIP3    H171260   1.760   5.985  10.177  0.1777  0.6873 -0.4496
16615TIP3    H271261   1.877   5.964  10.271 -0.4803  0.7845  0.3910
16616TIP3   OH271262   5.585   1.011  11.283  0.0656 -0.2205 -0.3575
16616TIP3    H171263   5.557   0.921  11.300  0.4968 -0.7646 -2.3463
16616TIP3    H271264   5.640   1.004  11.205  3.9750  1.1391  2.1952
16617TIP3   OH271265   6.011   6.639   2.079 -0.3866 -0.2964 -0.3271
16617TIP3    H171266   6.036   6.719   2.032 -1.5710  0.7329  0.7701
16617TIP3    H271267   6.091   6.587   2.081  0.1349  0.3888 -1.9790
16618TIP3   OH271268   2.563   5.214  14.522 -0.9395 -0.0959  0.1604
16618TIP3    H171269   2.566   5.199  14.428 -0.2588 -1.2680  0.3651
16618TIP3    H271270   2.570   5.309  14.532 -0.0499 -0.0482 -0.9199
16619TIP3   OH271271   6.134   4.920   0.096  0.0935 -0.1877 -0.3593
16619TIP3    H171272   6.060   4.861   0.084 -0.1284  0.0077  0.0392
16619TIP3    H271273   6.097   5.008   0.090  0.0073 -0.0709  1.3800
16620TIP3   OH271274   1.272   0.156   1.811  0.2402  0.8602  0.0133
16620TIP3    H171275   1.301   0.205   1.887  1.1344  0.0490  0.1984
16620TIP3    H271276   1.180   0.182   1.800 -0.3080 -0.0429  2.1760
16621TIP3   OH271277   2.683   1.381  13.615 -0.7947 -0.1427  0.0134
16621TIP3    H171278   2.642   1.340  13.692 -0.7855 -0.0875  0.0480
16621TIP3    H271279   2.776   1.382  13.636 -0.7214 -0.7246 -0.2743
16622TIP3   OH271280   0.987   3.420  13.976  0.4203  0.2034  0.0838
16622TIP3    H171281   1.001   3.512  13.957  2.4636  0.0471  0.6980
16622TIP3    H271282   1.065   3.393  14.025 -1.0011 -1.3787  1.5525
16623TIP3   OH271283   6.002   1.063  12.901 -0.6770  0.2129 -0.2275
16623TIP3    H171284   5.939   1.130  12.929 -0.8751  0.2492 -0.7409
16623TIP3    H271285   6.038   1.028  12.982 -1.1557  0.3929  0.0651
16624TIP3   OH271286   4.448   0.797  14.164  0.1168  0.4089 -0.3159
16624TIP3    H171287   4.506   0.852  14.111 -2.5242  5.2617  1.4799
16624TIP3    H271288   4.371   0.784  14.108 -1.3967  2.9674  1.0986
16625TIP3   OH271289   6.707   4.368   5.996 -0.3969  0.0931 -0.2869
16625TIP3    H171290   6.720   4.411   6.080 -2.1601  0.1820 -0.0368
16625TIP3    H271291   6.795   4.345   5.967  0.2227 -0.0991  1.6665
16626TIP3   OH271292   3.949   4.867   2.860  0.0104 -0.2599  0.3183
16626TIP3    H171293   3.980   4.897   2.946 -2.0196  0.2682  0.8820
16626TIP3    H271294   3.867   4.822   2.878 -0.5348  0.0213 -1.3725
16627TIP3   OH271295   0.959   3.645   5.204 -0.2775 -0.1956 -0.4039
16627TIP3    H171296   0.881   3.654   5.149 -1.3897  1.3710  1.3405
16627TIP3    H271297   0.931   3.589   5.277 -0.1420  1.2648  0.8084
16628TIP3   OH271298   1.491   0.210  11.473 -0.3737  0.5230  0.0867
16628TIP3    H171299   1.585   0.216  11.460 -0.2941  0.3725  0.5725
16628TIP3    H271300   1.454   0.278  11.416 -0.0001  0.3250 -0.3937
16629TIP3   OH271301   1.807   4.497   1.042 -0.3841 -0.3492  0.0585
16629TIP3    H171302   1.889   4.530   1.004  0.6073  0.3368  2.7092
16629TIP3    H271303   1.738   4.545   0.996  0.5976 -1.5269 -2.8066
16630TIP3   OH271304   1.801   6.705   2.120 -0.3842 -0.3581 -0.4342
16630TIP3    H171305   1.817   6.771   2.188  0.8726 -1.2731  0.1720
16630TIP3    H271306   1.706   6.702   2.112 -0.8394 -3.4680  4.5086
16631TIP3   OH271307   1.795   1.450  12.547  0.0240  0.1045 -0.2064
16631TIP3    H171308   1.786   1.519  12.613 -1.5797 -0.7314  0.4833
16631TIP3    H271309   1.851   1.384  12.588 -1.1009 -0.4865  0.3896
16632TIP3   OH271310   6.679   4.565   4.562  0.0868 -0.4168 -0.6366
16632TIP3    H171311   6.711   4.475   4.565  0.1524 -0.3566  0.8438
16632TIP3    H271312   6.589   4.561   4.592  0.2893  0.0905  0.0670
16633TIP3   OH271313   2.296   4.578  17.142 -0.2310 -0.8633  0.0928
16633TIP3    H171314   2.228   4.645  17.136  1.3493  0.7769  0.2250
16633TIP3    H271315   2.338   4.579  17.056  1.5014  0.1582  0.9440
16634TIP3   OH271316   6.263   2.652   2.397  0.2601  0.1435  0.1026
16634TIP3    H171317   6.243   2.688   2.311 -0.4649 -0.7012 -0.0878
16634TIP3    H271318   6.241   2.559   2.390  0.9597 -0.0923  0.9556
16635TIP3   OH271319   0.649   6.271   2.001 -0.6336 -0.5534  0.2151
16635TIP3    H171320   0.727   6.299   2.049 -0.7642 -1.3957  0.9319
16635TIP3    H271321   0.679   6.197   1.948 -0.2141  1.0845 -1.9126
16636TIP3   OH271322   4.497   5.012  11.244 -0.1861 -0.8690 -0.0721
16636TIP3    H171323   4.463   4.954  11.312 -1.1685 -1.2498 -0.8637
16636TIP3    H271324   4.444   4.992  11.167  0.3226  0.1771 -0.7113
16637TIP3   OH271325   1.221   0.532   4.377 -0.8084  0.0359 -0.5344
16637TIP3    H171326   1.247   0.623   4.363  0.5397 -0.2713 -0.0703
16637TIP3    H271327   1.252   0.511   4.464 -0.7287 -1.0129 -0.8081
16638TIP3   OH271328   6.037   2.879   3.161  0.0492  0.7829 -0.1566
16638TIP3    H171329   6.061   2.946   3.097  0.9082  0.8009  0.1792
16638TIP3    H271330   6.117   2.862   3.210 -0.3247 -0.0304  0.1917
16639TIP3   OH271331   3.808   1.963  16.350 -0.1043 -0.3355 -0.2413
16639TIP3    H171332   3.897   1.946  16.379  0.0240  0.7721  0.0483
16639TIP3    H271333   3.753   1.946  16.426  0.1791  2.0250  0.5458
16640TIP3   OH271334   4.774   1.478   2.059 -0.6542  0.8023  0.3337
16640TIP3    H171335   4.762   1.424   1.981 -0.2736  0.7132  0.3348
16640TIP3    H271336   4.809   1.418   2.125  2.8931  1.6862 -0.6110
16641TIP3   OH271337   3.902   0.458  11.603  0.4324 -0.2658 -0.2623
16641TIP3    H171338   3.892   0.370  11.566  2.3235 -0.5964 -0.0420
16641TIP3    H271339   3.820   0.473  11.651 -1.0990 -0.7333 -2.6769
16642TIP3   OH271340   6.507   3.736  13.641 -0.4907  0.8595 -0.2787
16642TIP3    H171341   6.594   3.724  13.679 -0.0180  0.1070 -1.5981
16642TIP3    H271342   6.473   3.647  13.631 -0.3101  0.9959 -2.3042
16643TIP3   OH271343   1.684   4.948   4.227 -0.3919 -0.0480 -0.5079
16643TIP3    H171344   1.654   4.974   4.313  1.2113  3.1061 -0.8335
16643TIP3    H271345   1.611   4.966   4.168 -1.3259 -1.7851  0.1002
16644TIP3   OH271346   1.145   2.137   4.539  0.1495 -0.6231 -0.2871
16644TIP3    H171347   1.146   2.228   4.569 -0.5625 -0.6948 -0.0474
16644TIP3    H271348   1.187   2.088   4.610 -0.2395 -0.5965 -0.0369
16645TIP3   OH271349   5.447   0.174  13.464  0.3847 -0.5794  0.5305
16645TIP3    H171350   5.431   0.081  13.445  1.5293 -0.1654 -2.8442
16645TIP3    H271351   5.520   0.198  13.407 -0.4324  2.6155  0.7172
16646TIP3   OH271352   5.974   3.077  16.138 -0.8029 -0.6195 -0.2745
16646TIP3    H171353   5.942   3.000  16.185 -0.2454 -0.6454  0.0665
16646TIP3    H271354   6.066   3.059  16.122 -0.6556  0.0089 -0.1422
16647TIP3   OH271355   0.434   0.220   0.765 -0.3868  0.0487  0.4026
16647TIP3    H171356   0.425   0.126   0.747  2.6483 -0.5426  1.6723
16647TIP3    H271357   0.365   0.239   0.828 -0.6137 -1.4934  0.6291
16648TIP3   OH271358   1.969   3.730  14.053  0.2965  0.0986  0.4996
16648TIP3    H171359   1.881   3.702  14.078  0.5281 -0.0779  1.1176
16648TIP3    H271360   1.960   3.822  14.031 -0.3075 -0.2363 -0.7443
16649TIP3   OH271361   1.390   2.012  12.138  0.1463 -0.4214  0.5038
16649TIP3    H171362   1.304   2.054  12.134 -0.1127 -1.0813 -0.9495
16649TIP3    H271363   1.370   1.920  12.159  0.5608 -0.3718  1.1224
16650TIP3   OH271364   0.307   5.851  12.445  0.0088 -0.1716  0.0047
16650TIP3    H171365   0.316   5.892  12.530 -0.6518 -1.5674  0.7646
16650TIP3    H271366   0.362   5.904  12.386  0.4735  0.7825  1.2875
16651TIP3   OH271367   1.500   1.850  13.602 -0.4393  0.4553  0.2376
16651TIP3    H171368   1.571   1.896  13.647  2.1217 -0.8514 -2.3422
16651TIP3    H271369   1.462   1.793  13.670  1.2795  0.8055  1.5254
16652TIP3   OH271370   2.476   5.811   3.934 -0.4326 -0.2425 -0.0812
16652TIP3    H171371   2.407   5.788   3.872 -0.9360  1.7553 -0.3240
16652TIP3    H271372   2.499   5.901   3.911  1.0423 -0.2921  1.1240
16653TIP3   OH271373   4.589   6.103  10.987  0.3608  0.6807  0.6755
16653TIP3    H171374   4.535   6.024  10.996 -0.9136  1.5420  0.6617
16653TIP3    H271375   4.674   6.070  10.958 -0.1478 -0.7006  0.7148
16654TIP3   OH271376   6.307   1.904  15.088  0.5741 -0.0428  0.2184
16654TIP3    H171377   6.368   1.963  15.132  1.0770 -1.0049  0.8203
16654TIP3    H271378   6.307   1.825  15.141 -1.5202  0.0863  0.4745
16655TIP3   OH271379   4.893   6.728  16.427 -0.1510  0.0183 -0.1412
16655TIP3    H171380   4.819   6.772  16.468 -0.4250 -1.3134  0.8287
16655TIP3    H271381   4.883   6.636  16.451  0.6638 -0.5148 -1.7385
16656TIP3   OH271382   2.505   5.965  14.750 -0.2921 -0.5683 -0.0355
16656TIP3    H171383   2.575   6.030  14.742 -1.1921  0.5519  1.1676
16656TIP3    H271384   2.522   5.904  14.678  0.1493  1.3561 -1.6018
16657TIP3   OH271385   0.696   3.208  15.198 -0.2553  0.2031 -0.0671
16657TIP3    H171386   0.714   3.156  15.277 -0.6641  0.7571  0.3874
16657TIP3    H271387   0.605   3.235  15.207 -0.3870  0.0417 -0.8650
16658TIP3   OH271388   6.458   4.222   6.437  0.3118 -0.4612 -0.0728
16658TIP3    H171389   6.377   4.247   6.392  0.8215  0.2234 -0.6110
16658TIP3    H271390   6.460   4.277   6.515  0.4818 -0.1669 -0.2857
16659TIP3   OH271391   6.744   1.831  11.600 -0.4942  0.5113  0.2869
16659TIP3    H171392   6.734   1.749  11.649 -1.6762  0.2704 -0.3366
16659TIP3    H271393   6.671   1.831  11.538  1.0985  0.7090 -1.6303
16660TIP3   OH271394   0.228   0.456   5.123  0.0303  0.0454  0.7896
16660TIP3    H171395   0.165   0.388   5.100 -1.1854  1.4968 -0.2660
16660TIP3    H271396   0.288   0.414   5.185 -1.4987 -1.5728  1.1860
16661TIP3   OH271397   5.819   4.192   5.945  0.1205  0.2806 -0.0324
16661TIP3    H171398   5.765   4.256   5.992 -1.1863 -0.7038 -0.1645
16661TIP3    H271399   5.799   4.108   5.986 -0.7860 -0.5486 -2.0906
16662TIP3   OH271400   2.219   0.073  13.331  0.6678  0.1429  0.0703
16662TIP3    H171401   2.139   0.020  13.328  0.3949  0.5542  0.0299
16662TIP3    H271402   2.208   0.136  13.260  1.1430  0.0412 -0.0956
16663TIP3   OH271403   3.039   5.338  11.920 -0.1759 -0.0178 -0.0899
16663TIP3    H171404   2.948   5.320  11.946 -0.1970  1.1501  0.7077
16663TIP3    H271405   3.090   5.317  11.998  0.1160  0.3668 -0.1771
16664TIP3   OH271406   2.781   6.186  13.407 -0.0378  0.3467  0.7877
16664TIP3    H171407   2.760   6.096  13.381  1.0272 -0.1976  1.7431
16664TIP3    H271408   2.871   6.200  13.376 -1.1038  2.0095 -1.6762
16665TIP3   OH271409   2.765   5.784   2.741 -0.0072 -0.2157 -0.1410
16665TIP3    H171410   2.670   5.773   2.739 -0.0746 -0.3747  1.9991
16665TIP3    H271411   2.778   5.874   2.771  0.4884 -0.8291  1.5602
16666TIP3   OH271412   6.414   4.744   1.609  0.6991 -0.5030  0.3826
16666TIP3    H171413   6.493   4.798   1.602 -0.1725  0.8986  1.0721
16666TIP3    H271414   6.425   4.694   1.690  0.7132 -0.0368  0.6686
16667TIP3   OH271415   2.583   2.977   1.593 -0.3669 -0.6475 -0.0202
16667TIP3    H171416   2.548   3.054   1.638 -0.2528 -1.0910  0.8383
16667TIP3    H271417   2.538   2.975   1.508 -0.1634  0.5239 -0.1642
16668TIP3   OH271418   0.978   6.334  13.517 -0.3036  0.0693  0.2688
16668TIP3    H171419   1.040   6.366  13.451 -2.1507 -0.0267 -1.5665
16668TIP3    H271420   0.984   6.239  13.512 -0.0743  0.0631  0.6178
16669TIP3   OH271421   1.642   0.586  16.329  0.3860  0.1004  0.6363
16669TIP3    H171422   1.548   0.598  16.334  0.5015  1.1390  0.4854
16669TIP3    H271423   1.667   0.555  16.417 -0.3236 -2.0140  0.1193
16670TIP3   OH271424   3.467   1.479   5.644 -0.4720  0.0060  0.4216
16670TIP3    H171425   3.410   1.445   5.575 -0.7116 -1.0265  1.1045
16670TIP3    H271426   3.419   1.553   5.680 -0.3854  0.4948 -0.4564
16671TIP3   OH271427   2.249   5.018   5.817 -0.6396  0.3261  0.2962
16671TIP3    H171428   2.341   5.045   5.806 -0.4599 -0.1826  0.5312
16671TIP3    H271429   2.199   5.085   5.770 -0.0450 -0.3130 -1.3009
16672TIP3   OH271430   2.885   3.261   0.537  0.0293  0.5614  0.0284
16672TIP3    H171431   2.911   3.224   0.453  0.4788  0.1392  0.3547
16672TIP3    H271432   2.881   3.187   0.596  3.3222  1.3197  1.2863
16673TIP3   OH271433   5.097   0.665   3.225 -0.2497 -0.0782  0.6244
16673TIP3    H171434   5.037   0.733   3.257 -0.7696 -0.5772  0.7150
16673TIP3    H271435   5.118   0.692   3.136  1.2130  1.3261  1.3689
16674TIP3   OH271436   4.886   4.867   2.820  0.4206  0.2237 -0.3948
16674TIP3    H171437   4.952   4.816   2.773  0.1449 -0.1213 -0.4140
16674TIP3    H271438   4.830   4.904   2.751  1.3738  1.6012 -0.4384
16675TIP3   OH271439   0.888   1.672  12.589 -0.2910  0.6538 -0.2900
16675TIP3    H171440   0.823   1.677  12.659 -0.8197 -0.8166 -0.6587
16675TIP3    H271441   0.885   1.581  12.559  1.2874  0.7907 -0.9357
16676TIP3   OH271442   1.602   0.635  16.849 -0.0369 -0.2779  0.5903
16676TIP3    H171443   1.638   0.592  16.927 -1.0288 -1.4935  0.3805
16676TIP3    H271444   1.507   0.633  16.862 -0.1861 -0.0528 -0.4281
16677TIP3   OH271445   4.919   1.430   3.703 -0.3354  0.1302  0.2808
16677TIP3    H171446   4.896   1.482   3.780 -2.8452  1.2107 -1.1296
16677TIP3    H271447   4.980   1.485   3.655  1.2539 -0.5555  1.4568
16678TIP3   OH271448   1.268   0.344   2.703  0.5620 -0.1906  0.0605
16678TIP3    H171449   1.222   0.298   2.773  1.1585 -0.0835  0.5197
16678TIP3    H271450   1.198   0.389   2.655  0.0769 -0.8000  0.1759
16679TIP3   OH271451   4.728   3.467  15.219 -0.3290  0.3916 -0.3548
16679TIP3    H171452   4.797   3.482  15.155 -0.3139 -0.6380 -0.5880
16679TIP3    H271453   4.758   3.513  15.297  1.6514 -1.7337  0.2101
16680TIP3   OH271454   4.790   4.903  11.325 -0.6717 -0.1915 -0.0493
16680TIP3    H171455   4.712   4.919  11.271 -0.0552  0.8432 -0.6670
16680TIP3    H271456   4.843   4.982  11.313 -0.2707 -0.1862  1.6525
16681TIP3   OH271457   2.277   6.317   4.548 -0.1502  0.3574  0.0475
16681TIP3    H171458   2.334   6.381   4.590 -2.0103  1.9300  0.2591
16681TIP3    H271459   2.290   6.236   4.599  0.1265  1.3169  1.5399
16682TIP3   OH271460   0.305   5.920  16.849  0.0620 -0.1731  0.3854
16682TIP3    H171461   0.262   5.916  16.935  2.6319 -0.3840  1.7004
16682TIP3    H271462   0.334   5.831  16.832  0.4679  0.0754 -0.2454
16683TIP3   OH271463   6.719   3.261  11.441 -0.4134  0.3870  0.0963
16683TIP3    H171464   6.647   3.301  11.393 -0.7668 -0.8457 -0.4289
16683TIP3    H271465   6.708   3.167  11.426  1.9882  0.2324 -1.0079
16684TIP3   OH271466   4.338   5.805  11.040 -0.1675  0.2446 -0.5695
16684TIP3    H171467   4.254   5.841  11.068  0.8641  2.6945 -0.5443
16684TIP3    H271468   4.391   5.803  11.120  0.2106 -0.1476 -0.8276
16685TIP3   OH271469   3.235   6.180   0.374  0.3192 -0.3470 -0.1412
16685TIP3    H171470   3.174   6.120   0.418  0.8697 -0.4295  0.5320
16685TIP3    H271471   3.297   6.204   0.443  0.1241  0.9732 -0.4139
16686TIP3   OH271472   1.511   2.405  13.653  0.3687  0.2164  0.1665
16686TIP3    H171473   1.472   2.459  13.721  0.7267  1.0826 -0.3112
16686TIP3    H271474   1.437   2.362  13.610  0.1486 -0.4058  1.1588
16687TIP3   OH271475   0.915   1.808  15.909  0.2965  0.1682 -0.1797
16687TIP3    H171476   0.842   1.777  15.963  0.2746  1.3433  0.4790
16687TIP3    H271477   0.990   1.756  15.938  0.4181  1.2040  1.4320
16688TIP3   OH271478   0.423   0.787  12.818  0.6248  0.0640  0.1551
16688TIP3    H171479   0.461   0.858  12.870  0.3535  1.4371 -1.4994
16688TIP3    H271480   0.499   0.742  12.780  0.7325  0.8243 -0.5474
16689TIP3   OH271481   2.733   2.837  12.519 -0.1679 -0.1995  0.0600
16689TIP3    H171482   2.814   2.792  12.543  0.4675  0.0951 -1.4838
16689TIP3    H271483   2.759   2.897  12.449 -1.1702  1.9634  1.4987
16690TIP3   OH271484   1.978   2.153   4.745  0.1841  0.2049 -0.7063
16690TIP3    H171485   2.034   2.191   4.812 -0.3445  0.2756 -0.3057
16690TIP3    H271486   2.011   2.063   4.735  1.8629  0.9512 -2.1373
16691TIP3   OH271487   0.963   3.607  11.547  0.2641  0.1093  0.1212
16691TIP3    H171488   0.980   3.690  11.503 -0.9187 -0.7982 -2.1268
16691TIP3    H271489   1.050   3.567  11.559  0.6009  0.3118 -1.5551
16692TIP3   OH271490   0.120   5.463   0.222 -0.0632 -0.5288 -0.2497
16692TIP3    H171491   0.101   5.557   0.213  1.4619 -0.2532 -0.7183
16692TIP3    H271492   0.060   5.433   0.291 -1.1924  0.5936 -0.7266
16693TIP3   OH271493   1.956   2.152   4.432 -0.0152 -0.1320 -0.0307
16693TIP3    H171494   1.940   2.061   4.458 -0.2024  0.1243  0.7566
16693TIP3    H271495   1.964   2.200   4.515  0.1663  0.5554 -0.4399
16694TIP3   OH271496   5.679   5.870  15.585  0.4544  0.3428 -0.1432
16694TIP3    H171497   5.662   5.789  15.633 -0.7982 -0.7375 -2.3445
16694TIP3    H271498   5.768   5.895  15.611  0.7560 -1.5893  0.7424
16695TIP3   OH271499   5.811   6.193   1.632 -0.3238  0.1346  0.6945
16695TIP3    H171500   5.763   6.112   1.619 -0.4524  0.2523  0.4462
16695TIP3    H271501   5.902   6.166   1.642 -0.4195 -0.0737  1.0038
16696TIP3   OH271502   4.163   6.144   5.249  0.7291 -0.6555 -0.1430
16696TIP3    H171503   4.247   6.136   5.294  1.2534 -2.6317 -1.4232
16696TIP3    H271504   4.182   6.122   5.158 -0.1078  4.1727 -1.6638
16697TIP3   OH271505   5.786   0.213   1.786 -0.5004  0.1909  0.2154
16697TIP3    H171506   5.845   0.212   1.861  0.2928 -0.2882 -0.4025
16697TIP3    H271507   5.699   0.231   1.823 -0.1108 -0.0083  1.2304
16698TIP3   OH271508   1.808   1.711  11.365 -0.4274  0.5234 -0.3688
16698TIP3    H171509   1.858   1.771  11.310 -0.2491  1.4069  0.7263
16698TIP3    H271510   1.869   1.640  11.385  0.1754  1.2314  0.3617
16699TIP3   OH271511   1.339   3.055  15.483  0.8261 -0.3351  0.0446
16699TIP3    H171512   1.275   3.078  15.551  1.4386  1.6672 -0.0251
16699TIP3    H271513   1.422   3.048  15.530  1.5877  2.8856 -0.7308
16700TIP3   OH271514   4.048   6.489  16.112 -0.4294  0.7792 -0.5558
16700TIP3    H171515   4.118   6.429  16.137 -2.1203 -0.4823  1.2806
16700TIP3    H271516   3.986   6.435  16.063 -1.8695  1.0716  0.9407
16701TIP3   OH271517   3.231   3.011   3.782  0.0309 -0.0911 -0.3595
16701TIP3    H171518   3.197   3.098   3.760 -0.8309 -0.4651 -0.5179
16701TIP3    H271519   3.318   3.028   3.818  0.8841  0.6507 -2.6758
16702TIP3   OH271520   0.456   3.830   3.273 -0.2996  0.3971 -0.2034
16702TIP3    H171521   0.544   3.794   3.280 -0.7898 -0.6074  0.8475
16702TIP3    H271522   0.426   3.803   3.186 -0.7539 -1.9622  0.6571
16703TIP3   OH271523   4.545   4.120  16.958 -0.3501 -0.3801 -0.2255
16703TIP3    H171524   4.457   4.125  16.995  0.0814  3.3051  0.4950
16703TIP3    H271525   4.599   4.170  17.019  1.8435 -0.7341 -1.8373
16704TIP3   OH271526   5.473   4.081  16.842  0.1023 -0.7845 -0.2305
16704TIP3    H171527   5.399   4.039  16.885 -0.1377 -0.6317 -0.4922
16704TIP3    H271528   5.449   4.083  16.749  0.0413  0.0595 -0.2059
16705TIP3   OH271529   2.140   5.913   5.221  0.1441 -0.3973 -0.2405
16705TIP3    H171530   2.093   5.932   5.139 -0.5219  0.8788  0.4140
16705TIP3    H271531   2.212   5.856   5.195 -0.1557 -0.1383 -1.6925
16706TIP3   OH271532   1.903   4.094   3.397  0.2093 -0.0112  0.5964
16706TIP3    H171533   1.985   4.061   3.432  0.1658 -0.3221  0.4049
16706TIP3    H271534   1.883   4.037   3.322 -0.0864  0.1737  0.5311
16707TIP3   OH271535   1.518   2.845   1.042  0.2805 -0.1244  0.3494
16707TIP3    H171536   1.547   2.841   0.950 -0.5690 -2.2566  0.1591
16707TIP3    H271537   1.598   2.835   1.093  0.7684  1.1301 -0.1421
16708TIP3   OH271538   6.222   2.777   6.113 -0.5216 -0.4926  0.6765
16708TIP3    H171539   6.253   2.774   6.203 -0.1353  0.5806  0.5871
16708TIP3    H271540   6.128   2.796   6.120 -0.1480  1.3938  0.8141
16709TIP3   OH271541   3.466   0.591   2.424  0.5638 -0.0676 -0.3572
16709TIP3    H171542   3.394   0.649   2.398 -0.0557 -0.8220 -0.3438
16709TIP3    H271543   3.538   0.615   2.366  0.4742  1.0527 -0.0275
16710TIP3   OH271544   4.862   2.170   4.021 -0.4310  0.4051 -0.7184
16710TIP3    H171545   4.948   2.188   4.060 -1.0585  0.9094  0.4720
16710TIP3    H271546   4.842   2.081   4.049 -0.5855  0.5251 -0.4464
16711TIP3   OH271547   4.891   5.426   3.864  0.1783 -0.6352  0.3622
16711TIP3    H171548   4.977   5.384   3.866  0.7533  0.5315  0.8534
16711TIP3    H271549   4.904   5.506   3.814 -0.7269 -0.6632  0.0718
16712TIP3   OH271550   6.345   3.282  16.420  0.3253  0.2538 -0.0679
16712TIP3    H171551   6.318   3.365  16.380 -0.2963 -0.5571 -1.3604
16712TIP3    H271552   6.424   3.305  16.470  1.0879  1.3334 -1.7006
16713TIP3   OH271553   2.463   4.898   4.139  0.3238  0.1023  0.0859
16713TIP3    H171554   2.373   4.907   4.170  0.7746  1.0001  1.1932
16713TIP3    H271555   2.475   4.971   4.079 -0.3351 -1.2411 -1.7006
16714TIP3   OH271556   0.483   4.168   0.354 -0.2664 -0.0811 -0.1457
16714TIP3    H171557   0.467   4.084   0.397  1.6083 -0.3993 -0.0383
16714TIP3    H271558   0.512   4.145   0.266 -0.0849  0.4532 -0.2301
16715TIP3   OH271559   0.947   1.031   1.056 -0.3646 -0.0803 -0.1376
16715TIP3    H171560   1.006   1.071   0.993  0.6187 -2.7635 -0.9834
16715TIP3    H271561   0.881   0.987   1.003  0.2050 -1.9706  0.6855
16716TIP3   OH271562   0.706   5.010  15.521  0.3227 -0.3231 -0.6768
16716TIP3    H171563   0.655   5.081  15.559 -0.6247 -1.5112  0.3195
16716TIP3    H271564   0.664   4.930  15.553  1.4583 -1.3409 -1.6460
16717TIP3   OH271565   2.705   3.008  14.652 -0.0569 -0.3439  0.4835
16717TIP3    H171566   2.674   3.033  14.739 -2.2574 -0.4037 -0.2507
16717TIP3    H271567   2.704   2.912  14.652 -2.8859 -0.3492 -0.5425
16718TIP3   OH271568   4.248   4.777  11.839  0.1757  0.5232 -0.5776
16718TIP3    H171569   4.206   4.754  11.756 -1.5757 -3.1285  1.2214
16718TIP3    H271570   4.342   4.768  11.822 -0.1501  0.2016 -2.2408
16719TIP3   OH271571   0.303   5.711   2.120 -0.2892 -0.4488 -0.2180
16719TIP3    H171572   0.316   5.793   2.166 -3.0318  0.5101 -1.1005
16719TIP3    H271573   0.347   5.724   2.036  0.7077 -0.5236  0.2769
16720TIP3   OH271574   0.322   4.074   0.668 -0.1350  0.0028 -0.2535
16720TIP3    H171575   0.236   4.096   0.631 -0.5072  0.3257  0.7888
16720TIP3    H271576   0.334   3.982   0.646 -0.5739  0.0586 -0.7456
16721TIP3   OH271577   5.382   4.574  11.940 -0.2001  0.3791  0.4964
16721TIP3    H171578   5.416   4.664  11.942 -0.4959  0.4860  1.0470
16721TIP3    H271579   5.456   4.521  11.911  0.4701  0.6031  1.7325
16722TIP3   OH271580   5.832   5.997   4.497 -0.5477 -0.8693 -0.4706
16722TIP3    H171581   5.847   6.038   4.582 -1.2954  1.2942 -1.3534
16722TIP3    H271582   5.766   5.930   4.514 -1.4458  0.2360  0.4709
16723TIP3   OH271583   0.740   0.585   0.191  0.2920  0.7453  0.0232
16723TIP3    H171584   0.830   0.575   0.222  0.5522  2.1640 -0.2459
16723TIP3    H271585   0.735   0.676   0.161 -0.6202  0.0703 -1.9524
16724TIP3   OH271586   3.830   0.173  15.027  0.0177 -0.0291 -0.7520
16724TIP3    H171587   3.893   0.141  14.962  0.0816  1.3762 -1.4062
16724TIP3    H271588   3.786   0.247  14.984 -0.4985  0.4181  0.5108
16725TIP3   OH271589   5.006   1.837  13.655 -0.3310 -0.4507 -0.3235
16725TIP3    H171590   5.038   1.906  13.597  0.7640  0.3244  1.1733
16725TIP3    H271591   5.035   1.864  13.742 -1.9309 -1.6067  0.5864
16726TIP3   OH271592   1.892   3.237  15.818 -0.1929  0.1252  0.0637
16726TIP3    H171593   1.866   3.181  15.891  1.2103 -0.4847  0.1144
16726TIP3    H271594   1.810   3.256  15.772 -0.7622 -1.4356  0.4193
16727TIP3   OH271595   5.874   5.101  13.786  0.1068  0.2780 -0.0272
16727TIP3    H171596   5.911   5.186  13.762  1.2048 -0.4609 -1.0015
16727TIP3    H271597   5.897   5.090  13.878 -0.6455  1.3338  0.3070
16728TIP3   OH271598   3.301   2.884  11.604 -0.0957 -0.6914 -0.3232
16728TIP3    H171599   3.224   2.931  11.573 -0.3021 -0.6880  0.2031
16728TIP3    H271600   3.374   2.924  11.556 -0.1928  0.5966  0.5870
16729TIP3   OH271601   5.877   2.601   2.770 -0.1794 -0.1481 -0.2339
16729TIP3    H171602   5.827   2.683   2.776  1.7524  0.9836  0.9628
16729TIP3    H271603   5.943   2.619   2.703  0.7324 -0.4465  0.5777
16730TIP3   OH271604   4.441   4.398  15.533 -0.0783  0.2597  0.6024
16730TIP3    H171605   4.482   4.464  15.477  2.6231 -2.0798 -0.2369
16730TIP3    H271606   4.486   4.317  15.513 -1.6361 -1.4016  3.4655
16731TIP3   OH271607   1.694   3.683   2.753 -0.6302  0.1879  0.2862
16731TIP3    H171608   1.748   3.643   2.821  1.3690 -0.4499 -1.6022
16731TIP3    H271609   1.754   3.738   2.703 -2.1196  0.9085 -0.7569
16732TIP3   OH271610   3.304   4.370  15.698  0.1665  0.2159 -0.3788
16732TIP3    H171611   3.212   4.377  15.676  0.0528 -0.0917 -0.0007
16732TIP3    H271612   3.322   4.276  15.701 -0.0564  0.2208  1.7658
16733TIP3   OH271613   6.395   6.317   4.787  0.3665  0.2610 -0.2618
16733TIP3    H171614   6.327   6.354   4.843 -0.2812 -1.1374 -0.1139
16733TIP3    H271615   6.455   6.274   4.847  0.3900 -0.0872 -0.5350
16734TIP3   OH271616   6.234   1.476  14.783 -0.4386  0.6550  0.2784
16734TIP3    H171617   6.168   1.420  14.743 -0.0048  1.4144 -1.5229
16734TIP3    H271618   6.257   1.432  14.865 -1.1199 -1.0483 -0.4414
16735TIP3   OH271619   1.974   1.593   1.858 -0.3755 -0.1071 -0.6303
16735TIP3    H171620   2.006   1.531   1.923  1.2764  1.4540  0.0676
16735TIP3    H271621   1.884   1.612   1.885 -0.4698 -1.2212 -0.1431
16736TIP3   OH271622   5.412   6.348  12.734  0.0993  0.2804  0.1731
16736TIP3    H171623   5.429   6.347  12.828 -0.7130  1.3592  0.3351
16736TIP3    H271624   5.321   6.320  12.725  0.0780  0.4860 -0.2787
16737TIP3   OH271625   3.986   5.064   4.743  0.4582  0.0171 -0.7803
16737TIP3    H171626   4.011   5.154   4.722  1.4604 -0.0332  0.1477
16737TIP3    H271627   4.069   5.016   4.745  0.0355 -0.7070 -0.2607
16738TIP3   OH271628   3.561   4.254   2.404 -0.4649 -0.5640  0.4434
16738TIP3    H171629   3.645   4.249   2.449  1.2201 -0.5826 -2.5902
16738TIP3    H271630   3.548   4.347   2.387 -0.4946 -0.6741 -0.1345
16739TIP3   OH271631   4.839   5.242   0.856  0.3514  0.2291 -0.7775
16739TIP3    H171632   4.765   5.215   0.912  1.3232 -1.6293 -0.3277
16739TIP3    H271633   4.880   5.314   0.904  0.0662 -0.1195  0.0128
16740TIP3   OH271634   4.077   5.187  16.592  0.1796  0.0642 -0.1853
16740TIP3    H171635   4.143   5.224  16.650  0.5505  0.6369 -0.9595
16740TIP3    H271636   4.110   5.206  16.504 -0.0947 -1.2760 -0.5920
16741TIP3   OH271637   6.072   6.251   4.481 -0.0319  0.3508 -0.1769
16741TIP3    H171638   6.027   6.187   4.426  1.2000 -0.7666  0.0967
16741TIP3    H271639   6.120   6.307   4.420 -1.3204  1.1961 -0.4336
16742TIP3   OH271640   1.355   4.646   0.166 -0.3300  0.2857  0.5132
16742TIP3    H171641   1.447   4.664   0.146 -0.6192  0.1858 -0.9133
16742TIP3    H271642   1.358   4.587   0.241  0.7568  0.7840  0.8766
16743TIP3   OH271643   6.652   6.003   2.697  0.7187 -0.4779 -0.3537
16743TIP3    H171644   6.680   6.074   2.639  1.3152  0.0957  0.5994
16743TIP3    H271645   6.559   5.992   2.680  0.3657  1.3273  0.2799
16744TIP3   OH271646   4.337   0.200   2.817  0.8300 -0.3002  0.6893
16744TIP3    H171647   4.430   0.209   2.839  0.4836 -0.2486  2.1200
16744TIP3    H271648   4.311   0.116   2.854  0.5344 -0.7807 -0.5618
16745TIP3   OH271649   5.806   3.264  13.200  0.6790  0.2098  0.0243
16745TIP3    H171650   5.778   3.354  13.181  2.1800  0.9740  1.3011
16745TIP3    H271651   5.876   3.274  13.265 -0.0993 -1.9657  1.2614
16746TIP3   OH271652   5.066   5.897   5.102  0.1894  0.0856  0.5088
16746TIP3    H171653   5.077   5.992   5.094  1.5257  0.1339  2.5611
16746TIP3    H271654   5.065   5.866   5.011  2.9346  1.7393 -0.1698
16747TIP3   OH271655   0.805   3.397  11.477 -0.6557 -0.6007  0.0862
16747TIP3    H171656   0.865   3.341  11.427 -1.6538 -1.2057 -0.4510
16747TIP3    H271657   0.858   3.472  11.502  0.0855 -0.6728 -1.1997
16748TIP3   OH271658   1.302   2.293   3.198  0.2138 -0.0749  0.2417
16748TIP3    H171659   1.377   2.262   3.249  0.9575  0.0490 -0.7494
16748TIP3    H271660   1.330   2.378   3.164 -0.3756 -0.0269 -0.1275
16749TIP3   OH271661   6.550   0.884   0.458 -0.3543 -0.1936 -0.1385
16749TIP3    H171662   6.601   0.965   0.457  0.2634 -0.5848 -1.2412
16749TIP3    H271663   6.512   0.879   0.370 -0.5453 -1.0056 -0.0136
16750TIP3   OH271664   4.930   5.178   5.003  0.2773 -0.3154  0.8097
16750TIP3    H171665   4.946   5.141   5.090 -2.0281  0.2951  1.5491
16750TIP3    H271666   4.920   5.272   5.018  0.4760 -0.1295 -0.1959
16751TIP3   OH271667   1.245   6.676   4.606 -0.1263  0.4369  0.0153
16751TIP3    H171668   1.157   6.668   4.642 -0.1229  0.5949  0.0611
16751TIP3    H271669   1.298   6.615   4.657 -0.5663 -1.0137 -1.2026
16752TIP3   OH271670   0.936   4.674   5.954  0.1695  0.2575  0.3474
16752TIP3    H171671   0.881   4.750   5.935 -2.5581 -0.9015  3.2033
16752TIP3    H271672   0.987   4.699   6.031  0.0421 -0.4283  0.6619
16753TIP3   OH271673   5.384   5.488   2.343  0.1468  0.2793 -0.4127
16753TIP3    H171674   5.316   5.450   2.287 -0.1187  1.3049 -0.7982
16753TIP3    H271675   5.442   5.533   2.282 -0.1308  1.3813  0.1383
16754TIP3   OH271676   5.103   0.491  15.804  1.3285  0.2711 -0.4207
16754TIP3    H171677   5.063   0.563  15.854 -1.0754 -1.3421  0.0655
16754TIP3    H271678   5.107   0.419  15.866 -1.0729 -1.5647 -2.3137
16755TIP3   OH271679   6.570   0.432   0.287  0.2297 -1.2158  0.0809
16755TIP3    H171680   6.613   0.437   0.202  0.4020 -2.5786  0.0715
16755TIP3    H271681   6.615   0.361   0.332  0.3211 -0.3243  1.4252
16756TIP3   OH271682   4.880   1.850  12.628  0.3784 -0.0327  0.4293
16756TIP3    H171683   4.830   1.802  12.561  0.4133  0.9026 -0.2764
16756TIP3    H271684   4.914   1.782  12.686 -0.9395 -0.7430  0.3775
16757TIP3   OH271685   6.761   1.984   5.059 -0.5120 -0.2066 -0.2951
16757TIP3    H171686   6.842   2.001   5.108  0.2345 -0.3764 -1.4430
16757TIP3    H271687   6.697   2.043   5.098  0.4750  0.7924 -0.1454
16758TIP3   OH271688   3.668   0.368  13.042  0.5464 -0.5065 -0.2763
16758TIP3    H171689   3.604   0.309  13.081  1.4437 -0.4565  1.3266
16758TIP3    H271690   3.719   0.401  13.116  2.5362 -0.6615 -1.5282
16759TIP3   OH271691   5.391   4.516   5.587 -0.4711  0.1879  0.4378
16759TIP3    H171692   5.472   4.478   5.622  0.4191 -0.6184 -2.3979
16759TIP3    H271693   5.401   4.610   5.601  1.0479  0.1141 -0.0354
16760TIP3   OH271694   2.265   6.095   2.463 -0.0366  0.3825 -0.3812
16760TIP3    H171695   2.208   6.072   2.390 -0.1013  0.5223 -0.3733
16760TIP3    H271696   2.353   6.092   2.426 -0.2309  3.0767 -1.1485
16761TIP3   OH271697   0.420   2.952   1.168  0.0764 -0.0708 -0.4771
16761TIP3    H171698   0.466   2.885   1.118  2.5113  1.6081 -0.6339
16761TIP3    H271699   0.459   3.035   1.138 -2.3318  1.3517  0.2076
16762TIP3   OH271700   4.349   6.383  16.469  0.0335  0.3942  0.0976
16762TIP3    H171701   4.309   6.387  16.383 -1.4982 -0.1354  0.7736
16762TIP3    H271702   4.281   6.347  16.526  1.1795  0.2954  1.4338
16763TIP3   OH271703   4.550   4.895  16.907  0.0860 -0.4557 -0.0027
16763TIP3    H171704   4.539   4.925  16.997  0.5388 -0.7055  0.1405
16763TIP3    H271705   4.635   4.930  16.880  0.0636 -0.5898 -0.2504
16764TIP3   OH271706   5.199   5.989  16.398  0.3603  0.0857 -0.1177
16764TIP3    H171707   5.153   5.914  16.435  0.1332  0.4989  0.4514
16764TIP3    H271708   5.148   6.065  16.428  1.2285  0.5257  0.2679
16765TIP3   OH271709   4.901   1.143   2.596  0.3120 -0.5045 -0.0879
16765TIP3    H171710   4.988   1.135   2.636  0.0307  0.4910  0.7540
16765TIP3    H271711   4.879   1.054   2.569  1.4619 -0.8241 -0.0277
16766TIP3   OH271712   0.895   2.542  11.404 -0.9124 -0.0414 -0.3652
16766TIP3    H171713   0.919   2.486  11.478  1.1575 -0.1611 -1.0972
16766TIP3    H271714   0.909   2.488  11.327 -2.1751  0.3954 -0.9111
16767TIP3   OH271715   3.101   6.168   4.780  0.1667 -0.4709 -0.1328
16767TIP3    H171716   3.192   6.166   4.810  0.1139 -1.0557 -0.0093
16767TIP3    H271717   3.097   6.101   4.712 -0.9297 -2.6530  2.0114
16768TIP3   OH271718   0.482   2.352  11.712 -0.3459  0.5078 -0.0770
16768TIP3    H171719   0.572   2.319  11.708  0.2202  1.8512  1.0116
16768TIP3    H271720   0.450   2.345  11.623  0.5699 -0.7389 -0.3251
16769TIP3   OH271721   3.494   0.698   3.884 -0.3785  0.1293  0.1331
16769TIP3    H171722   3.451   0.776   3.849 -0.5122 -0.1527 -0.3320
16769TIP3    H271723   3.498   0.637   3.810  2.1577  0.6855 -0.2477
16770TIP3   OH271724   3.924   2.608   1.275 -0.0911 -0.1786 -0.5114
16770TIP3    H171725   3.880   2.559   1.344 -1.2952 -0.0307 -1.1737
16770TIP3    H271726   4.017   2.598   1.295 -0.2869 -2.9650 -0.7710
16771TIP3   OH271727   5.412   6.144  13.308  0.3812  0.2929 -0.4831
16771TIP3    H171728   5.369   6.135  13.224 -0.6166  2.3890 -0.2139
16771TIP3    H271729   5.380   6.071  13.360  1.0840 -1.0715 -1.9263
16772TIP3   OH271730   0.113   3.684   2.763 -0.5493  0.4148 -0.9122
16772TIP3    H171731   0.070   3.768   2.779  0.7998  1.2378 -1.5434
16772TIP3    H271732   0.207   3.703   2.769 -0.2416 -1.6902  2.1061
16773TIP3   OH271733   5.075   4.597   4.253 -0.2679 -0.2836  0.1020
16773TIP3    H171734   5.024   4.562   4.327 -0.8354 -0.8816 -0.5605
16773TIP3    H271735   5.020   4.580   4.177 -0.1385  1.2530 -0.3466
16774TIP3   OH271736   1.397   0.555  10.943  0.1903  0.4630 -0.5672
16774TIP3    H171737   1.368   0.621  11.006 -0.1597 -0.3637  0.1499
16774TIP3    H271738   1.424   0.481  10.997 -1.2754 -0.7263 -1.4256
16775TIP3   OH271739   0.102   6.587   2.182  0.4821  0.2765 -0.2066
16775TIP3    H171740   0.013   6.609   2.212 -0.1617 -0.7795 -1.2983
16775TIP3    H271741   0.117   6.643   2.107 -0.7627 -2.1643 -2.3580
16776TIP3   OH271742   2.468   2.456   1.870 -0.5496 -0.7574  0.2972
16776TIP3    H171743   2.393   2.515   1.885 -0.0146 -0.0956  0.4120
16776TIP3    H271744   2.449   2.379   1.923 -0.7479 -0.2414  0.9795
16777TIP3   OH271745   3.440   3.939   3.645 -0.3952 -0.4698 -0.2147
16777TIP3    H171746   3.493   4.011   3.612 -2.1737 -0.0342 -2.3031
16777TIP3    H271747   3.436   3.953   3.740  2.1968  0.1263 -0.1573
16778TIP3   OH271748   5.269   2.921  16.193  0.2403  0.2229  0.0601
16778TIP3    H171749   5.246   2.922  16.100 -0.5045 -3.1196  0.1592
16778TIP3    H271750   5.191   2.887  16.237  0.6862  1.4980  1.8972
16779TIP3   OH271751   2.158   3.412   6.481 -0.0118 -0.3240 -0.5267
16779TIP3    H171752   2.088   3.349   6.497  0.9320 -1.6600 -1.6457
16779TIP3    H271753   2.233   3.359   6.456  1.7478  1.0029  1.7026
16780TIP3   OH271754   0.282   4.259  11.706  0.0669  0.5718  0.0193
16780TIP3    H171755   0.207   4.233  11.759 -0.3192  0.9850 -0.3316
16780TIP3    H271756   0.251   4.254  11.616  0.4171  0.9001 -0.1184
16781TIP3   OH271757   1.541   6.346  14.642 -0.4764  0.0163  0.0755
16781TIP3    H171758   1.516   6.270  14.695  1.3972 -1.0791 -0.5626
16781TIP3    H271759   1.632   6.330  14.618 -0.3394  2.0155 -0.8810
16782TIP3   OH271760   6.365   3.661   5.847  0.2329  0.0544 -0.1175
16782TIP3    H171761   6.428   3.732   5.833  1.4986 -0.9537  0.3272
16782TIP3    H271762   6.410   3.602   5.908 -0.6312 -1.3346 -0.8251
16783TIP3   OH271763   4.062   1.882  13.245  0.0102 -0.3749 -0.6600
16783TIP3    H171764   4.040   1.855  13.155 -1.3469  0.8909 -0.7244
16783TIP3    H271765   4.158   1.879  13.248 -0.0057 -2.8207 -1.3874
16784TIP3   OH271766   1.936   0.060  14.388 -0.1147 -0.9995  0.5088
16784TIP3    H171767   2.025   0.055  14.423  0.0958 -3.3060 -0.2346
16784TIP3    H271768   1.948   0.062  14.293 -0.8371 -0.7843  0.4239
16785TIP3   OH271769   3.417   0.946   4.287  0.2183  0.5830 -0.7058
16785TIP3    H171770   3.449   0.863   4.323 -0.6138  0.8712  0.7409
16785TIP3    H271771   3.386   0.924   4.200  3.0322  0.0177 -1.6092
16786TIP3   OH271772   1.137   6.119  15.085  0.0062  0.4900  0.5857
16786TIP3    H171773   1.149   6.209  15.117  2.2890  0.4130  0.0860
16786TIP3    H271774   1.195   6.066  15.140  1.6676 -0.0750 -1.6101
16787TIP3   OH271775   3.203   6.072  13.968  0.0834  0.1565 -0.1227
16787TIP3    H171776   3.276   6.021  14.003  0.1508 -1.4162 -2.4253
16787TIP3    H271777   3.125   6.033  14.008  0.4300  1.3914  1.8069
16788TIP3   OH271778   4.038   5.386   1.078 -0.2375 -0.0097  0.0100
16788TIP3    H171779   4.088   5.317   1.033  0.1257  0.1120  0.2254
16788TIP3    H271780   3.948   5.354   1.077  0.1235 -1.1141  1.2634
16789TIP3   OH271781   1.733   5.097  14.229  0.3928  0.1512  0.3075
16789TIP3    H171782   1.682   5.018  14.210  0.9725  0.4693 -2.9133
16789TIP3    H271783   1.686   5.139  14.301 -1.1627 -2.0114  0.5980
16790TIP3   OH271784   1.624   0.488  10.814  0.5232 -0.6731  0.3349
16790TIP3    H171785   1.615   0.408  10.762  0.0669 -0.1268 -0.4375
16790TIP3    H271786   1.534   0.514  10.834  0.6490 -0.0014  0.0411
16791TIP3   OH271787   2.078   2.616   0.806  0.3105 -0.2482 -0.5433
16791TIP3    H171788   1.982   2.624   0.813  0.2694  0.1614 -1.4786
16791TIP3    H271789   2.091   2.532   0.762  0.4688 -1.4046  1.6367
16792TIP3   OH271790   1.869   3.552  12.574  0.0379 -0.1334 -0.6847
16792TIP3    H171791   1.848   3.645  12.586 -0.2481 -0.0965 -1.4867
16792TIP3    H271792   1.818   3.525  12.498 -0.2751 -1.0833 -0.1562
16793TIP3   OH271793   2.811   1.356  11.491 -0.6976 -0.2927  0.1671
16793TIP3    H171794   2.764   1.324  11.414  1.0876 -2.5107 -0.0512
16793TIP3    H271795   2.843   1.276  11.534  0.4427  1.0420  1.8325
16794TIP3   OH271796   4.068   4.154   2.409 -0.1883 -0.1420 -0.3198
16794TIP3    H171797   4.056   4.241   2.371  0.9534  0.9411  1.7094
16794TIP3    H271798   4.103   4.101   2.337  0.3417  1.4152 -1.2402
16795TIP3   OH271799   3.108   6.678  17.212 -0.4919 -0.1073 -0.1250
16795TIP3    H171800   3.143   6.759  17.249 -2.4082  0.6266  0.1548
16795TIP3    H271801   3.083   6.701  17.123 -0.7165 -0.4818 -0.1620
16796TIP3   OH271802   2.496   3.396  12.948 -0.3938 -0.3521 -0.2366
16796TIP3    H171803   2.487   3.479  12.902  0.1317 -0.3097 -0.2616
16796TIP3    H271804   2.590   3.387  12.964 -0.4219 -1.0555 -0.4446
16797TIP3   OH271805   1.931   1.455   2.736 -0.2342  0.1827  0.4872
16797TIP3    H171806   1.858   1.400   2.761 -0.1750  0.3074  0.9611
16797TIP3    H271807   1.963   1.418   2.654 -1.8812  1.1448 -0.6167
16798TIP3   OH271808   1.364   6.356  12.730  0.1838 -0.6220 -0.4377
16798TIP3    H171809   1.368   6.340  12.636 -0.2668  2.3959 -1.0155
16798TIP3    H271810   1.364   6.268  12.769 -1.7357 -1.9868 -3.3061
16799TIP3   OH271811   1.403   3.696   1.790  0.0927  0.0505 -0.4139
16799TIP3    H171812   1.443   3.612   1.811 -2.7641 -1.2530 -0.0627
16799TIP3    H271813   1.427   3.752   1.864  1.5001 -0.5912 -0.3567
16800TIP3   OH271814   2.216   4.261  15.293  0.4104 -0.3775  0.1498
16800TIP3    H171815   2.211   4.356  15.285  0.5639 -0.1440  2.6026
16800TIP3    H271816   2.127   4.231  15.273  0.0543  0.3842  0.5862
16801TIP3   OH271817   3.250   5.876   4.236 -0.3363  0.7517 -0.0274
16801TIP3    H171818   3.182   5.931   4.276 -1.9762  0.1529 -1.8939
16801TIP3    H271819   3.323   5.936   4.221 -1.7412  2.2363 -1.1280
16802TIP3   OH271820   4.450   1.124  16.067  0.8092  0.0228 -0.2251
16802TIP3    H171821   4.413   1.051  16.117  0.7339  0.6230  0.6191
16802TIP3    H271822   4.443   1.097  15.976 -1.1716 -0.1440 -0.0492
16803TIP3   OH271823   1.796   0.460   4.052 -0.2501  0.4768  0.0569
16803TIP3    H171824   1.820   0.388   4.111 -0.3990 -2.1613 -2.9820
16803TIP3    H271825   1.855   0.532   4.077  1.1166 -1.2517  2.0188
16804TIP3   OH271826   1.049   1.393   1.533 -0.4695  0.1360  0.2399
16804TIP3    H171827   1.053   1.479   1.491 -1.8257  0.1895  0.2038
16804TIP3    H271828   1.128   1.348   1.502 -0.1839  1.0591 -0.4057
16805TIP3   OH271829   2.613   5.283   5.240  1.1483  0.6543 -0.0005
16805TIP3    H171830   2.623   5.376   5.258 -0.2565  0.7862  0.1194
16805TIP3    H271831   2.535   5.277   5.184  0.3305 -0.5892  1.2449
16806TIP3   OH271832   0.570   4.386   5.811  0.1219 -0.4892 -0.1666
16806TIP3    H171833   0.647   4.380   5.755  2.2459 -0.1159  2.6099
16806TIP3    H271834   0.599   4.437   5.887 -3.4342  1.4310  0.0194
16807TIP3   OH271835   3.984   0.731   0.630  0.1703 -0.4184 -0.0705
16807TIP3    H171836   3.960   0.779   0.550 -1.2990  0.0979  0.6455
16807TIP3    H271837   4.031   0.795   0.683 -0.5816 -0.1563  0.2971
16808TIP3   OH271838   6.705   2.190   0.210  1.0660  0.0751 -0.2483
16808TIP3    H171839   6.713   2.199   0.305 -1.0238  1.3838 -0.1710
16808TIP3    H271840   6.621   2.230   0.189  2.7222  2.2649 -2.9814
16809TIP3   OH271841   3.863   0.562   1.289 -0.5756 -0.2971  0.0987
16809TIP3    H171842   3.910   0.510   1.223  0.1082 -1.0587  1.1762
16809TIP3    H271843   3.908   0.646   1.288  0.2584 -0.7267  0.4829
16810TIP3   OH271844   0.504   0.695   4.309  0.5677  0.0213 -0.5989
16810TIP3    H171845   0.568   0.696   4.238  0.6155  4.6649 -0.6338
16810TIP3    H271846   0.553   0.723   4.386 -0.6658  0.1342  0.1488
16811TIP3   OH271847   1.372   3.202  13.911 -0.1189  0.1194  0.3840
16811TIP3    H171848   1.398   3.206  13.818  0.2306 -0.7996  0.4336
16811TIP3    H271849   1.279   3.180  13.909 -0.8840  3.2372  0.2051
16812TIP3   OH271850   1.776   1.257  14.488 -0.2607 -0.1115  0.5879
16812TIP3    H171851   1.849   1.253  14.426  0.7390  0.5899  1.7055
16812TIP3    H271852   1.746   1.348  14.484  0.9306  0.3802  2.3925
16813TIP3   OH271853   3.589   4.906  11.528 -0.1751  0.1242 -0.0893
16813TIP3    H171854   3.531   4.979  11.549  0.2595  0.4450 -0.0068
16813TIP3    H271855   3.677   4.945  11.524  0.0968 -0.4454  0.2639
16814TIP3   OH271856   2.774   0.759  12.857  0.7324  0.9399 -0.0714
16814TIP3    H171857   2.691   0.722  12.827  0.8648 -1.6524  2.5733
16814TIP3    H271858   2.749   0.822  12.924  0.9542 -1.1779  2.0366
16815TIP3   OH271859   1.716   5.555   0.855  0.0793 -0.3198  0.3713
16815TIP3    H171860   1.793   5.547   0.911 -0.3284 -1.0570  0.8429
16815TIP3    H271861   1.751   5.575   0.768  0.7029  0.9446  0.9094
16816TIP3   OH271862   4.071   1.656   0.172 -0.0642  0.5289 -0.2272
16816TIP3    H171863   4.073   1.731   0.231  1.1993 -1.0128  1.7397
16816TIP3    H271864   4.156   1.659   0.127 -0.0894  0.3864 -0.2834
16817TIP3   OH271865   2.623   1.359  15.020  0.3203 -0.2740  0.0221
16817TIP3    H171866   2.659   1.274  15.042 -1.0934 -0.6936  0.7934
16817TIP3    H271867   2.699   1.412  14.995  0.9671 -2.4830 -2.9822
16818TIP3   OH271868   5.491   5.232   1.979  0.1762 -0.4283  0.2702
16818TIP3    H171869   5.404   5.263   2.003  0.3327  1.3119 -1.2355
16818TIP3    H271870   5.481   5.198   1.890  1.5706  2.4583 -1.0493
16819TIP3   OH271871   5.165   0.228   5.523 -0.0217  0.1855 -0.1919
16819TIP3    H171872   5.075   0.233   5.556 -0.4860  2.1387 -1.6655
16819TIP3    H271873   5.180   0.313   5.481  3.0975  0.5075  1.4498
16820TIP3   OH271874   3.796   2.492   1.733 -0.0447 -0.3195  0.1192
16820TIP3    H171875   3.765   2.429   1.798  1.1869 -1.0199  0.0291
16820TIP3    H271876   3.811   2.573   1.782  2.2160 -1.2288  0.9888
16821TIP3   OH271877   3.219   2.527  14.602 -0.1266 -0.4898 -0.4066
16821TIP3    H171878   3.132   2.511  14.637  0.0126  1.3685  0.8718
16821TIP3    H271879   3.217   2.619  14.574  1.8788  0.0381  1.0918
16822TIP3   OH271880   3.539   1.521  13.952 -0.1032  0.0677  0.1598
16822TIP3    H171881   3.465   1.561  13.999  0.2228 -1.6286  2.1909
16822TIP3    H271882   3.601   1.497  14.021  0.9192 -1.4361 -1.2428
16823TIP3   OH271883   2.242   0.552  16.240  0.2743 -0.1130 -0.0201
16823TIP3    H171884   2.167   0.493  16.235  0.7870 -0.9772  1.7980
16823TIP3    H271885   2.318   0.493  16.238  0.8792  0.6912 -0.9705
16824TIP3   OH271886   6.771   1.687  12.946 -1.3616  0.3568 -0.1286
16824TIP3    H171887   6.811   1.772  12.926 -1.3230  1.1613  3.0509
16824TIP3    H271888   6.838   1.623  12.923 -0.5885  1.3189 -0.6142
16825TIP3   OH271889   6.752   4.997  11.450 -0.0077  0.8164  0.8101
16825TIP3    H171890   6.839   4.984  11.488 -0.2407  2.0906  1.7725
16825TIP3    H271891   6.770   5.039  11.365  0.2547  2.2199  1.5506
16826TIP3   OH271892   4.755   2.255   2.519 -0.0680 -0.0157  0.1514
16826TIP3    H171893   4.734   2.249   2.612 -0.6383 -1.3000 -0.0404
16826TIP3    H271894   4.706   2.183   2.479  1.2094 -0.2956 -0.9469
16827TIP3   OH271895   2.169   2.073   4.253 -0.2108  0.0434  0.3123
16827TIP3    H171896   2.112   2.109   4.321  1.8984 -0.1469  2.2280
16827TIP3    H271897   2.163   1.978   4.264  1.0081  0.0389  0.9764
16828TIP3   OH271898   0.786   3.695   1.156  0.1142  0.1377 -0.4850
16828TIP3    H171899   0.880   3.706   1.168  0.3841 -1.1108 -1.3499
16828TIP3    H271900   0.760   3.635   1.226 -0.1528  0.9569  0.1241
16829TIP3   OH271901   1.036   0.787  16.010  0.0217  0.3189  0.3939
16829TIP3    H171902   0.968   0.828  15.957  0.6423  0.7590 -0.0626
16829TIP3    H271903   1.007   0.696  16.019 -0.6424  0.5084  0.2283
16830TIP3   OH271904   1.061   1.769   4.374  0.2441  0.9282 -0.7103
16830TIP3    H171905   0.992   1.829   4.344 -0.3099 -0.1508 -1.6344
16830TIP3    H271906   1.074   1.710   4.300  1.6647  0.6825 -0.2663
16831TIP3   OH271907   0.442   3.371  16.311 -0.3681  0.7951 -0.2441
16831TIP3    H171908   0.473   3.373  16.402 -0.8236  1.4348 -0.0967
16831TIP3    H271909   0.348   3.386  16.318 -0.7892 -1.4654 -0.6744
16832TIP3   OH271910   1.330   6.526   0.516  0.2786  0.4606  0.2047
16832TIP3    H171911   1.414   6.566   0.492  2.1234 -0.7328  4.1933
16832TIP3    H271912   1.268   6.598   0.518  1.7116  1.7400 -0.6514
16833TIP3   OH271913   5.623   1.325   2.258 -0.1984 -0.6249 -0.3612
16833TIP3    H171914   5.682   1.259   2.295  0.2337  0.5326  1.1072
16833TIP3    H271915   5.595   1.376   2.334 -0.1792  1.1398 -1.5032
16834TIP3   OH271916   0.963   4.619   1.682 -0.2969 -0.3289  0.3681
16834TIP3    H171917   0.993   4.690   1.625 -1.5428 -0.2848 -0.2653
16834TIP3    H271918   1.030   4.552   1.674 -0.6050 -0.4474 -1.4151
16835TIP3   OH271919   1.985   4.694  11.760  0.1222  0.3807 -0.0519
16835TIP3    H171920   1.979   4.607  11.720 -3.1168 -0.0336  1.1603
16835TIP3    H271921   1.939   4.752  11.698  0.3472  0.8396  0.2050
16836TIP3   OH271922   0.582   0.762  13.878  0.0936  0.1352  0.1729
16836TIP3    H171923   0.529   0.791  13.952  0.7516 -1.5249  1.3316
16836TIP3    H271924   0.563   0.825  13.808  1.0429  2.9594  2.3649
16837TIP3   OH271925   4.430   5.053   3.955 -0.5654 -0.4734 -0.4354
16837TIP3    H171926   4.478   5.069   3.873  1.2380 -0.7255  0.5326
16837TIP3    H271927   4.458   4.965   3.982 -0.9762 -0.2962  0.5701
16838TIP3   OH271928   4.489   5.469   1.891 -0.0780 -0.0564  0.1766
16838TIP3    H171929   4.489   5.535   1.960  2.2443 -0.5436  0.7182
16838TIP3    H271930   4.523   5.514   1.814  2.4378 -0.8016  0.8016
16839TIP3   OH271931   1.262   4.715  16.818  0.4379  0.1573  0.3268
16839TIP3    H171932   1.169   4.692  16.828  0.2301  1.2149  0.9077
16839TIP3    H271933   1.265   4.810  16.833  1.5981  0.1564  0.1660
16840TIP3   OH271934   5.806   6.663   4.746  0.2711 -0.1740 -0.5698
16840TIP3    H171935   5.867   6.593   4.720  0.4538 -0.1188 -0.2920
16840TIP3    H271936   5.849   6.705   4.820 -0.7391 -1.0174  0.4986
16841TIP3   OH271937   2.473   1.865   5.200  0.5481  0.2283  0.1753
16841TIP3    H171938   2.410   1.861   5.271  0.1826  0.0065 -0.1561
16841TIP3    H271939   2.473   1.776   5.163  0.8928  0.2848  0.0353
16842TIP3   OH271940   3.928   1.670  16.297 -0.0607  0.3319 -0.0139
16842TIP3    H171941   3.910   1.578  16.283 -0.5518  0.5633 -0.9356
16842TIP3    H271942   3.902   1.687  16.387  1.8559 -0.8741  0.7874
16843TIP3   OH271943   2.822   3.053   2.110 -0.6430  0.3415  0.0266
16843TIP3    H171944   2.843   3.100   2.029 -0.9578 -0.6854 -0.6544
16843TIP3    H271945   2.897   3.069   2.168  0.5266 -0.6259 -1.2047
16844TIP3   OH271946   3.260   5.443   0.496  0.0873  0.2552 -0.4120
16844TIP3    H171947   3.291   5.404   0.415 -0.1832 -1.4695  0.3051
16844TIP3    H271948   3.208   5.375   0.538 -1.5613  1.8370  0.2016
16845TIP3   OH271949   3.032   6.749  13.593  0.5732 -0.4663 -0.9380
16845TIP3    H171950   3.014   6.657  13.574 -2.4169 -0.0936 -0.1253
16845TIP3    H271951   2.965   6.797  13.545  0.1323  1.0995  1.2013
16846TIP3   OH271952   3.038   1.117   6.055  0.2542  0.3682  0.3816
16846TIP3    H171953   3.105   1.084   6.115 -1.1542 -0.9918  1.2505
16846TIP3    H271954   2.981   1.170   6.111  0.8555  1.9154 -0.4439
16847TIP3   OH271955   2.872   1.835  13.902  0.3530 -0.3018 -0.0230
16847TIP3    H171956   2.809   1.817  13.832  1.0909 -0.4902 -0.6334
16847TIP3    H271957   2.929   1.903  13.867  2.1603 -2.0219 -0.4974
16848TIP3   OH271958   0.322   3.953   3.893 -0.1348 -0.5505  0.9355
16848TIP3    H171959   0.343   3.905   3.813  2.3263  2.8930 -0.6140
16848TIP3    H271960   0.229   3.976   3.883 -0.1832 -1.2690 -0.3326
16849TIP3   OH271961   5.606   3.589  15.347  0.0952 -0.7783 -0.4293
16849TIP3    H171962   5.662   3.545  15.411 -2.1634 -1.8170  0.9379
16849TIP3    H271963   5.540   3.523  15.325 -1.3650  0.8304 -0.9600
16850TIP3   OH271964   1.739   0.708  11.489  0.2332 -0.1732  0.0295
16850TIP3    H171965   1.758   0.780  11.550 -1.6177  0.0334  0.3862
16850TIP3    H271966   1.825   0.678  11.461  1.0576  1.7635  0.3795
16851TIP3   OH271967   6.244   1.274  16.125  0.4978  0.1394 -0.1340
16851TIP3    H171968   6.304   1.262  16.198  1.5508 -0.2751 -1.0426
16851TIP3    H271969   6.216   1.185  16.102  3.0786 -0.1339 -2.5751
16852TIP3   OH271970   0.661   0.182  14.003  0.0633  0.2567  0.4816
16852TIP3    H171971   0.625   0.104  14.045  0.1142  0.1350  0.3020
16852TIP3    H271972   0.672   0.156  13.911  0.3960  0.3640  0.4902
16853TIP3   OH271973   5.676   3.571  15.821 -0.0493  0.4936 -0.4052
16853TIP3    H171974   5.663   3.495  15.878 -1.6934  1.2347  0.2436
16853TIP3    H271975   5.734   3.539  15.752  0.8501 -0.8103  0.9074
16854TIP3   OH271976   1.613   0.800  13.917 -0.1867 -0.6309  1.0860
16854TIP3    H171977   1.619   0.882  13.967 -4.2536  1.6248 -1.8021
16854TIP3    H271978   1.685   0.806  13.853 -1.5143  1.6662 -0.2865
16855TIP3   OH271979   3.440   4.683  15.762 -0.6551 -0.2102 -0.1073
16855TIP3    H171980   3.349   4.650  15.764 -0.2834 -1.3847 -1.4379
16855TIP3    H271981   3.451   4.716  15.673  0.1162  0.2789  0.1694
16856TIP3   OH271982   1.496   2.176   5.840 -0.1461 -1.0053  0.4690
16856TIP3    H171983   1.554   2.102   5.858 -1.2590 -2.4620 -1.6884
16856TIP3    H271984   1.492   2.224   5.923  2.7967 -1.7936  1.1225
16857TIP3   OH271985   4.170   5.041   2.243 -0.1227  0.1730  0.3535
16857TIP3    H171986   4.087   5.078   2.211 -0.8643 -0.1688  1.8402
16857TIP3    H271987   4.158   4.946   2.237 -0.2261  0.1088  1.5290
16858TIP3   OH271988   5.733   2.843  15.627 -0.2466 -0.2377 -0.2300
16858TIP3    H171989   5.696   2.775  15.571 -1.0526 -0.0593  0.0773
16858TIP3    H271990   5.721   2.810  15.717 -0.5844  0.2774 -0.0834
16859TIP3   OH271991   3.920   2.229  14.607  0.2264  0.9257  0.6685
16859TIP3    H171992   3.890   2.288  14.676  2.2396  1.9143  0.7489
16859TIP3    H271993   3.914   2.282  14.527  2.4142  1.4044  0.7977
16860TIP3   OH271994   2.462   5.771   1.005 -0.1389  0.5592  0.0241
16860TIP3    H171995   2.396   5.823   1.052  0.0946  1.2055 -0.3586
16860TIP3    H271996   2.536   5.831   0.994  0.2003  0.0843 -0.2603
16861TIP3   OH271997   0.956   0.508  16.173  0.7870 -0.7659 -0.0422
16861TIP3    H171998   0.980   0.447  16.242  1.0637 -0.8897 -0.2449
16861TIP3    H271999   1.032   0.509  16.115  0.4729 -0.8215 -0.4570
16862TIP3   OH272000   2.459   0.803   1.073  0.5239 -0.6437  0.8475
16862TIP3    H172001   2.547   0.774   1.049 -0.7704 -3.7175 -0.4881
16862TIP3    H272002   2.431   0.857   0.999  0.4226 -1.5723  0.2063
16863TIP3   OH272003   6.456   4.200   4.480 -0.1438  0.3810 -0.7777
16863TIP3    H172004   6.543   4.240   4.476  0.9903 -2.0243 -1.2577
16863TIP3    H272005   6.437   4.194   4.573  0.1164  1.1110 -0.6748
16864TIP3   OH272006   0.392   1.527  17.162 -0.3220  0.0803 -0.6530
16864TIP3    H172007   0.364   1.452  17.214  1.8513 -0.3582 -0.0681
16864TIP3    H272008   0.481   1.505  17.134 -0.7117  1.1824 -2.8918
16865TIP3   OH272009   6.096   0.588  12.888 -0.6529 -0.4206  0.6035
16865TIP3    H172010   6.108   0.674  12.846 -1.9214 -0.2374  0.5787
16865TIP3    H272011   6.182   0.548  12.886  0.2969  1.4471  1.8963
16866TIP3   OH272012   2.540   3.597  15.085 -0.0039  0.0812  0.2698
16866TIP3    H172013   2.454   3.637  15.072 -0.5071 -1.1053 -0.1305
16866TIP3    H272014   2.588   3.660  15.140 -0.3128  1.8518 -1.4147
16867TIP3   OH272015   1.555   6.351  12.095 -0.3318 -0.0234 -0.0475
16867TIP3    H172016   1.602   6.312  12.022 -0.5396  1.5416 -1.0406
16867TIP3    H272017   1.493   6.284  12.123  0.7425 -1.1534 -0.3700
16868TIP3   OH272018   3.455   5.668  12.748 -0.4460 -0.1773  0.1518
16868TIP3    H172019   3.526   5.607  12.727  0.5789  0.5811  1.3270
16868TIP3    H272020   3.375   5.622  12.720  0.3576 -1.7627  0.3732
16869TIP3   OH272021   2.463   3.243   3.093 -0.2394  0.1588 -0.3792
16869TIP3    H172022   2.408   3.171   3.124 -0.1436 -0.1873 -1.0072
16869TIP3    H272023   2.540   3.201   3.055  0.6369  0.6490  0.7959
16870TIP3   OH272024   5.748   5.285  17.071  0.1385 -0.6786 -0.7244
16870TIP3    H172025   5.730   5.358  17.012  0.5738  0.3038  0.3488
16870TIP3    H272026   5.661   5.256  17.100 -0.0740 -1.1403 -1.7945
16871TIP3   OH272027   3.874   3.559   2.720  0.7926  0.1736 -0.4078
16871TIP3    H172028   3.811   3.628   2.700  2.2535  1.6290 -0.0904
16871TIP3    H272029   3.956   3.590   2.682  1.0997 -2.1952 -1.7773
16872TIP3   OH272030   3.828   5.231   1.844 -0.1737 -0.0334  0.1341
16872TIP3    H172031   3.843   5.138   1.824 -0.3016 -0.1550  0.6099
16872TIP3    H272032   3.893   5.277   1.790  1.1074 -0.4979  1.2452
16873TIP3   OH272033   4.905   2.649  13.425  0.3764  0.3894  0.2352
16873TIP3    H172034   4.955   2.644  13.506  0.9391 -0.4289 -0.1635
16873TIP3    H272035   4.963   2.693  13.363  0.3781 -0.0129 -0.0514
16874TIP3   OH272036   3.153   6.658   0.491 -0.0292  0.0872 -0.5396
16874TIP3    H172037   3.163   6.598   0.418 -0.7624 -2.7181  1.5978
16874TIP3    H272038   3.061   6.649   0.518  0.5106  0.2183  1.4365
16875TIP3   OH272039   6.552   4.821  15.466  0.1506  0.5828  0.3498
16875TIP3    H172040   6.646   4.813  15.474  0.2680  0.7315 -0.7870
16875TIP3    H272041   6.531   4.782  15.381 -0.6777  1.4805  0.1297
16876TIP3   OH272042   1.309   2.503   1.810 -0.6100  0.2152 -0.6621
16876TIP3    H172043   1.230   2.557   1.813 -0.3675  0.5888 -0.9043
16876TIP3    H272044   1.294   2.435   1.875 -1.7314 -0.5569 -1.7202
16877TIP3   OH272045   2.921   6.294   0.343  0.8573  0.5295  0.1289
16877TIP3    H172046   2.951   6.330   0.426  1.9136 -0.3767  0.1486
16877TIP3    H272047   2.892   6.205   0.364 -3.0373  1.7252  0.3529
16878TIP3   OH272048   0.431   5.972  11.207 -0.2193  0.5204  0.7083
16878TIP3    H172049   0.425   6.065  11.184  1.9346 -0.0805 -2.6386
16878TIP3    H272050   0.341   5.941  11.207 -0.7386  1.9682 -1.1826
16879TIP3   OH272051   3.064   6.621   2.364  0.6326  0.1068 -0.1538
16879TIP3    H172052   3.117   6.676   2.306 -0.3338  0.3310 -0.8277
16879TIP3    H272053   3.020   6.683   2.422 -0.4619  0.0496 -0.9164
16880TIP3   OH272054   5.617   5.896  15.083 -0.2047 -0.0200 -0.4723
16880TIP3    H172055   5.583   5.864  15.000 -0.6112 -0.5191 -0.1150
16880TIP3    H272056   5.615   5.820  15.141  1.2396  0.0070 -0.3602
16881TIP3   OH272057   2.339   2.928  15.053 -0.0566 -0.2740  0.2943
16881TIP3    H172058   2.284   2.898  14.980 -2.0502  0.6804  1.3511
16881TIP3    H272059   2.355   2.849  15.105  1.5635 -1.0035 -1.2591
16882TIP3   OH272060   1.920   5.822   4.304 -0.1037  0.8175  0.3704
16882TIP3    H172061   1.894   5.730   4.294  1.4818  0.4481 -0.4421
16882TIP3    H272062   1.979   5.839   4.231  2.1759  1.5281  2.3010
16883TIP3   OH272063   4.242   5.556  13.367  0.0794  0.6715  0.4075
16883TIP3    H172064   4.176   5.567  13.436  1.2925  1.0785  1.5268
16883TIP3    H272065   4.225   5.468  13.333 -1.6076  1.1037  0.0570
16884TIP3   OH272066   1.490   3.758   6.481  0.6583  0.4112 -0.1516
16884TIP3    H172067   1.483   3.786   6.390 -0.8700 -1.5421 -0.6729
16884TIP3    H272068   1.445   3.825   6.531 -1.2215 -0.0452 -1.1743
16885TIP3   OH272069   6.265   5.944  16.639  1.0536  0.3211 -0.3372
16885TIP3    H172070   6.290   6.002  16.711  0.8672 -0.6302  0.5050
16885TIP3    H272071   6.345   5.894  16.620  0.5468 -0.8226  0.5383
16886TIP3   OH272072   1.873   3.400  15.052  0.0907 -0.3813  0.3563
16886TIP3    H172073   1.955   3.357  15.030 -0.0305 -0.4508  0.0353
16886TIP3    H272074   1.828   3.410  14.968  0.0001  0.1227  0.4618
16887TIP3   OH272075   1.307   5.347   5.992  0.0921 -0.2238 -0.2356
16887TIP3    H172076   1.269   5.424   6.035 -0.0548 -0.4010 -0.0423
16887TIP3    H272077   1.359   5.382   5.920  0.9548  0.1358  0.5487
16888TIP3   OH272078   1.751   5.042   6.518 -0.1046 -0.4322 -0.6811
16888TIP3    H172079   1.724   5.133   6.506  1.1280 -0.3524 -3.3502
16888TIP3    H272080   1.835   5.048   6.563 -1.4655 -0.4112  1.9155
16889TIP3   OH272081   6.640   3.078  17.065  0.3551  0.0610  0.2136
16889TIP3    H172082   6.571   3.145  17.066  0.7940  0.5207  0.9866
16889TIP3    H272083   6.619   3.023  16.990 -0.4413  0.6256  0.0074
16890TIP3   OH272084   4.178   1.034  11.400 -0.1909  0.1209 -0.2112
16890TIP3    H172085   4.106   0.973  11.416 -0.4454  0.6042  0.5206
16890TIP3    H272086   4.180   1.090  11.478  1.7676 -0.6745  0.3345
16891TIP3   OH272087   5.261   2.733  14.770 -0.8099  0.3821  0.0206
16891TIP3    H172088   5.224   2.771  14.690 -1.2553 -0.5410 -0.2116
16891TIP3    H272089   5.336   2.790  14.790 -1.7056  1.6185 -0.0999
16892TIP3   OH272090   4.364   2.696  14.160 -0.0438  0.2478  0.5319
16892TIP3    H172091   4.357   2.629  14.228 -0.0204  0.8233  1.1068
16892TIP3    H272092   4.279   2.739  14.159  0.0980  0.5340  0.5110
16893TIP3   OH272093   4.139   0.413   5.833  0.1015 -0.3219 -0.6037
16893TIP3    H172094   4.215   0.442   5.884 -1.6310  0.2649  1.6946
16893TIP3    H272095   4.134   0.319   5.850 -0.5881 -0.0947  0.4960
16894TIP3   OH272096   1.547   3.463   1.861 -0.8206  0.1329  0.9972
16894TIP3    H172097   1.561   3.469   1.955  0.1862  1.8401  0.7499
16894TIP3    H272098   1.565   3.371   1.840 -0.7673 -0.1916  2.4161
16895TIP3   OH272099   1.884   3.094   5.765  0.0526  0.0996  0.3123
16895TIP3    H172100   1.916   3.105   5.855  1.1632 -3.9731  0.5222
16895TIP3    H272101   1.789   3.103   5.772  0.2289  1.1383  1.6330
16896TIP3   OH272102   6.318   6.414  14.573  0.6203 -0.2504  0.2607
16896TIP3    H172103   6.376   6.341  14.551  2.9614  1.1012  1.7805
16896TIP3    H272104   6.365   6.492  14.546 -1.7030  0.7744 -1.0123
16897TIP3   OH272105   3.974   2.648  17.054 -0.1045  0.0607  0.4159
16897TIP3    H172106   3.890   2.661  17.098  0.1234 -0.9438  1.1589
16897TIP3    H272107   4.019   2.582  17.107  0.9508  0.2372 -0.2567
16898TIP3   OH272108   2.088   6.160  12.227 -0.1196  0.7327 -0.1073
16898TIP3    H172109   2.072   6.079  12.179  1.1315  0.1284  0.4619
16898TIP3    H272110   2.035   6.225  12.183 -2.3827 -0.7220  0.3843
16899TIP3   OH272111   1.794   6.618  16.756 -0.3428  0.0915 -0.0255
16899TIP3    H172112   1.717   6.563  16.769  0.1517 -1.1021 -1.8661
16899TIP3    H272113   1.768   6.681  16.689 -1.0691  2.4877  2.4405
16900TIP3   OH272114   2.576   3.002   2.218  0.0354 -0.2303 -0.3469
16900TIP3    H172115   2.669   3.023   2.211  0.0168 -0.0825 -0.1527
16900TIP3    H272116   2.535   3.083   2.247  0.0858 -0.7761  1.3282
16901TIP3   OH272117   6.770   5.906  13.355  0.3113  0.7616 -0.2495
16901TIP3    H172118   6.795   5.997  13.374 -1.0470  1.2495 -0.7011
16901TIP3    H272119   6.808   5.888  13.270  0.1965  1.0784 -0.3696
16902TIP3   OH272120   3.912   5.176   0.721  0.0360 -0.0176  0.5863
16902TIP3    H172121   3.893   5.200   0.630  0.5668 -0.0564  0.4594
16902TIP3    H272122   3.974   5.243   0.750  0.0656 -0.1558  0.8357
16903TIP3   OH272123   1.188   0.558  13.766 -0.1016 -0.1095  0.8654
16903TIP3    H172124   1.140   0.546  13.683  0.1984 -0.5188  0.7504
16903TIP3    H272125   1.259   0.618  13.744  3.5401 -4.6933 -0.6089
16904TIP3   OH272126   5.432   4.199  13.823 -0.0946 -0.3282 -0.3356
16904TIP3    H172127   5.451   4.280  13.871 -1.0106  0.6033 -1.5248
16904TIP3    H272128   5.355   4.163  13.868  1.2498 -1.4051  1.2005
16905TIP3   OH272129   2.855   6.553  13.377  0.3240 -0.0313  0.1072
16905TIP3    H172130   2.876   6.501  13.455  0.2702 -0.2747 -0.0422
16905TIP3    H272131   2.819   6.635  13.412 -1.2037 -0.7658  0.3229
16906TIP3   OH272132   1.055   3.524  10.529 -0.4407  0.0371  0.0632
16906TIP3    H172133   1.139   3.491  10.562 -0.9028 -1.1811  0.0385
16906TIP3    H272134   1.065   3.619  10.530  0.6159 -0.0723  0.9218
16907TIP3   OH272135   2.374   6.219   2.682 -0.7154 -0.1676  0.3019
16907TIP3    H172136   2.447   6.262   2.638 -0.0017 -1.9376 -0.3074
16907TIP3    H272137   2.313   6.198   2.612 -1.1560  0.0513  0.6217
16908TIP3   OH272138   5.440   6.413  15.177 -0.1733  0.4229  0.2348
16908TIP3    H172139   5.502   6.349  15.144 -1.2109 -2.0751  2.9610
16908TIP3    H272140   5.491   6.494  15.185  1.3196 -0.1638 -2.6158
16909TIP3   OH272141   3.766   2.470  13.537  0.1633  0.0002  0.1135
16909TIP3    H172142   3.849   2.492  13.579 -0.9862  0.9731  1.8939
16909TIP3    H272143   3.758   2.375  13.548  1.0010 -0.0894 -0.0169
16910TIP3   OH272144   6.649   5.509   6.435 -0.0728 -0.2947 -0.2061
16910TIP3    H172145   6.573   5.512   6.376 -1.3390  0.7253  1.4357
16910TIP3    H272146   6.632   5.434   6.492  0.0539  0.0514  0.2884
16911TIP3   OH272147   4.300   0.590  14.588  0.4138  0.4858 -0.0110
16911TIP3    H172148   4.362   0.627  14.526  1.7083 -0.5760  0.6237
16911TIP3    H272149   4.354   0.551  14.657 -0.9211 -1.1696  0.1573
16912TIP3   OH272150   3.285   1.688   0.138 -0.6475  0.6281  0.2625
16912TIP3    H172151   3.303   1.609   0.190 -0.1722  0.9282  0.5590
16912TIP3    H272152   3.245   1.749   0.199 -0.8613  0.6782  0.0734
16913TIP3   OH272153   6.112   2.941   4.185  0.6996  0.6633 -0.2535
16913TIP3    H172154   6.060   2.999   4.241  0.0175 -0.1325 -0.0629
16913TIP3    H272155   6.203   2.965   4.204  0.4324  1.4452  0.0694
16914TIP3   OH272156   1.496   1.261  15.705  0.3338  0.5939  0.0302
16914TIP3    H172157   1.546   1.189  15.666  1.7351  1.3801  0.3259
16914TIP3    H272158   1.518   1.337  15.651 -0.6928  0.9112  0.0599
16915TIP3   OH272159   6.253   1.599   0.654 -0.5959 -0.3390 -0.0152
16915TIP3    H172160   6.330   1.599   0.710  0.0922  1.7043 -0.8979
16915TIP3    H272161   6.183   1.561   0.709  0.8575 -1.5994  0.9980
16916TIP3   OH272162   4.917   5.422  14.064 -0.6297 -0.1064 -0.4652
16916TIP3    H172163   4.923   5.440  13.970  0.8001 -0.1945 -0.4028
16916TIP3    H272164   4.873   5.499  14.100 -3.3443 -1.1119 -1.5088
16917TIP3   OH272165   3.486   3.983  14.264  0.2616 -0.8786 -0.4963
16917TIP3    H172166   3.534   3.996  14.346 -1.1391  1.3782  0.0059
16917TIP3    H272167   3.413   3.926  14.288  0.3750 -0.9761 -0.3801
16918TIP3   OH272168   4.002   3.130   6.549 -0.0565  0.6907  0.2214
16918TIP3    H172169   4.074   3.073   6.524 -0.8493  0.7747 -2.4574
16918TIP3    H272170   3.937   3.072   6.587  0.0489  0.1165 -0.4627
16919TIP3   OH272171   1.055   4.996   4.845  0.0672  0.0630 -0.3217
16919TIP3    H172172   1.127   5.058   4.832 -0.5943  0.3432 -3.0206
16919TIP3    H272173   1.072   4.926   4.782 -1.1463 -0.6820  0.1584
16920TIP3   OH272174   1.517   0.910  13.188  0.5454  0.1917 -0.2066
16920TIP3    H172175   1.443   0.860  13.155  0.9343  0.0700 -0.9237
16920TIP3    H272176   1.479   0.989  13.224  0.1006  0.3374 -0.9777
16921TIP3   OH272177   0.832   0.809  12.834  0.5973 -0.5880  0.2167
16921TIP3    H172178   0.869   0.749  12.898  1.9196  0.5703  0.5654
16921TIP3    H272179   0.764   0.856  12.883  1.1779 -0.1444  0.6073
16922TIP3   OH272180   1.969   4.785  16.504 -0.0495  0.1237 -0.8503
16922TIP3    H172181   2.027   4.857  16.528  0.0780 -0.7414  1.6904
16922TIP3    H272182   2.019   4.733  16.441  0.6667  1.1386 -1.1197
16923TIP3   OH272183   4.364   4.238   3.424 -0.2203 -0.4696  0.2831
16923TIP3    H172184   4.282   4.208   3.385 -0.7901  0.4190  0.7906
16923TIP3    H272185   4.400   4.299   3.359  0.4601 -1.4767 -0.3111
16924TIP3   OH272186   3.130   2.250   1.985 -0.1239 -0.4816  0.2853
16924TIP3    H172187   3.075   2.172   1.997  0.5317 -0.8262  1.0670
16924TIP3    H272188   3.078   2.307   1.929 -0.9720 -1.1208  0.4098
16925TIP3   OH272189   2.573   3.234   0.098  0.1477  0.0258  0.0265
16925TIP3    H172190   2.597   3.194   0.181 -0.3005 -0.3171 -0.0052
16925TIP3    H272191   2.518   3.308   0.122 -0.1125 -0.1663  0.0354
16926TIP3   OH272192   2.560   3.843   0.345 -1.0311 -0.5547  0.4060
16926TIP3    H172193   2.621   3.805   0.409  0.8804 -0.3403 -1.2140
16926TIP3    H272194   2.583   3.936   0.344  1.0928 -1.0196 -2.7329
16927TIP3   OH272195   5.312   3.064  10.747 -0.1176  0.4413  0.3235
16927TIP3    H172196   5.290   3.080  10.839 -1.5336  1.1127 -0.1171
16927TIP3    H272197   5.330   3.150  10.711 -1.8205  0.4517 -0.5696
16928TIP3   OH272198   6.553   2.439   1.052 -0.1489 -0.3527 -0.1331
16928TIP3    H172199   6.502   2.485   1.118 -0.3051 -0.3966 -0.2223
16928TIP3    H272200   6.584   2.360   1.096 -0.2840 -0.4000 -0.1235
16929TIP3   OH272201   2.900   3.872  15.346  0.2884  0.2142 -0.2141
16929TIP3    H172202   2.901   3.960  15.308  0.0691  0.7473  0.9783
16929TIP3    H272203   2.937   3.884  15.433 -1.3237 -0.5603  0.6085
16930TIP3   OH272204   4.041   5.211   0.379  0.3984 -0.0095  0.2750
16930TIP3    H172205   4.119   5.261   0.402  0.4878  1.0685 -2.1718
16930TIP3    H272206   4.074   5.123   0.359  0.8430  0.1478  0.3125
16931TIP3   OH272207   4.010   5.947  12.361 -0.5202 -0.2307  0.3639
16931TIP3    H172208   4.067   5.871  12.369  0.5009  0.3295 -1.2289
16931TIP3    H272209   3.936   5.916  12.308 -0.3645 -0.2480  0.1578
16932TIP3   OH272210   3.768   6.350   6.080  0.2219  0.5806  0.9310
16932TIP3    H172211   3.715   6.278   6.047 -1.4024  1.5144  1.4193
16932TIP3    H272212   3.800   6.320   6.165  1.0270 -0.2459  0.3357
16933TIP3   OH272213   4.940   5.649   0.636  0.2063  0.2063  0.5088
16933TIP3    H172214   4.991   5.664   0.557 -0.4385 -0.9052 -0.1307
16933TIP3    H272215   4.860   5.700   0.624  0.8787  1.4279  1.2201
16934TIP3   OH272216   0.046   2.832  14.538 -0.1998 -0.6330 -0.3204
16934TIP3    H172217   0.113   2.864  14.598 -0.7382 -1.7522  0.9230
16934TIP3    H272218  -0.010   2.908  14.521  2.0613  0.6403 -2.3742
16935TIP3   OH272219   2.011   3.951  11.720  0.3273  0.4142 -0.2151
16935TIP3    H172220   2.039   3.961  11.811  0.2948  0.9989 -0.2658
16935TIP3    H272221   2.092   3.950  11.670  0.4539 -1.9069 -0.0127
16936TIP3   OH272222   6.698   3.879  13.098  0.3440 -0.1374 -0.0088
16936TIP3    H172223   6.624   3.936  13.116 -0.4709 -0.9813 -0.6201
16936TIP3    H272224   6.661   3.790  13.101  1.7513 -0.6861  1.7649
16937TIP3   OH272225   4.230   3.522  16.427  0.5326  0.3603 -0.2262
16937TIP3    H172226   4.202   3.438  16.391  2.1202 -0.8176  1.2514
16937TIP3    H272227   4.174   3.535  16.503 -0.8027  1.4408 -1.3608
16938TIP3   OH272228   4.886   4.901  15.092 -0.5049 -0.3523  0.2276
16938TIP3    H172229   4.825   4.924  15.022  2.4133 -2.0711 -3.0679
16938TIP3    H272230   4.921   4.985  15.123 -1.1330  0.3838 -1.0384
16939TIP3   OH272231   3.567   0.579  15.297 -0.5587 -0.2360  0.0611
16939TIP3    H172232   3.490   0.534  15.330  0.1655 -1.4019  0.1846
16939TIP3    H272233   3.638   0.515  15.305  0.0025  0.1084 -1.9919
16940TIP3   OH272234   2.820   2.095   5.700 -0.1485 -0.1840 -0.6396
16940TIP3    H172235   2.847   2.037   5.771 -0.6485  0.5117  0.1314
16940TIP3    H272236   2.726   2.104   5.710 -0.2073  0.0167 -1.3213
16941TIP3   OH272237   3.424   6.674   6.205  0.3944 -0.1307  0.4324
16941TIP3    H172238   3.442   6.649   6.295  0.6240 -0.4295  0.3020
16941TIP3    H272239   3.328   6.672   6.199  0.3768 -0.0782  0.6763
16942TIP3   OH272240   3.093   1.354  13.429 -0.2004 -0.0074 -0.2213
16942TIP3    H172241   3.139   1.405  13.362  2.0695  0.1574  1.3847
16942TIP3    H272242   3.120   1.263  13.412 -0.2663 -0.0610 -0.0344
16943TIP3   OH272243   6.479   0.548   4.771  0.7980 -0.1989  0.1841
16943TIP3    H172244   6.527   0.470   4.796 -0.4675 -1.3959 -1.0536
16943TIP3    H272245   6.496   0.610   4.842  0.0888 -2.3067  2.2589
16944TIP3   OH272246   1.067   4.129  11.706  0.2215 -1.0155 -0.5738
16944TIP3    H172247   1.113   4.150  11.625 -0.6273 -0.1624 -0.8430
16944TIP3    H272248   1.122   4.063  11.749  1.3642 -0.4629 -1.1837
16945TIP3   OH272249   2.886   2.215  13.707  0.1580  0.5560  0.4259
16945TIP3    H172250   2.855   2.305  13.697  0.1454  0.5408  0.3289
16945TIP3    H272251   2.894   2.203  13.802  1.0083  0.9466  0.4138
16946TIP3   OH272252   0.945   3.846   4.525 -0.1829 -0.4964 -0.2590
16946TIP3    H172253   0.905   3.892   4.451 -1.7715  0.6308  1.2583
16946TIP3    H272254   1.036   3.831   4.498  0.1629  2.8302 -1.1199
16947TIP3   OH272255   3.046   1.937  13.002 -0.0976 -0.1989 -0.0930
16947TIP3    H172256   3.027   2.028  13.024  0.7388 -0.1306  0.3891
16947TIP3    H272257   2.961   1.894  12.999 -0.4774  0.5534 -0.1133
16948TIP3   OH272258   5.195   4.507   6.958  0.0806  0.3005 -0.4666
16948TIP3    H172259   5.137   4.540   7.027  1.6511  0.3773  0.8504
16948TIP3    H272260   5.214   4.584   6.904 -0.3781  0.4468 -0.4237
16949TIP3   OH272261   3.728   0.674   1.833 -0.0417 -0.0653 -0.4395
16949TIP3    H172262   3.742   0.728   1.755 -2.0517 -2.0895 -2.2530
16949TIP3    H272263   3.789   0.601   1.823  0.9645  0.5727  0.8257
16950TIP3   OH272264   5.210   2.751   3.254 -0.2187  0.2346  0.0753
16950TIP3    H172265   5.229   2.835   3.297  0.4576 -0.0052  0.2375
16950TIP3    H272266   5.156   2.704   3.317 -0.0246  0.2716  0.2716
16951TIP3   OH272267   6.127   3.575  15.197  0.3387 -0.0774  0.1586
16951TIP3    H172268   6.219   3.578  15.169  0.1297 -1.0746 -0.6435
16951TIP3    H272269   6.102   3.667  15.206  1.0250  0.2255 -0.9093
16952TIP3   OH272270   0.405   5.275   3.111 -0.1638  0.3085  0.2690
16952TIP3    H172271   0.474   5.260   3.046  1.5499  2.3121  1.5318
16952TIP3    H272272   0.431   5.222   3.186  0.4945  1.7194  1.0571
16953TIP3   OH272273   5.050   6.348  15.775 -0.2980  0.8147  0.2332
16953TIP3    H172274   4.996   6.288  15.826 -1.3850  0.6213 -1.1151
16953TIP3    H272275   5.036   6.434  15.815 -2.2610  0.9049 -0.6160
16954TIP3   OH272276   5.686   2.680  11.104 -0.1714 -0.3377 -0.4512
16954TIP3    H172277   5.621   2.750  11.098  2.1738  2.0616  0.8198
16954TIP3    H272278   5.717   2.668  11.014 -2.1617 -1.3277 -1.0226
16955TIP3   OH272279   1.511   3.638  11.478 -0.3318 -0.2624  0.2661
16955TIP3    H172280   1.454   3.660  11.405  1.4006  2.8410 -0.2310
16955TIP3    H272281   1.599   3.661  11.447  0.4389  1.0781  3.3110
16956TIP3   OH272282   4.489   1.317   0.292 -0.1730  0.2666  0.8331
16956TIP3    H172283   4.519   1.337   0.203 -0.8603  0.0015  0.5386
16956TIP3    H272284   4.461   1.401   0.327 -1.0670  0.1683  0.3542
16957TIP3   OH272285   1.126   2.105   3.611 -0.4501  0.2385 -0.1568
16957TIP3    H172286   1.033   2.088   3.625 -0.5321  2.1082  1.8961
16957TIP3    H272287   1.129   2.160   3.533 -1.1690  1.0359  0.3654
16958TIP3   OH272288   4.348   2.005   4.312 -0.0838 -0.2296  0.1157
16958TIP3    H172289   4.284   2.070   4.342  0.2983 -0.2319  0.9329
16958TIP3    H272290   4.294   1.931   4.283 -0.5396  0.5587 -1.1306
16959TIP3   OH272291   2.887   3.494   3.031  0.0713 -0.3061  0.4548
16959TIP3    H172292   2.814   3.532   2.982  0.2071 -0.4926  0.0999
16959TIP3    H272293   2.902   3.554   3.104 -1.0217 -0.7338  1.0443
16960TIP3   OH272294   2.705   0.966   2.363 -0.1417 -0.1106  1.1169
16960TIP3    H172295   2.793   0.997   2.383  0.1518  1.5189 -2.3088
16960TIP3    H272296   2.709   0.871   2.377  1.8440  0.0776  1.9727
16961TIP3   OH272297   1.937   5.347  12.060 -0.0183 -0.5464 -0.6093
16961TIP3    H172298   2.022   5.308  12.036  0.8387  0.8535  0.1153
16961TIP3    H272299   1.883   5.272  12.083  1.5753 -1.3401  0.6576
16962TIP3   OH272300   1.870   5.898  17.034 -0.9076  0.1056 -0.0133
16962TIP3    H172301   1.944   5.953  17.060  0.9351 -1.7559 -1.1705
16962TIP3    H272302   1.816   5.892  17.113  1.0291  0.1495  1.3410
16963TIP3   OH272303   1.919   5.791  13.236 -0.8212 -0.7695 -0.1449
16963TIP3    H172304   1.908   5.841  13.156  0.6209 -0.8414 -0.4088
16963TIP3    H272305   2.012   5.765  13.236 -0.9620 -1.3535  1.1930
16964TIP3   OH272306   6.057   0.303   2.438  0.2906  0.1443 -0.1730
16964TIP3    H172307   5.979   0.344   2.402 -0.3883 -1.2850 -0.3664
16964TIP3    H272308   6.084   0.360   2.510 -1.4018  0.2276  0.4202
16965TIP3   OH272309   4.148   3.474   0.719  0.9941 -0.5399  0.2098
16965TIP3    H172310   4.117   3.538   0.654 -0.2383  1.3111  2.5185
16965TIP3    H272311   4.243   3.483   0.719  1.0838 -1.2887 -2.0361
16966TIP3   OH272312   1.460   3.862  15.323  0.4782  0.1302 -0.0482
16966TIP3    H172313   1.472   3.786  15.266  0.7245 -1.1106  1.5943
16966TIP3    H272314   1.367   3.885  15.315  0.0909 -1.2134  0.4644
16967TIP3   OH272315   1.040   1.560  13.359 -0.5851  0.5806 -0.1262
16967TIP3    H172316   0.990   1.606  13.426  1.7983  0.7366  1.6178
16967TIP3    H272317   1.102   1.625  13.325  0.5742 -0.4381  0.0000
16968TIP3   OH272318   4.001   5.944   4.694  0.2092 -0.2918 -0.3233
16968TIP3    H172319   4.023   5.853   4.673  1.6974  0.8999 -4.4199
16968TIP3    H272320   4.042   5.995   4.624  0.1149  3.6274  2.3491
16969TIP3   OH272321   5.967   1.916  13.015  0.4104 -0.2898 -0.6113
16969TIP3    H172322   5.918   1.835  13.004  1.5047 -1.1079  0.3764
16969TIP3    H272323   5.964   1.958  12.929 -2.1956 -0.1881 -0.5186
16970TIP3   OH272324   3.439   5.954   4.524 -0.1666 -0.5102  0.0819
16970TIP3    H172325   3.496   5.973   4.599  1.5050  0.9013 -1.4699
16970TIP3    H272326   3.487   5.888   4.474 -0.5145 -0.3084 -0.5280
16971TIP3   OH272327   3.248   1.592  13.289  0.1096  0.1840  0.3529
16971TIP3    H172328   3.321   1.596  13.227  1.0434  1.4865  1.4874
16971TIP3    H272329   3.197   1.671  13.270 -1.0886 -0.7739 -0.5047
16972TIP3   OH272330   1.252   2.747   0.543 -0.2762  0.0897  0.3444
16972TIP3    H172331   1.164   2.764   0.512  0.1467 -0.9705 -1.4695
16972TIP3    H272332   1.249   2.768   0.637 -2.5750 -0.4796  0.4170
16973TIP3   OH272333   2.166   5.148  13.056  0.4174  0.0861  0.1391
16973TIP3    H172334   2.154   5.241  13.037  0.9267  0.1141 -0.0446
16973TIP3    H272335   2.108   5.103  12.995 -1.0808  0.3402  1.3194
16974TIP3   OH272336   1.349   0.974  14.739 -0.3517 -0.0467 -0.2293
16974TIP3    H172337   1.375   0.883  14.730  0.1853  0.0540  0.2976
16974TIP3    H272338   1.406   1.022  14.679 -2.1786 -0.3124 -2.2444
16975TIP3   OH272339   2.921   2.974   6.041 -0.4380  0.4897 -0.1325
16975TIP3    H172340   2.958   2.888   6.059 -1.9058 -0.3296 -1.0036
16975TIP3    H272341   2.966   3.032   6.102 -0.0427 -1.0136  1.0303
16976TIP3   OH272342   5.438   6.445   4.137  0.2333  0.3982 -0.5487
16976TIP3    H172343   5.385   6.436   4.058  0.8966 -1.1175 -0.8429
16976TIP3    H272344   5.427   6.362   4.183  2.0723  0.2094 -0.4371
16977TIP3   OH272345   4.412   1.179   1.685  0.2754  0.0644 -0.2964
16977TIP3    H172346   4.350   1.199   1.756 -0.0474 -0.8833 -0.3029
16977TIP3    H272347   4.361   1.126   1.624  0.6093  0.7234 -1.1454
16978TIP3   OH272348   4.358   5.836   0.844  0.6083 -0.1192 -0.0969
16978TIP3    H172349   4.409   5.760   0.815 -1.4100 -1.7599  0.5465
16978TIP3    H272350   4.337   5.883   0.764 -0.8629 -2.0339 -0.8883
16979TIP3   OH272351   2.644   5.751  14.133  0.0513 -0.4277  0.5882
16979TIP3    H172352   2.681   5.807  14.064 -2.1745  1.0803  0.5786
16979TIP3    H272353   2.700   5.673  14.133  1.9939  0.9085 -0.7743
16980TIP3   OH272354   1.598   3.214  15.112 -0.4318  0.2563  0.1917
16980TIP3    H172355   1.638   3.289  15.069  0.2262 -1.2576 -1.9087
16980TIP3    H272356   1.671   3.153  15.126 -0.7869  0.3795  2.7434
16981TIP3   OH272357   4.369   5.681   3.300 -0.5507 -0.5306 -0.1891
16981TIP3    H172358   4.322   5.653   3.221 -0.8657 -1.0061  0.1614
16981TIP3    H272359   4.308   5.741   3.344 -0.5494 -0.6014 -0.0910
16982TIP3   OH272360   6.038   3.255  13.038 -0.1420  0.8299  0.4734
16982TIP3    H172361   6.007   3.268  12.948  1.4992 -3.1482 -0.7998
16982TIP3    H272362   5.959   3.260  13.091 -1.8699 -1.2407 -1.7806
16983TIP3   OH272363   3.225   1.744  13.037  0.3673  0.3172  0.2015
16983TIP3    H172364   3.157   1.811  13.048 -0.6868 -0.4368 -1.4926
16983TIP3    H272365   3.176   1.664  13.019  1.6989 -0.3236 -0.5948
16984TIP3   OH272366   5.983   5.845   1.167 -0.4586 -0.7607 -0.3943
16984TIP3    H172367   5.945   5.931   1.149 -2.4564 -1.8581 -1.5372
16984TIP3    H272368   6.053   5.836   1.103  0.2444  0.3157  0.2120
16985TIP3   OH272369   5.953   3.592  15.517 -0.3015 -0.3704  0.3306
16985TIP3    H172370   5.908   3.664  15.472  0.4153 -1.2661 -1.8971
16985TIP3    H272371   5.883   3.529  15.535 -0.3572 -0.7360 -1.0625
16986TIP3   OH272372   4.373   4.722  14.625 -0.9384  0.6479 -0.2361
16986TIP3    H172373   4.360   4.675  14.542 -1.2941 -0.2642  0.3327
16986TIP3    H272374   4.288   4.717  14.669 -0.7283  1.0702  0.2203
16987TIP3   OH272375   5.866   0.513   0.884  0.5100 -0.1054  0.7999
16987TIP3    H172376   5.959   0.531   0.899  0.7356  0.0708 -0.6699
16987TIP3    H272377   5.840   0.458   0.957  1.7153  0.0561  1.3634
16988TIP3   OH272378   3.699   6.753  11.834 -0.2586  0.2864  0.5401
16988TIP3    H172379   3.614   6.735  11.793 -0.0112  1.1022 -0.3501
16988TIP3    H272380   3.737   6.666  11.847  0.2005  0.0208 -2.1982
16989TIP3   OH272381   0.492   1.702  14.633  0.5425  0.6950  0.1625
16989TIP3    H172382   0.501   1.610  14.608 -1.9061  0.1232  1.2146
16989TIP3    H272383   0.463   1.699  14.724 -1.3871  2.4475 -0.3536
16990TIP3   OH272384   4.343   6.730  14.183 -0.1851 -0.1260 -0.2417
16990TIP3    H172385   4.248   6.741  14.194  0.1123  0.7338  1.6878
16990TIP3    H272386   4.360   6.640  14.209 -0.2697  0.1707  0.8415
16991TIP3   OH272387   6.437   4.409   2.286  0.3240  0.5635  0.0086
16991TIP3    H172388   6.522   4.368   2.266  0.0112 -0.2281  0.2967
16991TIP3    H272389   6.448   4.445   2.374  0.0791 -0.2835  0.3817
16992TIP3   OH272390   3.107   1.931   3.770  0.5218 -0.6128 -0.5207
16992TIP3    H172391   3.153   1.948   3.852 -0.7782  1.2434 -0.1471
16992TIP3    H272392   3.162   1.972   3.703 -0.6873  1.9362 -0.0326
16993TIP3   OH272393   5.825   5.652   5.759 -0.1373  0.4692 -0.6304
16993TIP3    H172394   5.814   5.569   5.713  3.1745 -1.2233  1.4444
16993TIP3    H272395   5.762   5.649   5.831  0.2160 -0.4168 -0.3558
16994TIP3   OH272396   3.177   3.981  12.941  0.4004 -0.4957  0.4652
16994TIP3    H172397   3.227   4.062  12.933 -0.1794 -0.1697 -0.0181
16994TIP3    H272398   3.196   3.933  12.860  0.9483 -0.9594  0.8716
16995TIP3   OH272399   6.659   6.578   4.503 -0.0842  0.2780  0.0687
16995TIP3    H172400   6.729   6.630   4.544  1.3457  0.1754 -2.1336
16995TIP3    H272401   6.585   6.585   4.563  1.9032  0.1585  2.6086
16996TIP3   OH272402   4.182   2.198   3.559 -0.4737  0.2469  0.5426
16996TIP3    H172403   4.136   2.190   3.476  0.6978  0.5699 -0.1594
16996TIP3    H272404   4.127   2.152   3.622 -0.9605 -0.7169 -0.5727
16997TIP3   OH272405   3.381   3.105   2.322  0.0752  0.3633  0.3929
16997TIP3    H172406   3.290   3.123   2.297 -0.0567 -0.6530  0.1291
16997TIP3    H272407   3.426   3.188   2.306 -0.5671  0.5416 -0.6043
16998TIP3   OH272408   0.891   4.199   2.552  0.2881  0.0475 -0.0045
16998TIP3    H172409   0.872   4.202   2.646  2.2573  0.7713  0.3974
16998TIP3    H272410   0.978   4.157   2.547  0.2634  0.1686 -1.4886
16999TIP3   OH272411   4.962   3.699   4.907 -0.2840  0.2078 -0.0648
16999TIP3    H172412   5.004   3.739   4.831 -2.9019  1.4767 -0.8983
16999TIP3    H272413   4.940   3.610   4.880  1.2959 -0.2690  0.1831
17000TIP3   OH272414   3.723   4.818  12.104  0.0278  0.2671  0.0056
17000TIP3    H172415   3.815   4.815  12.076  0.2877  1.1025  0.7149
17000TIP3    H272416   3.683   4.884  12.048 -0.0346  0.2088 -0.0188
17001TIP3   OH272417   1.852   4.241  14.800 -0.2463  0.3510  0.2373
17001TIP3    H172418   1.927   4.192  14.765 -1.5803  0.2919 -2.7158
17001TIP3    H272419   1.797   4.173  14.839  0.3654  0.1735  0.8139
17002TIP3   OH272420   4.959   0.733  15.946  0.0051 -0.2309  0.3695
17002TIP3    H172421   4.933   0.744  16.037 -0.2579  1.3916  0.1129
17002TIP3    H272422   4.920   0.807  15.900  2.6807  0.7130 -0.5178
17003TIP3   OH272423   6.056   0.944  16.574  0.0749  0.3932  0.1311
17003TIP3    H172424   6.049   1.024  16.523  0.8461  0.2514 -0.2022
17003TIP3    H272425   6.045   0.973  16.665  2.0176  1.1337  0.1524
17004TIP3   OH272426   5.991   2.014  11.177  0.2755  0.2707  0.0411
17004TIP3    H172427   6.081   2.004  11.147  0.2749 -0.4347  0.2681
17004TIP3    H272428   5.999   2.029  11.272  0.2022  1.0759 -0.0817
17005TIP3   OH272429   3.892   6.089   2.966  0.7302  0.2665  0.0763
17005TIP3    H172430   3.966   6.126   3.015 -0.1589  1.6000  0.4574
17005TIP3    H272431   3.932   6.048   2.890  1.6804  3.6926 -1.3763
17006TIP3   OH272432   4.171   4.512   2.680 -0.4581  0.3416 -0.4086
17006TIP3    H172433   4.076   4.525   2.678 -0.7338 -1.5705 -0.3190
17006TIP3    H272434   4.184   4.436   2.737  1.1443  0.7278 -0.2396
17007TIP3   OH272435   0.942   1.180   5.264 -0.2837 -0.6316  0.2375
17007TIP3    H172436   0.858   1.178   5.219 -1.8098  0.6272  2.8901
17007TIP3    H272437   0.954   1.273   5.287  2.3631 -0.6162 -1.0294
17008TIP3   OH272438   6.042   3.887   3.523 -0.0872 -0.6988 -0.2304
17008TIP3    H172439   6.058   3.797   3.495 -1.9167 -0.7317 -1.2706
17008TIP3    H272440   5.968   3.916   3.469 -0.2838  1.0269  0.9227
17009TIP3   OH272441   0.405   1.944  16.207  0.6869 -0.5834  1.0253
17009TIP3    H172442   0.336   1.985  16.259  1.6357 -0.9280  2.5767
17009TIP3    H272443   0.475   1.925  16.270  2.8340  1.1341 -0.7556
17010TIP3   OH272444   5.645   3.139  16.691  0.0564  0.4009 -0.1742
17010TIP3    H172445   5.567   3.187  16.666  1.2195  2.2154 -0.4198
17010TIP3    H272446   5.662   3.165  16.782 -0.5195 -1.2329  0.4264
17011TIP3   OH272447   5.552   3.446  14.024 -0.6039 -0.2756 -0.3313
17011TIP3    H172448   5.581   3.394  13.949  1.1248  1.4172 -0.9038
17011TIP3    H272449   5.632   3.457  14.077 -1.4796 -0.2224  0.9878
17012TIP3   OH272450   4.198   5.432   3.505 -0.3317 -0.7215  0.2152
17012TIP3    H172451   4.117   5.383   3.492 -0.4923 -0.6948  1.0602
17012TIP3    H272452   4.266   5.379   3.464 -0.2267 -2.5244  2.6166
17013TIP3   OH272453   4.642   1.019   2.285 -0.3135  0.5973 -0.2739
17013TIP3    H172454   4.725   1.064   2.301 -0.8472  0.9630  1.5597
17013TIP3    H272455   4.660   0.960   2.211  1.1940  1.6512 -0.7571
17014TIP3   OH272456   5.792   3.366  14.100  0.4684 -0.3397  0.3020
17014TIP3    H172457   5.833   3.320  14.027  1.3021  1.7660 -0.5993
17014TIP3    H272458   5.854   3.435  14.123 -1.2860  1.1491  0.7665
17015TIP3   OH272459   0.065   5.987  14.391  0.0683 -0.0960  0.3787
17015TIP3    H172460  -0.016   5.976  14.341 -0.7472 -0.6205  1.7567
17015TIP3    H272461   0.057   6.074  14.431 -0.4282 -0.6676  1.5537
17016TIP3   OH272462   2.751   4.247  12.988 -0.4451  0.2476  0.4701
17016TIP3    H172463   2.809   4.183  12.946  2.3631  1.9942  1.5097
17016TIP3    H272464   2.760   4.326  12.935 -0.0094  1.2495  1.9920
17017TIP3   OH272465   1.061   3.031   6.546  0.3382 -0.3418 -0.0758
17017TIP3    H172466   0.973   3.008   6.518  0.7845 -1.0079 -0.9368
17017TIP3    H272467   1.104   3.063   6.467  1.0525 -0.5617  0.2194
17018TIP3   OH272468   6.457   5.089  12.883  0.4151  0.1558 -0.7319
17018TIP3    H172469   6.546   5.059  12.901  0.6206  0.5684 -1.0711
17018TIP3    H272470   6.468   5.167  12.828 -0.0411  2.6982  2.6764
17019TIP3   OH272471   4.357   1.470  15.658  0.3544  0.1287  0.3763
17019TIP3    H172472   4.438   1.433  15.622  0.5392 -0.0796  1.0006
17019TIP3    H272473   4.356   1.561  15.628  1.0025  0.2319  0.6710
17020TIP3   OH272474   4.200   4.380  14.545  0.1045  0.7069  0.4905
17020TIP3    H172475   4.266   4.317  14.575 -1.1250 -0.2728  1.1833
17020TIP3    H272476   4.232   4.409  14.460  0.7694 -0.7381  0.2245
17021TIP3   OH272477   3.754   5.848   4.664 -0.0896 -0.4169  0.4623
17021TIP3    H172478   3.842   5.886   4.653 -0.1092 -0.9435 -1.8871
17021TIP3    H272479   3.770   5.755   4.677 -0.3062 -0.5987 -0.5331
17022TIP3   OH272480   0.264   4.229   2.599 -0.1002  0.1321 -0.3024
17022TIP3    H172481   0.172   4.208   2.615  0.6012 -3.3092 -0.2653
17022TIP3    H272482   0.287   4.290   2.668 -2.6851  2.1207 -1.1157
17023TIP3   OH272483   1.307   0.052  12.712 -0.8682  0.1196 -0.3515
17023TIP3    H172484   1.275  -0.031  12.748  0.8534 -0.4510 -0.0839
17023TIP3    H272485   1.264   0.060  12.627  1.6526 -2.8495 -1.9962
17024TIP3   OH272486   1.717   1.638   0.623  0.1159 -0.3331  0.4244
17024TIP3    H172487   1.805   1.601   0.627 -0.3392 -1.4731  0.0102
17024TIP3    H272488   1.696   1.643   0.530  0.3967  1.5174  0.4549
17025TIP3   OH272489   6.204   6.380  14.809 -0.5300  0.0104 -0.4773
17025TIP3    H172490   6.132   6.318  14.812 -0.7433  0.1808 -1.9371
17025TIP3    H272491   6.226   6.387  14.717  1.2412  0.0957 -0.0657
17026TIP3   OH272492   1.363   4.377   0.335 -0.0138 -0.0467 -0.2358
17026TIP3    H172493   1.282   4.351   0.378  0.2895 -0.1755  0.2692
17026TIP3    H272494   1.355   4.343   0.246 -0.3666 -0.3554 -0.0883
17027TIP3   OH272495   5.704   3.441  15.551  0.2828  0.0400 -0.6081
17027TIP3    H172496   5.741   3.353  15.549 -0.4939 -0.3037  0.1841
17027TIP3    H272497   5.610   3.428  15.555 -0.0941  0.9010 -4.2373
17028TIP3   OH272498   2.188   0.238  15.374 -0.3631 -0.4118 -0.1087
17028TIP3    H172499   2.123   0.169  15.385 -0.5499 -0.1195  0.6213
17028TIP3    H272500   2.268   0.203  15.414 -0.2276 -0.5384 -0.4881
17029TIP3   OH272501   6.366   2.541   2.750 -0.2189  0.3910  0.0473
17029TIP3    H172502   6.449   2.500   2.724  0.6629  2.3632 -0.3124
17029TIP3    H272503   6.303   2.469   2.749  1.7980 -1.4940  1.8998
17030TIP3   OH272504   4.493   0.960  11.469  0.5577 -0.0764 -0.2021
17030TIP3    H172505   4.426   0.898  11.500 -0.1985  0.3387 -0.9850
17030TIP3    H272506   4.576   0.920  11.495  0.0422 -1.0283  0.0080
17031TIP3   OH272507   3.623   2.372   3.528  0.8433 -0.1185  0.2520
17031TIP3    H172508   3.620   2.295   3.472  4.0055  1.5090 -2.3217
17031TIP3    H272509   3.560   2.354   3.597 -1.8835 -2.9851 -2.8188
17032TIP3   OH272510   1.863   6.280  10.576 -0.0663  0.2697  0.0648
17032TIP3    H172511   1.934   6.339  10.603 -1.0672  1.1106  0.8870
17032TIP3    H272512   1.783   6.333  10.585 -0.8385 -0.7948 -0.4730
17033TIP3   OH272513   3.978   5.591  15.570  0.2385 -0.1444  0.0945
17033TIP3    H172514   4.018   5.670  15.608 -0.7158 -0.4922  1.8713
17033TIP3    H272515   4.051   5.547  15.525  0.7754  1.7450 -0.9512
17034TIP3   OH272516   0.957   1.968  13.968  0.5452 -0.5450  0.0911
17034TIP3    H172517   1.028   1.978  13.904  0.4493 -1.4348 -0.1587
17034TIP3    H272518   0.921   2.056  13.977  0.5718 -0.4055 -1.0752
17035TIP3   OH272519   4.174   4.623  13.481  0.5758  0.7954  0.6985
17035TIP3    H172520   4.255   4.647  13.528  1.0946 -0.0891  0.2594
17035TIP3    H272521   4.194   4.638  13.389  0.1310  0.8501  0.6074
17036TIP3   OH272522   1.316   1.029   6.384  0.1479  0.2190  0.0641
17036TIP3    H172523   1.334   0.940   6.414 -0.2159 -0.1084 -0.6701
17036TIP3    H272524   1.281   1.017   6.295  0.6916  1.1273 -0.2725
17037TIP3   OH272525   5.404   5.754  14.782  0.4637 -0.1823  0.1386
17037TIP3    H172526   5.434   5.713  14.863  0.3755 -0.6036 -0.0436
17037TIP3    H272527   5.399   5.683  14.719  0.5492  0.1480 -0.2454
17038TIP3   OH272528   2.222   5.934   1.373  0.0530  0.5107 -0.5944
17038TIP3    H172529   2.214   6.007   1.311 -1.2769  0.8734 -0.0253
17038TIP3    H272530   2.131   5.909   1.391  0.5240 -2.2185 -1.8630
17039TIP3   OH272531   6.716   6.106   0.487 -0.3447  0.6364  0.0326
17039TIP3    H172532   6.627   6.126   0.459 -0.3796 -0.2493 -0.5083
17039TIP3    H272533   6.706   6.038   0.553 -0.0622  0.3659 -0.1979
17040TIP3   OH272534   3.230   0.427   2.489 -0.0056 -0.1803 -0.5422
17040TIP3    H172535   3.307   0.479   2.466  0.4957 -0.6402  0.0723
17040TIP3    H272536   3.173   0.489   2.535  1.0284 -0.3861  1.0764
17041TIP3   OH272537   5.541   0.932  15.198 -0.2656  0.1190  0.5278
17041TIP3    H172538   5.467   0.883  15.232  0.2681 -0.6330  0.6087
17041TIP3    H272539   5.534   1.019  15.239 -1.2080  0.1157  0.3774
17042TIP3   OH272540   4.753   6.136   4.823 -0.1025 -0.0583 -0.1074
17042TIP3    H172541   4.683   6.126   4.759  1.2969 -2.1668 -1.3547
17042TIP3    H272542   4.754   6.054   4.871  0.2286  0.7173  1.2320
17043TIP3   OH272543   1.158   2.182   5.380 -0.0117  0.2942  0.4307
17043TIP3    H172544   1.150   2.102   5.329  1.7158 -0.8246  1.8743
17043TIP3    H272545   1.098   2.170   5.454 -0.2221  0.6109  0.3134
17044TIP3   OH272546   0.786   4.105  14.832  0.0836 -0.1502 -0.0261
17044TIP3    H172547   0.697   4.141  14.826  0.3219  0.6602  1.1540
17044TIP3    H272548   0.818   4.105  14.742 -1.4766 -1.4162 -0.6205
17045TIP3   OH272549   6.128   0.567   0.936 -0.2579 -0.2703  0.5281
17045TIP3    H172550   6.153   0.658   0.953 -0.3889 -0.4016  1.4299
17045TIP3    H272551   6.208   0.517   0.951  0.1961 -0.1486 -1.4014
17046TIP3   OH272552   4.671   4.501  17.074 -0.0073  0.1558 -0.8475
17046TIP3    H172553   4.623   4.437  17.127  0.9797  0.9429  1.0374
17046TIP3    H272554   4.603   4.548  17.026 -0.9830 -0.1070  0.2523
17047TIP3   OH272555   2.893   3.143   1.433 -0.2262 -0.1112  0.0753
17047TIP3    H172556   2.827   3.161   1.366 -0.5786 -2.2501 -0.2000
17047TIP3    H272557   2.853   3.077   1.490  1.2760 -0.7003  0.4864
17048TIP3   OH272558   3.404   2.243   3.708 -0.5542 -1.0083  1.4548
17048TIP3    H172559   3.383   2.301   3.781  1.0161  0.6392  0.6645
17048TIP3    H272560   3.321   2.232   3.662 -0.9870  0.2497  1.8980
17049TIP3   OH272561   1.910   0.101   2.324 -0.0795 -0.2962 -0.0407
17049TIP3    H172562   1.910   0.149   2.407  2.6685  1.8910 -1.1975
17049TIP3    H272563   1.971   0.029   2.339 -0.7029 -0.7562  0.2886
17050TIP3   OH272564   2.805   5.760   5.038  0.2665 -0.0819  0.1169
17050TIP3    H172565   2.776   5.681   4.992  0.3148 -1.8694  3.0298
17050TIP3    H272566   2.726   5.811   5.052  0.0809 -0.0928 -0.8175
17051TIP3   OH272567   2.842   4.298   2.883  0.1476 -0.3596 -0.1316
17051TIP3    H172568   2.886   4.244   2.818 -0.6689  1.2358 -2.1100
17051TIP3    H272569   2.751   4.302   2.852 -0.0088  1.3220  0.4960
17052TIP3   OH272570   1.089   5.892   5.179  0.2860 -0.1556 -0.0151
17052TIP3    H172571   1.094   5.873   5.272 -0.3535  0.4520  0.1439
17052TIP3    H272572   0.996   5.903   5.161  0.5002  0.9553 -0.4771
17053TIP3   OH272573   6.100   4.597   2.939  0.3410  0.4806 -0.1911
17053TIP3    H172574   6.017   4.638   2.963  0.9407  0.7019  1.5998
17053TIP3    H272575   6.148   4.591   3.021  1.9076 -0.0895 -1.1255
17054TIP3   OH272576   0.682   0.950  13.415  0.8216 -0.5240 -0.5733
17054TIP3    H172577   0.738   0.880  13.383  1.4256  0.4371 -1.6299
17054TIP3    H272578   0.682   1.015  13.345  0.1990  0.4995  0.3673
17055TIP3   OH272579   4.833   2.100  12.416  0.1645  0.3892 -0.4328
17055TIP3    H172580   4.876   2.044  12.351  1.1514  0.1028  0.4504
17055TIP3    H272581   4.896   2.107  12.487 -1.0216  0.4688  0.6273
17056TIP3   OH272582   5.422   1.506   6.314 -0.0739  0.4280  0.2021
17056TIP3    H172583   5.451   1.488   6.225  0.9637  0.9980  0.4174
17056TIP3    H272584   5.332   1.537   6.304  0.2033  0.9589 -0.6832
17057TIP3   OH272585   2.718   5.702   3.293 -0.1534 -0.1869  0.3086
17057TIP3    H172586   2.639   5.663   3.255 -1.3513  2.1023  0.3776
17057TIP3    H272587   2.709   5.688   3.387  1.0382 -2.6140  0.1031
17058TIP3   OH272588   4.823   2.975  13.592 -0.0302  0.3081  0.6379
17058TIP3    H172589   4.789   3.050  13.641 -2.0978 -0.5849  0.6623
17058TIP3    H272590   4.857   2.916  13.660 -0.4045  0.2726  0.7980
17059TIP3   OH272591   5.981   5.558  16.906 -0.5718  0.4730  0.2006
17059TIP3    H172592   5.886   5.550  16.907 -0.5659  0.4119  0.2794
17059TIP3    H272593   5.997   5.651  16.892 -0.6439  0.4869  0.2119
17060TIP3   OH272594   5.428   3.947  13.189 -0.1718  0.9326  0.3657
17060TIP3    H172595   5.458   3.875  13.244  1.0131  0.9310 -0.2852
17060TIP3    H272596   5.372   3.999  13.247 -1.7809 -0.9800  0.5953
17061TIP3   OH272597   4.326   5.495   5.312 -0.0565  0.0119  0.3607
17061TIP3    H172598   4.358   5.405   5.318  0.0169 -0.0015 -0.2335
17061TIP3    H272599   4.377   5.534   5.241 -2.1197 -0.3200 -1.3565
17062TIP3   OH272600   5.722   4.913  16.326  0.6486 -0.2689  0.0011
17062TIP3    H172601   5.673   4.971  16.384 -2.0809 -0.1297 -2.3508
17062TIP3    H272602   5.732   4.832  16.375 -1.7903 -0.2133  0.6254
17063TIP3   OH272603   4.465   3.824   5.584  0.6989 -0.6356 -0.0318
17063TIP3    H172604   4.545   3.874   5.596  0.4139  0.0575 -0.9736
17063TIP3    H272605   4.437   3.844   5.494 -1.3944  0.4109  0.8182
17064TIP3   OH272606   5.315   4.459   4.282  0.1745 -0.0076  0.3106
17064TIP3    H172607   5.231   4.503   4.292  0.1923 -0.2624  1.6930
17064TIP3    H272608   5.308   4.412   4.199 -1.1851 -0.3315  0.5981
17065TIP3   OH272609   6.015   0.122   0.389 -0.3448 -0.1215 -0.2104
17065TIP3    H172610   6.028   0.094   0.480 -2.0763  0.6784  0.3050
17065TIP3    H272611   5.983   0.044   0.344 -0.7816 -0.1772  0.1892
17066TIP3   OH272612   6.038   4.090   0.579  0.0583 -0.2641 -0.0070
17066TIP3    H172613   6.064   4.157   0.516  0.1542  0.0628  0.3762
17066TIP3    H272614   6.096   4.103   0.654 -1.2814  0.5588  0.9112
17067TIP3   OH272615   6.542   0.427  12.440 -0.3440 -0.3127 -0.8026
17067TIP3    H172616   6.578   0.370  12.372  0.1270  0.6253 -1.3542
17067TIP3    H272617   6.542   0.514  12.400  0.2560  0.2966  0.5275
17068TIP3   OH272618   3.872   6.286   0.471  0.1878 -0.0173 -0.0559
17068TIP3    H172619   3.812   6.307   0.543 -0.0164  0.6100 -0.4064
17068TIP3    H272620   3.905   6.198   0.492  1.1876  0.7085  1.5251
17069TIP3   OH272621   1.391   3.818  12.478 -0.1215  0.0676  0.3621
17069TIP3    H172622   1.455   3.871  12.430  0.0834 -0.3096  0.2151
17069TIP3    H272623   1.306   3.843  12.441 -0.0196  0.2322  0.2393
17070TIP3   OH272624   0.478   5.463   2.353 -0.1839  0.1322  0.7345
17070TIP3    H172625   0.567   5.496   2.368  0.9281 -2.0050 -0.7883
17070TIP3    H272626   0.458   5.410   2.430 -0.3342  0.9998  1.2961
17071TIP3   OH272627   2.029   1.727  14.411  0.4053 -0.2106 -0.0939
17071TIP3    H172628   1.978   1.803  14.383  1.0765  1.2997  2.6555
17071TIP3    H272629   2.120   1.751  14.396  0.5464 -1.4669 -1.4752
17072TIP3   OH272630   1.767   0.244  16.738 -0.3622  0.2383  0.0171
17072TIP3    H172631   1.708   0.242  16.662 -0.7185 -1.1312  0.3036
17072TIP3    H272632   1.733   0.175  16.796 -0.2560  1.4469  1.5489
17073TIP3   OH272633   3.260   0.808   5.304 -0.3255  0.5861  0.2197
17073TIP3    H172634   3.328   0.867   5.336 -0.5415  1.2643 -0.5750
17073TIP3    H272635   3.229   0.763   5.383  1.0446  0.2580  0.5848
17074TIP3   OH272636   0.097   5.337  12.280 -0.7248  0.1076  0.1359
17074TIP3    H172637   0.072   5.260  12.230  1.1729 -0.5707  0.2253
17074TIP3    H272638   0.049   5.409  12.239 -2.6409 -1.1093  0.1603
17075TIP3   OH272639   2.846   5.279   6.235  0.0106 -0.2266 -0.5226
17075TIP3    H172640   2.837   5.333   6.314 -0.3009 -0.4681 -0.3919
17075TIP3    H272641   2.925   5.312   6.193  0.5190 -0.4921  0.2007
17076TIP3   OH272642   6.745   4.413  17.031  0.0188  0.4671 -0.3726
17076TIP3    H172643   6.786   4.412  16.945 -1.8737  0.1912 -1.2887
17076TIP3    H272644   6.772   4.497  17.069 -1.3209  1.8306 -2.3342
17077TIP3   OH272645   2.923   0.074  16.145  0.7514  0.2941 -0.1244
17077TIP3    H172646   2.896   0.087  16.055  1.8119  0.9778 -0.3481
17077TIP3    H272647   3.008   0.029  16.139  0.1562 -0.9673  0.5562
17078TIP3   OH272648   6.614   5.902   5.382 -0.2168  0.4753 -0.3481
17078TIP3    H172649   6.522   5.875   5.391 -0.4244  0.5375 -2.1932
17078TIP3    H272650   6.663   5.828   5.418 -0.9778  0.5635  0.9253
17079TIP3   OH272651   2.141   5.451   3.246  0.0177 -0.0477 -0.1514
17079TIP3    H172652   2.109   5.536   3.215  0.1334 -0.2654 -0.8937
17079TIP3    H272653   2.183   5.412   3.169  2.1717  0.2808  0.8240
17080TIP3   OH272654   3.454   3.074   5.701 -0.0075 -0.3517  0.1410
17080TIP3    H172655   3.379   3.043   5.751 -0.1116  0.3513  0.4225
17080TIP3    H272656   3.519   3.004   5.709 -0.2192 -0.4696  0.8176
17081TIP3   OH272657   3.178   4.355  12.622 -0.1003 -0.3828  0.1052
17081TIP3    H172658   3.228   4.420  12.573  0.4019  0.4527  1.6939
17081TIP3    H272659   3.146   4.294  12.555  1.4863  0.1037 -1.1305
17082TIP3   OH272660   2.465   0.418  14.035 -0.2415 -0.4490 -0.9181
17082TIP3    H172661   2.385   0.372  14.060 -0.6287  0.1387 -1.0697
17082TIP3    H272662   2.535   0.354  14.050 -0.7500 -1.0075 -0.9080
17083TIP3   OH272663   4.205   6.623  17.214 -0.4674  0.7703 -0.2824
17083TIP3    H172664   4.254   6.566  17.273  1.0746 -0.2744 -2.4957
17083TIP3    H272665   4.113   6.605  17.234  0.0258 -0.8064  0.6086
17084TIP3   OH272666   3.578   3.080  15.181  0.2014  0.0295 -0.3191
17084TIP3    H172667   3.635   3.076  15.257  0.0533  1.1564 -0.1466
17084TIP3    H272668   3.607   3.007  15.126  2.8234  1.4924 -0.9609
17085TIP3   OH272669   6.076   4.996  12.447  0.3533  0.1231 -0.3400
17085TIP3    H172670   6.092   5.039  12.363  1.6424 -1.2190 -0.8167
17085TIP3    H272671   6.135   5.040  12.508  0.2738  0.3177 -0.4052
17086TIP3   OH272672   4.104   4.513  16.052  0.8224 -0.4637 -0.3119
17086TIP3    H172673   4.011   4.497  16.070  0.7601 -0.5986 -0.7439
17086TIP3    H272674   4.104   4.568  15.974  1.1135 -0.7237 -0.4967
17087TIP3   OH272675   6.315   0.208   3.030 -0.4833 -0.1487  0.2914
17087TIP3    H172676   6.272   0.208   3.116 -0.4593 -2.1758  0.3176
17087TIP3    H272677   6.408   0.200   3.050 -0.3931  0.3996  0.1012
17088TIP3   OH272678   1.602   3.774  13.545 -0.0795 -0.0996 -0.2364
17088TIP3    H172679   1.660   3.785  13.621  1.7461 -1.6925 -1.3667
17088TIP3    H272680   1.547   3.699  13.568  1.4691 -1.5005 -1.0947
17089TIP3   OH272681   4.207   5.352  15.692 -0.6413  0.3726  0.5951
17089TIP3    H172682   4.287   5.308  15.722 -0.6016  0.9147  1.2936
17089TIP3    H272683   4.193   5.318  15.604  1.6777  2.0763 -0.4692
17090TIP3   OH272684   2.525   5.475   2.423  0.5739 -0.4179 -0.5726
17090TIP3    H172685   2.434   5.503   2.428  1.1863  1.5465  0.6739
17090TIP3    H272686   2.560   5.520   2.346  0.8058 -0.1134 -0.2933
17091TIP3   OH272687   1.857   6.120   5.408 -0.0868 -0.4861  0.2912
17091TIP3    H172688   1.906   6.038   5.401  0.2512 -0.1015 -2.0394
17091TIP3    H272689   1.922   6.183   5.438  0.2242 -0.5607 -0.2146
17092TIP3   OH272690   1.977   0.631  11.365  0.8887 -0.7321 -0.0285
17092TIP3    H172691   1.989   0.536  11.359  2.0487 -0.7619  2.2068
17092TIP3    H272692   2.034   0.666  11.297  1.2667 -1.6125 -0.1767
17093TIP3   OH272693   5.958   6.181  14.633 -0.2325 -0.0371 -0.0235
17093TIP3    H172694   5.896   6.253  14.624  0.6278  0.9693  1.7107
17093TIP3    H272695   5.907   6.109  14.670 -0.3351  0.8905  1.7081
17094TIP3   OH272696   1.230   1.038  14.001  0.5876  0.2515 -0.1955
17094TIP3    H172697   1.154   1.064  13.948  2.3396  0.8117 -2.4635
17094TIP3    H272698   1.218   0.944  14.015 -1.3315  0.6062  0.8278
17095TIP3   OH272699   6.501   2.612   3.029 -0.2459 -0.7634  0.3926
17095TIP3    H172700   6.478   2.698   3.064  1.8035  0.0559 -0.1961
17095TIP3    H272701   6.447   2.603   2.951  0.3896  0.5514 -0.2298
17096TIP3   OH272702   2.160   6.578   2.030 -0.6015 -0.2696 -0.0080
17096TIP3    H172703   2.153   6.588   1.935  3.2231 -0.2881 -0.3954
17096TIP3    H272704   2.142   6.665   2.065  1.7069  0.7037 -1.1039
17097TIP3   OH272705   3.544   4.858   2.531  0.1166 -0.2969  0.2849
17097TIP3    H172706   3.551   4.918   2.605  1.5595  3.1316 -2.4530
17097TIP3    H272707   3.635   4.843   2.503 -0.4863  0.0437 -1.9417
17098TIP3   OH272708   0.252   0.718  11.279 -0.1689  0.1071  0.3706
17098TIP3    H172709   0.169   0.767  11.280 -0.0466  0.3140  0.4343
17098TIP3    H272710   0.226   0.627  11.268 -0.3166  0.3586 -1.4113
17099TIP3   OH272711   1.513   1.678  13.382 -0.4428  0.2649  0.2088
17099TIP3    H172712   1.587   1.690  13.322 -0.4233 -0.2996  0.1144
17099TIP3    H272713   1.519   1.751  13.443  0.6579 -0.2126  0.6829
17100TIP3   OH272714   4.773   3.628   5.487 -0.4083  0.6205  0.4869
17100TIP3    H172715   4.716   3.626   5.564  1.3017  1.1469  1.7977
17100TIP3    H272716   4.785   3.721   5.469  0.4707  0.5239  0.5590
17101TIP3   OH272717   2.527   5.613  13.781 -0.4903  0.7193 -0.0441
17101TIP3    H172718   2.507   5.706  13.777  1.8989  1.3298  1.1696
17101TIP3    H272719   2.504   5.587  13.870 -0.8778  0.1895 -0.2891
17102TIP3   OH272720   6.010   1.869   4.586 -0.3695  0.2403 -0.4094
17102TIP3    H172721   5.919   1.883   4.614 -0.4822 -0.2022 -0.5489
17102TIP3    H272722   6.038   1.955   4.553 -0.4375  0.6022  0.4681
17103TIP3   OH272723   5.849   3.745   5.823  0.3500  0.1416 -0.2692
17103TIP3    H172724   5.907   3.690   5.771 -0.0149 -1.3036  0.8201
17103TIP3    H272725   5.849   3.704   5.910  1.3932  2.8187  1.0416
17104TIP3   OH272726   3.140   0.229   3.791 -0.0902 -0.7236 -0.4508
17104TIP3    H172727   3.084   0.301   3.761  0.9312 -0.3452 -1.4838
17104TIP3    H272728   3.175   0.191   3.710  2.9711  0.4956  0.2357
17105TIP3   OH272729   4.893   0.485   5.078  0.0155 -0.3782 -0.5056
17105TIP3    H172730   4.920   0.429   5.151  0.7839  2.6700  1.6144
17105TIP3    H272731   4.975   0.511   5.035 -0.2245  0.4713 -0.4550
17106TIP3   OH272732   5.935   1.074  15.930 -0.2009 -0.0777  0.1073
17106TIP3    H172733   5.920   1.016  16.005 -1.9126 -1.2648 -1.1418
17106TIP3    H272734   5.940   1.162  15.969  0.3746 -0.8277  1.7684
17107TIP3   OH272735   5.313   2.265  10.710 -0.1116 -0.6719  1.2232
17107TIP3    H172736   5.366   2.228  10.639 -1.0930  1.4736 -0.7241
17107TIP3    H272737   5.286   2.190  10.762  2.9441 -2.0220  0.9627
17108TIP3   OH272738   6.275   5.147  14.921  0.5473  0.5795 -0.6626
17108TIP3    H172739   6.285   5.227  14.973 -0.9045  0.6758 -0.5066
17108TIP3    H272740   6.192   5.160  14.874  0.8159 -0.3994 -1.4131
17109TIP3   OH272741   6.400   5.620   1.562 -0.1650 -0.1021  0.0397
17109TIP3    H172742   6.409   5.715   1.572 -0.0185 -0.0915 -0.1996
17109TIP3    H272743   6.455   5.583   1.631  0.5362 -0.0255 -0.4781
17110TIP3   OH272744   0.168   6.581   4.103 -0.2515  0.3061 -0.1096
17110TIP3    H172745   0.077   6.552   4.089 -0.2240 -0.3967  1.1607
17110TIP3    H272746   0.176   6.590   4.197  0.8862  0.7810 -0.2510
17111TIP3   OH272747   4.330   2.571  11.524 -0.5513  0.0257  0.2845
17111TIP3    H172748   4.373   2.491  11.555  1.5434  1.0829  0.1789
17111TIP3    H272749   4.304   2.617  11.604  1.7027  1.0673  0.4384
17112TIP3   OH272750   1.269   5.789   5.631 -0.4702  0.4816 -0.1581
17112TIP3    H172751   1.318   5.867   5.656  0.4384  0.3138 -1.3674
17112TIP3    H272752   1.336   5.729   5.596 -1.2389 -0.5901  0.1989
17113TIP3   OH272753   0.215   1.958   4.552  0.2156  0.2049 -0.2643
17113TIP3    H172754   0.288   2.019   4.559 -1.7133  2.5208  0.6678
17113TIP3    H272755   0.214   1.911   4.635  1.4491 -0.8365 -0.8197
17114TIP3   OH272756   5.908   4.102   4.976  0.4610 -0.0008  0.5935
17114TIP3    H172757   5.954   4.183   4.954  0.7309 -0.4679 -0.5766
17114TIP3    H272758   5.900   4.105   5.071 -2.2410  2.8389  0.3332
17115TIP3   OH272759   2.690   5.429   0.038 -0.3114 -0.0163  0.1319
17115TIP3    H172760   2.784   5.439   0.022 -0.0472 -0.6492  1.1800
17115TIP3    H272761   2.680   5.336   0.061 -0.9666  0.3541  1.3801
17116TIP3   OH272762   1.657   4.644   4.662 -0.0848  0.4351 -0.2105
17116TIP3    H172763   1.717   4.639   4.588 -0.1312  0.2308 -0.2345
17116TIP3    H272764   1.687   4.720   4.712 -0.2302  0.7512 -0.5935
17117TIP3   OH272765   3.851   3.979  14.233  0.1924  0.3982  0.1568
17117TIP3    H172766   3.855   3.892  14.273 -2.8258  0.6677  1.1142
17117TIP3    H272767   3.850   4.040  14.308 -1.4138  1.0855 -0.4075
17118TIP3   OH272768   3.232   4.527  10.694  0.0219  0.2651  0.2262
17118TIP3    H172769   3.175   4.579  10.637 -0.6100  0.4240  0.9885
17118TIP3    H272770   3.238   4.578  10.775  1.6475  0.4843 -0.0095
17119TIP3   OH272771   6.771   5.258  13.086  0.1084  0.1304  0.1202
17119TIP3    H172772   6.742   5.296  13.003 -0.3929 -1.6404 -0.5266
17119TIP3    H272773   6.784   5.165  13.067 -0.3134 -0.3607  2.0953
17120TIP3   OH272774   2.132   5.671   5.531  0.3263  0.9172 -0.6822
17120TIP3    H172775   2.216   5.692   5.573  1.1899 -2.6672 -0.3783
17120TIP3    H272776   2.153   5.598   5.473 -2.6113 -0.2135 -0.4169
17121TIP3   OH272777   0.087   5.799   5.874 -0.3456 -0.3254 -0.5470
17121TIP3    H172778   0.079   5.828   5.965 -1.1701 -1.7160 -0.1460
17121TIP3    H272779   0.178   5.769   5.866 -0.6766 -1.5856  0.2659
17122TIP3   OH272780   6.438   0.894   2.150  0.1538 -0.2519  0.6320
17122TIP3    H172781   6.377   0.947   2.202 -2.1905 -1.9129 -0.3410
17122TIP3    H272782   6.446   0.942   2.067  0.2808  0.0322  0.8069
17123TIP3   OH272783   6.055   6.195   4.112  0.2389  0.3043  0.0852
17123TIP3    H172784   6.150   6.204   4.114  0.2758  0.3101 -1.4049
17123TIP3    H272785   6.039   6.101   4.101  0.0203  0.0080  2.5803
17124TIP3   OH272786   3.824   2.262  16.691  0.2833 -0.3491  0.1066
17124TIP3    H172787   3.868   2.341  16.722  0.3644 -0.2587 -0.2332
17124TIP3    H272788   3.731   2.281  16.702  0.1470  1.1963 -3.2613
17125TIP3   OH272789   5.986   2.825  15.908 -0.0050  0.1302 -0.1942
17125TIP3    H172790   6.069   2.873  15.914  0.6523 -1.1922  1.4372
17125TIP3    H272791   5.966   2.800  15.998 -0.2728 -2.7494 -1.0136
17126TIP3   OH272792   0.135   0.534   1.461  0.2486  0.4677  0.0462
17126TIP3    H172793   0.083   0.573   1.532  0.0683 -0.8346  0.6360
17126TIP3    H272794   0.117   0.441   1.467 -0.8697  0.4669 -2.6030
17127TIP3   OH272795   4.503   0.632  12.142 -0.9133  0.1845 -0.1282
17127TIP3    H172796   4.464   0.572  12.207 -0.8505  0.2374 -0.0421
17127TIP3    H272797   4.461   0.607  12.059 -1.3419  0.4281  0.0122
17128TIP3   OH272798   5.410   2.372  13.458  0.3253 -0.4014 -0.1431
17128TIP3    H172799   5.469   2.298  13.448  1.1184  0.3409 -1.0656
17128TIP3    H272800   5.465   2.449  13.444 -0.9060  0.2918 -1.2785
17129TIP3   OH272801   1.492   2.891   5.387  0.7127  0.3378  0.5728
17129TIP3    H172802   1.434   2.966   5.399 -0.3217 -0.3912  0.2140
17129TIP3    H272803   1.522   2.899   5.296 -3.0526 -2.1691 -1.0158
17130TIP3   OH272804   5.723   1.288   4.013 -0.6055  0.6955  0.1711
17130TIP3    H172805   5.682   1.335   3.940 -1.2002 -0.7658 -0.4597
17130TIP3    H272806   5.801   1.248   3.974 -1.1355 -0.4152  0.2313
17131TIP3   OH272807   5.010   4.968  14.763 -1.2244 -0.5858 -0.5871
17131TIP3    H172808   4.915   4.954  14.760 -1.2250 -0.7696  0.3315
17131TIP3    H272809   5.033   4.988  14.672 -2.2504  0.1708 -0.7028
17132TIP3   OH272810   0.225   2.918   5.759 -0.1658  0.5484  0.6751
17132TIP3    H172811   0.189   2.945   5.843 -3.0348 -1.1995  0.0924
17132TIP3    H272812   0.148   2.893   5.707  1.7224 -0.8149 -1.5901
17133TIP3   OH272813   5.550   5.818   4.175 -0.2146 -0.3242  0.5198
17133TIP3    H172814   5.543   5.846   4.266 -2.2558  0.1313  0.2449
17133TIP3    H272815   5.641   5.793   4.165  0.4967  1.4554  2.1719
17134TIP3   OH272816   5.652   3.792  14.633  0.4736 -0.1529  0.4671
17134TIP3    H172817   5.629   3.718  14.577  0.7018 -0.5517  0.8980
17134TIP3    H272818   5.748   3.795  14.632  0.4694  0.0699  0.5414
17135TIP3   OH272819   0.350   4.404   1.329 -0.0939  0.3558 -0.6539
17135TIP3    H172820   0.381   4.317   1.304 -0.7198 -0.2071  0.5309
17135TIP3    H272821   0.303   4.436   1.252 -0.1379 -0.4791 -0.9724
17136TIP3   OH272822   4.986   4.510   3.968  0.7256  0.6592 -0.0712
17136TIP3    H172823   4.926   4.559   3.912 -0.2111 -1.1105 -0.6542
17136TIP3    H272824   5.066   4.502   3.915  0.5234  0.6505 -0.3777
17137TIP3   OH272825   4.476   2.276  14.745 -0.6207 -0.1910 -0.2243
17137TIP3    H172826   4.433   2.243  14.824 -0.7998  3.0868  1.1508
17137TIP3    H272827   4.403   2.307  14.691 -0.4584 -1.8727 -1.4051
17138TIP3   OH272828   3.553   2.316  10.376  0.4436 -0.2339  0.5695
17138TIP3    H172829   3.584   2.396  10.335  1.9129 -0.6580  0.8409
17138TIP3    H272830   3.566   2.330  10.470  0.1609 -0.5642  0.6618
17139TIP3   OH272831   1.618   4.279   5.298  0.1467  0.5225 -0.1274
17139TIP3    H172832   1.646   4.227   5.223 -2.1962 -0.3693 -0.4413
17139TIP3    H272833   1.643   4.227   5.374 -1.2112 -0.5802 -0.4142
17140TIP3   OH272834   3.376   2.532   1.508 -0.0371  1.1855 -0.2136
17140TIP3    H172835   3.378   2.437   1.496  0.8524  1.1078  0.5539
17140TIP3    H272836   3.401   2.546   1.599  2.8298  2.3136 -1.1220
17141TIP3   OH272837   2.005   5.934   0.853 -0.8230 -0.4970 -0.1359
17141TIP3    H172838   1.910   5.945   0.854 -0.7454  0.5490 -2.4413
17141TIP3    H272839   2.018   5.839   0.850 -1.7930 -0.6316 -0.1299
17142TIP3   OH272840   0.904   2.027  12.327 -0.2221  0.0152 -0.1846
17142TIP3    H172841   0.813   1.999  12.342 -0.1178 -0.2944 -0.1292
17142TIP3    H272842   0.910   2.039  12.232 -0.3324  0.0813 -0.1834
17143TIP3   OH272843   2.442   0.305  16.169 -1.0941 -1.0615 -0.3926
17143TIP3    H172844   2.391   0.263  16.238 -2.5602 -0.7192 -1.2381
17143TIP3    H272845   2.514   0.245  16.152 -1.2892 -1.6268  0.7233
17144TIP3   OH272846   4.974   4.202   5.123  0.5104  0.4166 -0.8255
17144TIP3    H172847   4.980   4.292   5.090 -1.1107  0.5770 -0.7256
17144TIP3    H272848   4.934   4.153   5.051 -3.1257  0.7815  0.8562
17145TIP3   OH272849   1.778   3.441   0.985 -0.0515 -0.3999  0.0626
17145TIP3    H172850   1.701   3.403   0.943 -1.6528  3.0062 -0.2864
17145TIP3    H272851   1.763   3.428   1.079 -0.3914 -0.9305 -0.0653
17146TIP3   OH272852   5.634   4.802   3.460 -0.1088 -0.5695  0.3475
17146TIP3    H172853   5.606   4.891   3.482 -1.7194 -1.1204  0.5966
17146TIP3    H272854   5.693   4.777   3.532 -0.3916 -0.0518  0.7645
17147TIP3   OH272855   2.140   3.875   5.591  0.5270 -0.5786 -0.4489
17147TIP3    H172856   2.166   3.914   5.674  0.2070 -1.0282 -0.1334
17147TIP3    H272857   2.072   3.934   5.557 -1.4494 -1.9325  1.0212
17148TIP3   OH272858   4.174   2.329   0.522  0.0910  0.2373 -0.6235
17148TIP3    H172859   4.234   2.384   0.472 -0.0691 -0.6260 -1.7874
17148TIP3    H272860   4.228   2.291   0.591  0.7797 -0.1866 -1.3939
17149TIP3   OH272861   3.830   0.011   0.453  0.2779 -0.5073  0.4031
17149TIP3    H172862   3.853   0.013   0.360 -2.1390 -0.4308 -0.2075
17149TIP3    H272863   3.791   0.096   0.469 -2.0237 -1.6134  0.7707
17150TIP3   OH272864   4.909   1.315  11.588 -0.7214 -0.0155 -0.1674
17150TIP3    H172865   5.000   1.318  11.558 -0.8861  1.3485 -0.5832
17150TIP3    H272866   4.885   1.407  11.599 -1.8196 -0.3962  0.6602
17151TIP3   OH272867   6.733   3.929  14.682 -0.3564 -0.0835  0.4129
17151TIP3    H172868   6.737   3.845  14.729  1.2440  0.8965  2.0927
17151TIP3    H272869   6.707   3.993  14.748  2.8325  1.4710  0.2608
17152TIP3   OH272870   2.397   3.514   0.533  0.2521  1.3599 -0.3398
17152TIP3    H172871   2.465   3.448   0.540 -1.5371 -0.3475  1.8066
17152TIP3    H272872   2.388   3.549   0.622 -2.9566  0.1323 -0.0961
17153TIP3   OH272873   2.240   5.849   4.610  0.2439  0.1035  0.5793
17153TIP3    H172874   2.197   5.765   4.626  0.4361 -0.0236  0.4303
17153TIP3    H272875   2.213   5.873   4.521  0.9558 -0.2679  0.2545
17154TIP3   OH272876   4.032   2.281  15.827 -0.0952  0.1688 -0.0678
17154TIP3    H172877   4.091   2.353  15.849 -0.6805  0.5292  0.3168
17154TIP3    H272878   4.059   2.254  15.739  0.4313  0.5426 -0.0232
17155TIP3   OH272879   5.113   5.221  14.067 -0.0098  0.4532 -0.4315
17155TIP3    H172880   5.046   5.280  14.100  2.3739  1.9118  1.9246
17155TIP3    H272881   5.121   5.243  13.974 -1.9990  0.9979 -0.4867
17156TIP3   OH272882   1.151   0.229  15.910 -0.7711 -0.2722 -0.0132
17156TIP3    H172883   1.202   0.149  15.893  1.4819  0.9640  0.6381
17156TIP3    H272884   1.077   0.224  15.850  0.2801 -2.0303 -1.2123
17157TIP3   OH272885   1.150   3.150   4.193  0.5860 -0.3988  0.0864
17157TIP3    H172886   1.080   3.105   4.241  1.3578  0.5898  2.1767
17157TIP3    H272887   1.108   3.227   4.154 -0.1203 -1.3981 -1.1911
17158TIP3   OH272888   1.868   4.543   5.213 -0.0817 -0.4893  0.0642
17158TIP3    H172889   1.846   4.559   5.122 -0.5641 -0.9541  0.0969
17158TIP3    H272890   1.831   4.617   5.260 -1.5035 -1.2068  0.1034
17159TIP3   OH272891   1.041   5.363   0.680  0.1900 -0.4423 -0.6358
17159TIP3    H172892   1.066   5.455   0.671  0.3207 -0.3469  0.5709
17159TIP3    H272893   1.098   5.317   0.618  1.5745  0.0612  0.2452
17160TIP3   OH272894   3.707   0.305   0.205 -0.1833 -0.0301 -0.2551
17160TIP3    H172895   3.763   0.228   0.211  1.8886  1.3641 -1.2801
17160TIP3    H272896   3.705   0.341   0.293  0.1079 -0.3947 -0.1002
17161TIP3   OH272897   2.963   2.437  14.733  0.3313 -0.0201  0.0563
17161TIP3    H172898   2.930   2.483  14.810  0.7036  0.7711 -0.2574
17161TIP3    H272899   2.944   2.344  14.751 -1.9606  0.3932 -0.0946
17162TIP3   OH272900   0.103   3.625   1.474 -0.8614  0.3914  0.0778
17162TIP3    H172901   0.063   3.544   1.442 -2.4839  1.8137 -1.6678
17162TIP3    H272902   0.128   3.606   1.564 -0.4238 -2.3037 -0.5569
17163TIP3   OH272903   2.559   1.828   5.670  0.3106 -0.1751  0.5070
17163TIP3    H172904   2.641   1.838   5.717  0.7866  0.4854 -0.4430
17163TIP3    H272905   2.552   1.908   5.617 -0.4618 -0.6641 -0.1461
17164TIP3   OH272906   2.346   1.981   1.310  0.2730 -0.3585  0.2497
17164TIP3    H172907   2.374   1.901   1.265 -1.9523 -2.1123  1.9013
17164TIP3    H272908   2.259   1.961   1.343 -0.3294  2.7809  0.7021
17165TIP3   OH272909   0.030   0.275  11.511 -0.1797  0.0423  0.4250
17165TIP3    H172910   0.113   0.293  11.556  0.0390  1.5314 -0.5330
17165TIP3    H272911   0.044   0.190  11.469  1.1932  0.6718 -0.4422
17166TIP3   OH272912   5.668   2.391   2.090  0.5275  0.3603  0.1889
17166TIP3    H172913   5.591   2.348   2.127  1.0951  0.0470  1.0165
17166TIP3    H272914   5.661   2.482   2.119  1.0513  0.0841  1.2264
17167TIP3   OH272915   0.866   6.638  15.425  0.2809 -0.2272 -0.8477
17167TIP3    H172916   0.933   6.663  15.489  0.3713 -0.1948 -0.9532
17167TIP3    H272917   0.847   6.719  15.378 -0.2322 -0.1180 -0.4518
17168TIP3   OH272918   4.856   1.232   6.563 -0.7481 -0.5840 -0.0560
17168TIP3    H172919   4.866   1.144   6.600  3.4204  0.4570  1.6000
17168TIP3    H272920   4.805   1.280   6.628  0.3718 -0.7295  0.9491
17169TIP3   OH272921   5.634   1.261  13.210  0.0078 -0.4287  0.3047
17169TIP3    H172922   5.712   1.207  13.226  0.9637  0.8301  0.0523
17169TIP3    H272923   5.620   1.255  13.116 -1.2528 -2.0394  0.5843
17170TIP3   OH272924   1.787   0.334  11.022  0.0797  0.5765  0.0746
17170TIP3    H172925   1.782   0.295  10.935 -0.8087  0.3208  0.2389
17170TIP3    H272926   1.826   0.421  11.007  2.8231 -0.6505 -0.1915
17171TIP3   OH272927   0.285   4.106  14.295  0.1002 -0.2006 -0.2573
17171TIP3    H172928   0.212   4.165  14.277  1.0214  0.7165 -1.1272
17171TIP3    H272929   0.338   4.109  14.215  0.4541 -1.7840 -0.0943
17172TIP3   OH272930   1.785   4.531   4.415 -0.4013  0.1495 -0.0121
17172TIP3    H172931   1.861   4.486   4.452  0.3098  1.4919  0.1900
17172TIP3    H272932   1.809   4.547   4.324 -0.1792  1.1279  0.2134
17173TIP3   OH272933   1.258   6.433  13.878 -0.6307 -0.3767 -0.0360
17173TIP3    H172934   1.218   6.465  13.959 -0.4842 -1.5371  0.4984
17173TIP3    H272935   1.254   6.508  13.819 -1.0091  0.3919  0.9436
17174TIP3   OH272936   0.309   6.004   1.566  0.3605  0.7848 -0.1631
17174TIP3    H172937   0.273   6.075   1.513 -0.5733  0.2537 -0.2551
17174TIP3    H272938   0.242   5.987   1.632  0.4029 -0.2805 -0.3832
17175TIP3   OH272939   0.036   0.708  16.051 -0.4033  0.5418 -0.1144
17175TIP3    H172940  -0.056   0.701  16.077 -0.3832  0.0473 -0.1546
17175TIP3    H272941   0.045   0.642  15.982  0.5118 -0.9326  1.3882
17176TIP3   OH272942   2.324   1.208   3.809 -0.4230  0.1656 -0.9993
17176TIP3    H172943   2.265   1.262   3.757  0.2107  0.5311 -1.3484
17176TIP3    H272944   2.403   1.202   3.756  0.1356  0.3207 -0.1882
17177TIP3   OH272945   6.665   1.909  12.646  0.3785 -0.1833 -0.0627
17177TIP3    H172946   6.718   1.982  12.612 -0.2226 -1.2230 -3.3533
17177TIP3    H272947   6.722   1.865  12.708  1.8068  1.3127 -0.2785
17178TIP3   OH272948   1.991   3.786  16.050 -0.4484 -0.1564 -0.1004
17178TIP3    H172949   2.078   3.821  16.066  0.6063 -2.7277 -0.0476
17178TIP3    H272950   1.968   3.817  15.962  0.4581  0.6039 -0.0730
17179TIP3   OH272951   3.847   3.356  12.265  0.0455 -0.2137 -0.3028
17179TIP3    H172952   3.828   3.407  12.186  0.5156  0.1273 -0.2009
17179TIP3    H272953   3.869   3.269  12.233 -1.2119 -0.4855 -0.4514
17180TIP3   OH272954   1.876   5.663   2.153  0.7112 -0.0465 -0.3587
17180TIP3    H172955   1.796   5.698   2.193  1.9040  2.4104  0.0148
17180TIP3    H272956   1.851   5.640   2.064 -0.6424 -0.2136  0.0553
17181TIP3   OH272957   6.352   6.014  15.428 -0.3435 -0.4239  0.3428
17181TIP3    H172958   6.401   6.094  15.444 -0.8986  0.0508 -0.2799
17181TIP3    H272959   6.262   6.035  15.452 -0.7331 -0.4474 -1.0457
17182TIP3   OH272960   6.011   2.753  11.940 -0.2760  0.2863 -0.2883
17182TIP3    H172961   5.974   2.837  11.965  0.0549 -0.1185  1.6053
17182TIP3    H272962   6.068   2.728  12.013  2.2913 -0.0077 -2.3097
17183TIP3   OH272963   3.202   1.102  12.422  0.4337 -0.2643 -0.1594
17183TIP3    H172964   3.197   1.012  12.388 -0.9372  0.1007 -0.9581
17183TIP3    H272965   3.257   1.148  12.358  1.0120 -0.5020  0.1687
17184TIP3   OH272966   6.699   1.081  11.417 -0.0730 -0.6285 -0.5368
17184TIP3    H172967   6.669   1.057  11.504 -0.4499  0.2099 -0.4238
17184TIP3    H272968   6.664   1.169  11.403  0.6898 -0.4177 -1.1984
17185TIP3   OH272969   3.150   2.880  14.320 -0.0082 -0.0133 -0.0429
17185TIP3    H172970   3.238   2.846  14.334  0.4154  1.9567  2.6523
17185TIP3    H272971   3.094   2.802  14.312  1.3976 -1.3541  2.5156
17186TIP3   OH272972   0.111   0.767  13.828  0.2001 -0.6200  0.4117
17186TIP3    H172973   0.158   0.823  13.768  0.5803 -0.8641  0.4834
17186TIP3    H272974   0.087   0.825  13.901 -0.8825 -0.1585 -0.3005
17187TIP3   OH272975   5.603   6.426  13.367  0.2361 -0.0281  0.4355
17187TIP3    H172976   5.673   6.438  13.304 -0.1379 -1.9636 -0.3605
17187TIP3    H272977   5.638   6.363  13.431  0.6645  1.9935  2.2727
17188TIP3   OH272978   1.278   0.941   3.884 -0.1603  0.2537  0.0716
17188TIP3    H172979   1.219   0.926   3.810  1.8160 -0.0441 -1.5031
17188TIP3    H272980   1.222   0.976   3.953 -2.1231  0.1845 -1.4393
17189TIP3   OH272981   4.772   1.651   5.771  0.3435  0.1126 -0.2009
17189TIP3    H172982   4.751   1.632   5.679  0.0932  1.7852 -0.5147
17189TIP3    H272983   4.765   1.746   5.777  0.5003  0.0196  1.5331
17190TIP3   OH272984   6.281   2.049  15.923  0.2112  0.5030  0.1150
17190TIP3    H172985   6.270   1.983  15.991  2.4847  0.8393  0.8704
17190TIP3    H272986   6.216   2.116  15.943 -0.9971 -0.7085  0.3047
17191TIP3   OH272987   4.434   0.836   3.232  0.5641  0.2622  0.1066
17191TIP3    H172988   4.486   0.778   3.176 -1.0792  1.0154 -2.2332
17191TIP3    H272989   4.383   0.776   3.287  0.1937 -0.5137 -1.0569
17192TIP3   OH272990   6.089   0.473  10.527  0.1918 -0.3000  0.1575
17192TIP3    H172991   6.076   0.567  10.512  1.5461 -0.2610 -0.8929
17192TIP3    H272992   6.139   0.469  10.608  0.9351 -0.0638 -0.2846
17193TIP3   OH272993   3.794   3.841  16.943 -0.0316 -0.5643  0.4514
17193TIP3    H172994   3.860   3.772  16.940  0.0822 -0.3912 -2.8405
17193TIP3    H272995   3.816   3.892  17.020  3.8686 -0.3704 -0.7093
17194TIP3   OH272996   3.386   1.962   0.071 -0.5763 -0.0147  0.4337
17194TIP3    H172997   3.464   1.939   0.121 -0.7480 -0.0691  0.6816
17194TIP3    H272998   3.334   1.881   0.070  0.3657 -0.6204 -1.5905
17195TIP3   OH272999   4.355   2.636   1.198  0.0794 -0.1423 -0.1155
17195TIP3    H173000   4.359   2.547   1.233 -0.8913  0.6012  1.9341
17195TIP3    H273001   4.445   2.667   1.202  0.3509 -0.8621 -0.4332
17196TIP3   OH273002   3.953   1.086  16.699 -0.2054 -0.7248  0.3211
17196TIP3    H173003   4.031   1.055  16.745  0.0694 -0.2567  0.1802
17196TIP3    H273004   3.921   1.009  16.652 -0.4832 -1.2026  1.2789
17197TIP3   OH273005   4.754   5.096   4.775 -0.6691  0.7850  0.0616
17197TIP3    H173006   4.791   5.106   4.863 -1.6295  1.9519  0.3404
17197TIP3    H273007   4.708   5.012   4.779 -0.5473  0.7407  0.6219
17198TIP3   OH273008   4.302   0.364  15.990 -0.2574 -0.2089 -0.3501
17198TIP3    H173009   4.290   0.322  16.075  1.4954  0.5717  0.3272
17198TIP3    H273010   4.378   0.319  15.952 -0.1216  0.4401 -0.8485
17199TIP3   OH273011   2.426   0.478   0.067 -0.8742  0.9925 -0.2868
17199TIP3    H173012   2.334   0.460   0.088 -0.3723  0.4608  1.5592
17199TIP3    H273013   2.475   0.428   0.132  0.7117  1.6480 -0.9751
17200TIP3   OH273014   0.551   6.504  13.112  0.2590  0.2027  0.3856
17200TIP3    H173015   0.604   6.537  13.185  0.6923 -0.0361  0.1768
17200TIP3    H273016   0.594   6.423  13.086 -0.7440 -0.4691  0.8184
17201TIP3   OH273017   0.988   2.606   5.804 -0.0244 -0.2974  0.3838
17201TIP3    H173018   1.038   2.561   5.873  1.4284  1.7789  0.7498
17201TIP3    H273019   0.983   2.697   5.834  0.9255  0.7239 -2.3824
17202TIP3   OH273020   6.195   6.057   0.184  0.3498  0.5355  0.0949
17202TIP3    H173021   6.177   6.047   0.091  1.5067  0.0857 -0.0951
17202TIP3    H273022   6.136   6.126   0.213  1.2022  1.8810 -1.3336
17203TIP3   OH273023   5.444   6.314  13.048 -0.3478  0.0968  0.2376
17203TIP3    H173024   5.531   6.282  13.070  0.3650  1.1432 -1.0196
17203TIP3    H273025   5.403   6.331  13.133  0.6112 -0.5315  0.8404
17204TIP3   OH273026   1.446   3.653   4.087 -0.3044  0.3529 -0.3494
17204TIP3    H173027   1.429   3.561   4.065 -2.0516  0.6712 -0.3941
17204TIP3    H273028   1.499   3.649   4.166 -1.9518 -0.7111  0.7539
17205TIP3   OH273029   3.646   0.643   5.123  0.1181  0.5137  0.1139
17205TIP3    H173030   3.657   0.688   5.208  1.0065  0.8478 -0.1701
17205TIP3    H273031   3.568   0.683   5.086  1.3708  2.4719 -0.5077
17206TIP3   OH273032   4.798   2.485  13.816 -0.2599 -0.3303 -0.3643
17206TIP3    H173033   4.768   2.431  13.743  0.9060 -2.3988  0.6359
17206TIP3    H273034   4.770   2.438  13.895 -1.6921  1.9777  0.5583
17207TIP3   OH273035   0.265   2.181  14.998 -0.3706  0.3766 -0.4529
17207TIP3    H173036   0.320   2.254  14.969 -0.1605 -0.0897 -1.2573
17207TIP3    H273037   0.239   2.137  14.917 -0.6931 -0.3012  0.0097
17208TIP3   OH273038   1.000   4.889  14.461 -0.2631 -0.0694  0.2510
17208TIP3    H173039   1.071   4.851  14.512  1.0304  0.7489 -0.9026
17208TIP3    H273040   1.043   4.937  14.391 -1.9849 -0.1903 -0.9300
17209TIP3   OH273041   2.741   3.353  13.335  0.3730 -0.2830  0.3375
17209TIP3    H173042   2.728   3.261  13.315 -0.2363  0.0524 -0.8638
17209TIP3    H273043   2.796   3.354  13.413  0.9390 -1.6513 -0.0433
17210TIP3   OH273044   1.885   4.016   2.545  0.4828 -0.2274 -0.0304
17210TIP3    H173045   1.926   4.055   2.622 -0.5831 -1.3092  1.1086
17210TIP3    H273046   1.869   4.089   2.486 -0.3519  0.8850  1.5501
17211TIP3   OH273047   6.750   0.058  14.989  0.2515 -0.3139 -0.0647
17211TIP3    H173048   6.817   0.035  15.053 -0.7747  1.0439  1.5553
17211TIP3    H273049   6.799   0.091  14.914  1.4283  1.0925  1.2713
17212TIP3   OH273050   6.509   3.214   6.098 -0.0152  0.4005 -0.4164
17212TIP3    H173051   6.457   3.145   6.138 -0.7138  1.6811  0.9602
17212TIP3    H273052   6.449   3.256   6.036 -0.1163  0.8400 -0.0223
17213TIP3   OH273053   4.265   1.157  12.106  0.2573 -0.3637 -0.5810
17213TIP3    H173054   4.187   1.130  12.059 -0.3050  0.7546 -0.3043
17213TIP3    H273055   4.327   1.184  12.037  0.2629 -0.8898 -0.7800
17214TIP3   OH273056   3.564   3.672  12.791  0.4276  0.1050  0.5225
17214TIP3    H173057   3.639   3.731  12.794 -1.0184  2.0601 -0.4616
17214TIP3    H273058   3.536   3.664  12.882  0.7378  0.8150  0.6859
17215TIP3   OH273059   2.346   2.613   2.833  0.4168  0.6503  0.2160
17215TIP3    H173060   2.280   2.567   2.782  2.2555 -2.2906  0.3349
17215TIP3    H273061   2.320   2.599   2.924 -0.1234  1.5478  0.1931
17216TIP3   OH273062   4.480   2.736  13.232 -0.8807  0.1949 -0.0984
17216TIP3    H173063   4.521   2.667  13.180  0.3237  1.5988 -1.0358
17216TIP3    H273064   4.521   2.730  13.318  1.0222  1.3286 -0.9101
17217TIP3   OH273065   5.642   1.306   4.483 -0.3345  0.5064  0.5706
17217TIP3    H173066   5.595   1.228   4.514 -0.0514  0.6365  1.3428
17217TIP3    H273067   5.698   1.331   4.556  1.1853  0.1776 -0.4587
17218TIP3   OH273068   4.565   4.254   5.708 -0.1278 -0.2964  0.4693
17218TIP3    H173069   4.641   4.207   5.742 -0.8158 -0.4959  1.7769
17218TIP3    H273070   4.512   4.273   5.786 -2.5741 -2.2383 -0.6558
17219TIP3   OH273071   3.596   4.610   1.759  0.0524 -0.1379  0.6029
17219TIP3    H173072   3.676   4.652   1.729  0.4725 -0.6115  1.0574
17219TIP3    H273073   3.533   4.682   1.770  0.3704  0.2123  0.1118
17220TIP3   OH273074   3.115   4.778   1.903 -0.0421 -0.0752 -0.0076
17220TIP3    H173075   3.113   4.754   1.810 -0.0553 -1.0496  0.2467
17220TIP3    H273076   3.023   4.780   1.929 -0.0294  0.0509  0.0305
17221TIP3   OH273077   6.563   4.048   3.828 -0.0606  0.2896 -0.0412
17221TIP3    H173078   6.545   4.115   3.894  0.2176  0.3408 -0.0150
17221TIP3    H273079   6.501   4.066   3.758 -0.4799  0.1244  0.2837
17222TIP3   OH273080   1.668   2.977   3.223  0.2037  0.1652 -0.4214
17222TIP3    H173081   1.582   2.943   3.197 -0.2952  1.8376 -1.0064
17222TIP3    H273082   1.659   3.072   3.218  1.0075  0.4929  2.9970
17223TIP3   OH273083   2.351   1.420  16.934  0.2200 -0.4744 -0.6210
17223TIP3    H173084   2.296   1.493  16.961 -1.3920 -1.6067 -0.7333
17223TIP3    H273085   2.333   1.351  16.998  0.4597 -1.3326 -1.4569
17224TIP3   OH273086   4.116   6.089   1.671 -0.7444 -0.0981 -0.1142
17224TIP3    H173087   4.124   6.184   1.658 -0.6366 -0.3829 -2.4239
17224TIP3    H273088   4.140   6.052   1.586 -0.4831 -2.2191  0.8706
17225TIP3   OH273089   1.634   5.942   4.697  0.1134 -0.3025  0.6271
17225TIP3    H173090   1.584   5.973   4.622 -1.7651 -0.4069  1.8197
17225TIP3    H273091   1.659   6.022   4.744 -0.3688 -0.3414  0.9455
17226TIP3   OH273092   5.745   0.920  14.552 -0.3866 -0.3579 -0.3384
17226TIP3    H173093   5.703   0.889  14.472 -0.5088  1.0328 -0.8235
17226TIP3    H273094   5.696   0.878  14.623 -2.0570  0.5593 -0.9172
17227TIP3   OH273095   1.419   4.582  13.162 -0.2395 -0.1027  0.4548
17227TIP3    H173096   1.363   4.546  13.230 -0.8770 -2.3555 -1.2369
17227TIP3    H273097   1.359   4.621  13.099  0.1193 -1.6116 -0.8453
17228TIP3   OH273098   5.806   5.503  13.884  0.2221  0.2040  0.2400
17228TIP3    H173099   5.841   5.420  13.850  1.2608  0.9835 -0.6052
17228TIP3    H273100   5.875   5.538  13.940  0.2783  1.0806 -0.3613
17229TIP3   OH273101   3.464   5.286  16.581  0.3416  0.1099  0.2413
17229TIP3    H173102   3.370   5.297  16.591  0.4499  0.8066  0.5100
17229TIP3    H273103   3.495   5.255  16.666  0.1418 -1.6365 -0.2976
17230TIP3   OH273104   4.568   3.565   5.118  0.1281  0.1258 -0.3744
17230TIP3    H173105   4.536   3.654   5.105 -0.9251 -0.1699  0.0945
17230TIP3    H273106   4.662   3.575   5.136  0.0669  1.1093 -0.5991
17231TIP3   OH273107   6.529   4.347   5.282 -0.1954  0.0005  0.2399
17231TIP3    H173108   6.603   4.286   5.285 -0.1993  0.0331  1.1024
17231TIP3    H273109   6.525   4.383   5.371  0.8255  2.4531 -0.6685
17232TIP3   OH273110   4.360   4.760  15.641 -0.4430 -0.0095 -0.4185
17232TIP3    H173111   4.390   4.846  15.671 -1.8700  0.3434  0.0759
17232TIP3    H273112   4.439   4.706  15.639  0.1498  0.7439  1.2763
17233TIP3   OH273113   3.883   2.625   4.775  0.4318 -0.0121  0.3210
17233TIP3    H173114   3.845   2.633   4.687  1.6812 -1.3997 -0.3683
17233TIP3    H273115   3.885   2.531   4.792  0.3076  0.2520  1.7913
17234TIP3   OH273116   1.584   4.208  14.472  0.2893  0.2567  0.1409
17234TIP3    H173117   1.600   4.266  14.547 -0.6809 -0.7593  1.1619
17234TIP3    H273118   1.661   4.152  14.468  0.5362  0.6003  0.1230
17235TIP3   OH273119   0.141   3.431  16.344 -0.2928  0.0528 -0.4099
17235TIP3    H173120   0.109   3.521  16.342  3.2985  1.3699 -2.8710
17235TIP3    H273121   0.100   3.389  16.269 -2.3625 -0.5835  1.0222
17236TIP3   OH273122   6.579   3.630   2.822  0.2582  0.0439 -0.4995
17236TIP3    H173123   6.628   3.550   2.804  1.0378  0.3504  0.2742
17236TIP3    H273124   6.590   3.683   2.743  1.5081  0.2825 -0.1739
17237TIP3   OH273125   3.797   3.467  15.149  0.2479 -0.1050  0.4659
17237TIP3    H173126   3.704   3.452  15.165  0.4496 -0.4674  1.3321
17237TIP3    H273127   3.841   3.429  15.225  1.1201 -0.1450 -0.0494
17238TIP3   OH273128   1.112   4.297  12.779  0.1816 -0.0471 -0.8845
17238TIP3    H173129   1.202   4.279  12.806 -0.3012 -1.5686 -0.2317
17238TIP3    H273130   1.098   4.242  12.702 -0.0880  0.4603 -1.2059
17239TIP3   OH273131   5.314   2.745  17.233  0.0076 -0.3676 -0.0781
17239TIP3    H173132   5.238   2.774  17.181  0.4963  0.6490 -0.2309
17239TIP3    H273133   5.293   2.655  17.256 -0.6866 -0.5120 -1.1953
17240TIP3   OH273134   0.277   3.114   2.707  0.0739 -0.2034  0.2874
17240TIP3    H173135   0.291   3.133   2.800 -0.3176 -0.8290  0.4762
17240TIP3    H273136   0.190   3.075   2.703 -0.1729  0.4189 -0.4278
17241TIP3   OH273137   2.692   6.043   0.701 -0.0434  0.0676 -0.3280
17241TIP3    H173138   2.745   6.036   0.622  0.7595 -0.1794  0.2227
17241TIP3    H273139   2.624   6.108   0.680  0.3178  0.1844 -1.1259
17242TIP3   OH273140   5.733   2.836  12.593 -0.0751  0.7167  0.1170
17242TIP3    H173141   5.783   2.794  12.663 -0.2440 -1.6079 -1.1155
17242TIP3    H273142   5.800   2.872  12.535  0.1328 -0.0874 -0.1502
17243TIP3   OH273143   1.709   2.690  12.243 -0.2410  0.6212 -0.2013
17243TIP3    H173144   1.755   2.768  12.214  1.1784 -0.2025 -0.1917
17243TIP3    H273145   1.772   2.619  12.232 -0.9464 -0.2798  1.3564
17244TIP3   OH273146   6.599   2.818   3.229 -0.3898  0.4263  0.1210
17244TIP3    H173147   6.628   2.909   3.220 -1.2333  0.6369 -0.5911
17244TIP3    H273148   6.676   2.766   3.208 -0.5719  0.9714 -2.0846
17245TIP3   OH273149   0.311   1.377   1.374  0.2637 -0.2825 -0.6856
17245TIP3    H173150   0.306   1.321   1.297  0.8304  1.6330 -2.1387
17245TIP3    H273151   0.401   1.408   1.376 -0.0748  0.6915  0.0050
17246TIP3   OH273152   4.902   3.456   1.497 -0.1331 -0.2199  0.8118
17246TIP3    H173153   4.910   3.544   1.461 -1.2029  0.0750  1.2575
17246TIP3    H273154   4.952   3.458   1.578 -0.4839  0.0923  1.0199
17247TIP3   OH273155   0.016   4.050   5.042  0.0848  0.8283  0.1889
17247TIP3    H173156  -0.031   3.967   5.052  0.7157  0.6288  1.6303
17247TIP3    H273157  -0.038   4.113   5.090  0.3258  0.9731  0.2699
17248TIP3   OH273158   5.871   4.845   4.631 -0.5414 -0.1551  0.1777
17248TIP3    H173159   5.928   4.774   4.661 -1.6977 -0.4673  1.6685
17248TIP3    H273160   5.827   4.809   4.554  0.7408 -0.1542 -0.5758
17249TIP3   OH273161   4.509   4.575   0.577 -0.0801 -0.4693 -0.7458
17249TIP3    H173162   4.557   4.492   0.573  0.3202 -0.6156  4.0195
17249TIP3    H273163   4.418   4.551   0.563  0.0574 -1.7030  0.3824
17250TIP3   OH273164   0.547   2.926  12.423  0.0058  0.6182  0.0703
17250TIP3    H173165   0.481   2.976  12.472 -0.0159  2.2276 -1.5552
17250TIP3    H273166   0.622   2.986  12.418 -0.0726  0.5638 -2.0393
17251TIP3   OH273167   6.786   3.506  15.956 -0.9297  0.0525  0.0841
17251TIP3    H173168   6.874   3.472  15.973  0.4983  2.6582 -1.7583
17251TIP3    H273169   6.743   3.436  15.907  1.0840 -0.1529 -1.4477
17252TIP3   OH273170   3.322   5.743  16.193  0.8687  0.2389 -0.2978
17252TIP3    H173171   3.298   5.654  16.166  1.0212 -0.4482  1.7574
17252TIP3    H273172   3.239   5.790  16.195  0.5722 -0.2974  0.1847
17253TIP3   OH273173   5.991   2.544   1.118  0.2303  0.5373  0.2946
17253TIP3    H173174   5.908   2.584   1.141 -0.7798 -1.3564  0.0333
17253TIP3    H273175   6.032   2.605   1.057 -1.7619  0.6241 -0.9689
17254TIP3   OH273176   1.535   4.976   3.268 -0.1023 -0.2145 -0.4680
17254TIP3    H173177   1.443   4.994   3.288 -0.0670  0.8424 -1.1931
17254TIP3    H273178   1.561   4.909   3.331 -1.2997 -0.3385 -0.0960
17255TIP3   OH273179   2.929   4.953   5.503  0.7979 -0.5372  0.0702
17255TIP3    H173180   2.996   4.932   5.437  2.7161 -0.0215  1.7963
17255TIP3    H273181   2.923   5.049   5.500  0.4760 -0.5527  0.2387
17256TIP3   OH273182   6.273   0.977  11.670  0.5497 -0.6426  0.2532
17256TIP3    H173183   6.283   1.069  11.646 -1.5148 -0.5197 -0.2470
17256TIP3    H273184   6.268   0.931  11.586  1.5344 -1.2258  0.4997
17257TIP3   OH273185   4.506   0.837  11.903  0.1955 -0.6900  0.1823
17257TIP3    H173186   4.543   0.904  11.960  0.8479 -1.9609  1.2859
17257TIP3    H273187   4.463   0.776  11.963 -1.1953 -0.7700 -0.8778
17258TIP3   OH273188   4.942   2.530  13.102 -0.0510  0.1344 -0.4354
17258TIP3    H173189   4.952   2.549  13.008 -2.5631 -2.1449 -1.2307
17258TIP3    H273190   4.977   2.442  13.113 -3.4797 -1.2439 -0.0780
17259TIP3   OH273191   0.956   3.617  12.363  0.4035 -0.0908  0.0875
17259TIP3    H173192   0.995   3.656  12.442  0.4771  0.2011 -0.0918
17259TIP3    H273193   0.898   3.686  12.330 -0.5515 -0.6527  0.5611
17260TIP3   OH273194   4.477   5.000  14.211 -0.0028  0.9693  0.0494
17260TIP3    H173195   4.565   5.018  14.179 -0.4755  0.0038 -1.8942
17260TIP3    H273196   4.427   4.977  14.132 -2.3781  2.9730  0.8843
17261TIP3   OH273197   0.186   3.594  13.559  0.0925 -0.1111 -0.2957
17261TIP3    H173198   0.129   3.602  13.635  0.7211 -2.1917  0.4193
17261TIP3    H273199   0.253   3.661  13.573 -1.2534  1.2748 -0.3500
17262TIP3   OH273200   0.278   0.061  13.465  0.7669  0.0676  0.2811
17262TIP3    H173201   0.202   0.057  13.523  1.7927 -0.5970  1.6106
17262TIP3    H273202   0.328   0.136  13.496  0.1828  1.0963 -1.2112
17263TIP3   OH273203   1.718   3.012   5.145  0.4169  0.6809  0.2730
17263TIP3    H173204   1.772   3.042   5.218  1.1335  0.5237 -0.1910
17263TIP3    H273205   1.671   3.090   5.116  2.8068  1.5211 -1.3843
17264TIP3   OH273206   3.752   2.282  15.956  0.2829  0.6815  0.5819
17264TIP3    H173207   3.847   2.289  15.946  0.3439  1.1890  1.5453
17264TIP3    H273208   3.739   2.211  16.019 -0.0737 -1.4208 -1.7579
17265TIP3   OH273209   4.199   2.897   6.531 -0.7864  0.0570  0.5535
17265TIP3    H173210   4.293   2.913   6.544 -0.2968  1.1464 -3.6064
17265TIP3    H273211   4.196   2.816   6.479 -2.2570 -0.7835  1.8997
17266TIP3   OH273212   4.104   6.653   5.605 -0.5232 -0.4965  0.6531
17266TIP3    H173213   4.189   6.609   5.596 -1.3501 -2.1416  0.9039
17266TIP3    H273214   4.110   6.728   5.544  1.5087  0.0410  1.4746
17267TIP3   OH273215   5.473   5.202  13.256 -0.2142  0.7464 -0.0502
17267TIP3    H173216   5.429   5.213  13.172  1.5104  1.6361 -0.8674
17267TIP3    H273217   5.467   5.287  13.299  2.9659  1.6907 -1.3286
17268TIP3   OH273218   1.465   4.220  14.829 -0.1758 -0.3019 -0.4345
17268TIP3    H173219   1.483   4.311  14.806 -1.8294  0.4547  1.1004
17268TIP3    H273220   1.370   4.216  14.837  0.0524 -1.3614  2.4984
17269TIP3   OH273221   2.448   1.863   0.162  0.3959  0.4169 -0.1942
17269TIP3    H173222   2.429   1.799   0.093  2.7767  0.3471 -0.8272
17269TIP3    H273223   2.406   1.944   0.132  1.3118  0.3526 -1.6635
17270TIP3   OH273224   5.808   2.103  11.773 -0.3894 -0.5701  0.4022
17270TIP3    H173225   5.752   2.180  11.775  0.5456  0.0995  1.5516
17270TIP3    H273226   5.794   2.061  11.857  0.0092 -0.9897  0.2603
17271TIP3   OH273227   0.874   4.564  13.480  0.4903 -0.7765 -0.0044
17271TIP3    H173228   0.944   4.521  13.431  0.8138 -0.5375  0.2511
17271TIP3    H273229   0.868   4.516  13.562 -0.5637 -1.6566 -0.5847
17272TIP3   OH273230   3.476   2.628   1.787  0.3173 -0.4575  0.6278
17272TIP3    H173231   3.556   2.675   1.809  0.0161  1.0551 -1.3137
17272TIP3    H273232   3.410   2.697   1.776 -0.1650 -1.2918 -2.1775
17273TIP3   OH273233   3.171   2.793  12.861  0.4401 -0.1039 -0.0992
17273TIP3    H173234   3.136   2.714  12.901 -0.1755 -0.2832 -0.9549
17273TIP3    H273235   3.236   2.762  12.798 -0.9865 -0.0707 -1.6476
17274TIP3   OH273236   6.419   3.639  13.292  0.4489  0.0017  0.0439
17274TIP3    H173237   6.510   3.648  13.323  0.7828 -0.7121 -0.7075
17274TIP3    H273238   6.378   3.722  13.314  0.9090 -0.1644  1.6570
17275TIP3   OH273239   3.343   2.106  15.614 -0.5651  0.2072  0.1039
17275TIP3    H173240   3.283   2.065  15.552 -0.4179 -3.1323  2.0732
17275TIP3    H273241   3.430   2.094  15.575 -0.5194 -1.4472  0.6703
17276TIP3   OH273242   5.650   3.620  14.276 -0.3749  0.3073  0.6218
17276TIP3    H173243   5.640   3.594  14.367 -1.9536 -1.9385 -0.1761
17276TIP3    H273244   5.563   3.651  14.250 -0.4936 -1.0888 -0.7182
17277TIP3   OH273245   0.650   6.193   5.894  0.3536  0.5208 -0.0764
17277TIP3    H173246   0.745   6.208   5.897  0.0886  2.1722  0.3388
17277TIP3    H273247   0.622   6.195   5.986  0.0375 -0.8943 -0.1250
17278TIP3   OH273248   6.780   5.998   3.344 -0.4543  0.0584  0.1442
17278TIP3    H173249   6.706   6.058   3.351 -1.2697 -0.9571  0.3289
17278TIP3    H273250   6.746   5.914   3.373  1.0833 -0.1829  1.3037
17279TIP3   OH273251   0.705   2.401  12.739 -0.0108 -0.3244 -0.3416
17279TIP3    H173252   0.697   2.448  12.656 -0.2238 -1.4261 -0.9422
17279TIP3    H273253   0.638   2.441  12.795 -0.0953  0.1909 -0.8067
17280TIP3   OH273254   0.277   6.614   6.177  0.1702  0.3529  0.5578
17280TIP3    H173255   0.334   6.559   6.124 -1.3691 -0.6983 -0.0477
17280TIP3    H273256   0.334   6.650   6.244  1.4421 -1.0500  0.2555
17281TIP3   OH273257   1.090   2.871   1.296 -0.2112 -0.2961  0.3780
17281TIP3    H173258   1.059   2.951   1.338  0.1534 -0.1118  0.2913
17281TIP3    H273259   1.029   2.857   1.223  1.1920  1.2746 -1.1421
17282TIP3   OH273260   2.702   0.808  11.791 -0.1551  0.0676  0.1620
17282TIP3    H173261   2.735   0.883  11.742 -0.9693  0.7428  0.6104
17282TIP3    H273262   2.780   0.765  11.826  0.3322  0.5879 -0.2817
17283TIP3   OH273263   6.352   1.377  14.427 -0.3246  0.0978  0.1619
17283TIP3    H173264   6.350   1.297  14.479  0.8959  0.6637  1.1120
17283TIP3    H273265   6.409   1.436  14.476  0.0742  0.9896 -1.3330
17284TIP3   OH273266   4.108   6.015  14.131 -0.0356 -0.0782 -0.4507
17284TIP3    H173267   4.055   5.981  14.059 -1.5631  1.2882 -0.0031
17284TIP3    H273268   4.113   5.944  14.194 -1.0312 -0.3414 -0.6718
17285TIP3   OH273269   3.836   0.800  14.812 -0.0036  0.2081 -0.0787
17285TIP3    H173270   3.814   0.716  14.852  1.1838  0.2035  0.5915
17285TIP3    H273271   3.903   0.778  14.746  0.5788  0.6646  0.3537
17286TIP3   OH273272   3.773   0.104  13.293 -0.3997  0.1972 -0.1327
17286TIP3    H173273   3.690   0.116  13.339  0.2904 -0.0777  1.2226
17286TIP3    H273274   3.751   0.046  13.219 -1.0027 -1.7681  1.5294
17287TIP3   OH273275   6.568   6.421   0.211  0.0335  0.0588  0.5227
17287TIP3    H173276   6.581   6.512   0.183 -0.2318  0.2301  0.9397
17287TIP3    H273277   6.625   6.412   0.288  0.7981 -0.4204 -0.0978
17288TIP3   OH273278   6.366   3.089   4.291  0.5868 -0.2990 -0.1735
17288TIP3    H173279   6.302   3.157   4.270  1.9244  0.9774 -0.1505
17288TIP3    H273280   6.325   3.040   4.363  0.0648  1.1324  0.5284
17289TIP3   OH273281   2.976   5.764  11.953  0.2055 -0.0217 -0.2338
17289TIP3    H173282   2.978   5.693  12.017  1.3942  0.2211  0.0043
17289TIP3    H273283   3.054   5.816  11.972 -0.6904  1.3937 -0.3511
17290TIP3   OH273284   0.737   6.772   2.245 -0.9124  0.4338 -0.0312
17290TIP3    H173285   0.831   6.751   2.242 -1.1744 -0.9576  0.7927
17290TIP3    H273286   0.721   6.797   2.335 -1.9893 -2.7495  0.7268
17291TIP3   OH273287   3.409   4.287  15.342  0.0780  0.6211  0.0180
17291TIP3    H173288   3.332   4.278  15.397  0.2121  0.0368  0.1181
17291TIP3    H273289   3.375   4.313  15.256 -0.1042  1.8385  0.4486
17292TIP3   OH273290   2.972   5.165  16.041  0.5697 -0.5793  0.0381
17292TIP3    H173291   2.985   5.244  15.988  1.4194 -0.7538 -0.0213
17292TIP3    H273292   2.972   5.198  16.131  2.2134 -0.6587  0.0819
17293TIP3   OH273293   2.015   6.527  11.827 -0.3034  0.3293  0.0214
17293TIP3    H173294   1.997   6.619  11.811  0.6900  0.2848 -1.4244
17293TIP3    H273295   1.963   6.480  11.762  2.6512  0.0879 -2.2941
17294TIP3   OH273296   6.438   5.210   0.261 -0.6026  0.5500 -0.2875
17294TIP3    H173297   6.446   5.279   0.195 -0.8064 -0.0758 -0.9733
17294TIP3    H273298   6.353   5.225   0.303  0.8564  2.8280  1.9972
17295TIP3   OH273299   3.895   6.236  15.127 -0.0700  0.0451  0.7617
17295TIP3    H173300   3.908   6.142  15.127  5.0787  0.6019 -0.4128
17295TIP3    H273301   3.874   6.257  15.036  2.0568  0.3530  0.3286
17296TIP3   OH273302   0.017   3.158  15.694  1.0490 -0.6314  0.0939
17296TIP3    H173303   0.101   3.169  15.738  1.0727  0.9381 -0.3379
17296TIP3    H273304  -0.048   3.183  15.759  0.9653 -0.7103  0.0423
17297TIP3   OH273305   5.825   0.268   3.993  0.4946  0.7444 -0.1818
17297TIP3    H173306   5.796   0.215   3.920  1.8051  0.2553 -0.3717
17297TIP3    H273307   5.852   0.351   3.953  1.4884  0.3713 -0.3085
17298TIP3   OH273308   0.485   0.535   0.077  0.1524  0.2937  0.5732
17298TIP3    H173309   0.578   0.527   0.098  0.0414 -0.2938  0.8710
17298TIP3    H273310   0.441   0.532   0.162 -0.0566  1.9002  0.5283
17299TIP3   OH273311   0.372   3.545   5.345 -0.0606  0.0593  0.2738
17299TIP3    H173312   0.454   3.500   5.325 -0.2448 -0.8831  1.5766
17299TIP3    H273313   0.324   3.483   5.400 -1.6328  0.6130 -0.4525
17300TIP3   OH273314   2.797   4.700   0.446 -0.1609  0.4879 -0.0371
17300TIP3    H173315   2.855   4.775   0.435  1.5967 -0.8935 -0.3636
17300TIP3    H273316   2.838   4.629   0.396 -1.7022 -0.7436  0.3829
17301TIP3   OH273317   4.430   5.610   0.707 -0.4957 -0.4332 -0.1035
17301TIP3    H173318   4.364   5.626   0.640  0.5345  0.3357 -0.9438
17301TIP3    H273319   4.434   5.515   0.714  0.9629 -0.5835 -2.7171
17302TIP3   OH273320   6.063   1.127   4.699 -0.4362 -0.0077  0.0287
17302TIP3    H173321   6.019   1.082   4.627 -0.9979  1.6328 -0.6982
17302TIP3    H273322   5.993   1.148   4.761 -0.3938  0.9858 -0.2516
17303TIP3   OH273323   0.474   2.450   4.153  0.5887 -0.1824  0.5063
17303TIP3    H173324   0.523   2.507   4.093  1.5378 -1.0726  0.4116
17303TIP3    H273325   0.504   2.475   4.240  0.1888  0.2123  0.5302
17304TIP3   OH273326   4.899   4.233   4.543 -0.0414  0.0358 -0.2881
17304TIP3    H173327   4.991   4.254   4.561 -1.2966  4.1144  2.0297
17304TIP3    H273328   4.885   4.148   4.585  1.8414  0.9592  2.3599
17305TIP3   OH273329   1.506   5.482  13.963 -0.2001  0.2324  0.0725
17305TIP3    H173330   1.577   5.474  13.900  2.5695  1.7055  2.8548
17305TIP3    H273331   1.492   5.393  13.996 -0.9436 -0.3572 -1.7660
17306TIP3   OH273332   4.496   4.137   5.456  0.2217 -0.2684  0.3972
17306TIP3    H173333   4.417   4.097   5.493 -0.2129  0.7077  0.5543
17306TIP3    H273334   4.536   4.184   5.529 -0.3362  1.1983 -0.2150
17307TIP3   OH273335   5.935   5.205   0.876  0.3066 -0.1190 -0.9040
17307TIP3    H173336   5.856   5.225   0.927  1.6117 -1.3976  1.7358
17307TIP3    H273337   5.996   5.275   0.897  1.2385 -1.2379  0.1860
17308TIP3   OH273338   6.305   3.197  12.776 -0.4664 -0.3456 -0.4446
17308TIP3    H173339   6.332   3.153  12.856  0.1589  1.9394  0.6710
17308TIP3    H273340   6.211   3.210  12.785 -0.2650  0.6650  0.3518
17309TIP3   OH273341   4.655   5.368  15.018  0.7520 -0.6464  0.0671
17309TIP3    H173342   4.730   5.314  14.994  0.3438 -0.9411 -0.5471
17309TIP3    H273343   4.632   5.337  15.106  2.1106  0.2985  0.7769
17310TIP3   OH273344   6.193   3.696  14.153 -0.3254  0.4067  0.2933
17310TIP3    H173345   6.186   3.781  14.111 -0.7717  0.4303  0.4110
17310TIP3    H273346   6.132   3.640  14.106 -0.0096  0.1414  0.1945
17311TIP3   OH273347   0.126   4.571  15.284  0.5359 -0.0985  0.2278
17311TIP3    H173348   0.057   4.637  15.273  0.4235 -0.2952 -0.2306
17311TIP3    H273349   0.184   4.585  15.210  0.4166 -0.6345  0.0357
17312TIP3   OH273350   0.216   3.822  15.603  0.2069  0.3751 -0.1279
17312TIP3    H173351   0.302   3.808  15.643 -0.3595 -0.3225  0.8894
17312TIP3    H273352   0.158   3.762  15.650 -0.8979  1.0599 -0.5903
17313TIP3   OH273353   2.470   6.242  16.778 -0.5662 -0.4626 -0.9031
17313TIP3    H173354   2.393   6.217  16.830  1.0689 -1.4415  1.1116
17313TIP3    H273355   2.536   6.266  16.843  1.0414 -0.1823 -2.5945
17314TIP3   OH273356   5.318   1.140   0.392 -0.1446 -0.2928 -0.0458
17314TIP3    H173357   5.314   1.208   0.324 -1.4843  0.8526  1.1422
17314TIP3    H273358   5.232   1.098   0.388  0.6987 -2.0091 -0.8233
17315TIP3   OH273359   6.309   5.937  13.974  0.1989 -0.1773 -0.0025
17315TIP3    H173360   6.233   5.982  14.011  0.3317 -0.5859  0.7684
17315TIP3    H273361   6.363   6.007  13.937 -0.0965  0.1943  0.2683
17316TIP3   OH273362   4.064   5.354  13.313  0.9245  0.1005  0.0175
17316TIP3    H173363   4.083   5.334  13.221 -0.5479  1.0410 -0.5033
17316TIP3    H273364   4.047   5.269  13.353  1.1058 -0.2681 -0.6782
17317TIP3   OH273365   1.187   4.001   0.004 -0.4871 -0.5083 -0.1334
17317TIP3    H173366   1.217   3.964  -0.079 -2.0313 -1.4605 -0.2857
17317TIP3    H273367   1.100   4.037  -0.016  0.6671  2.5997  0.1771
17318TIP3   OH273368   0.995   3.175  15.474 -0.4219  0.0138 -0.2347
17318TIP3    H173369   1.010   3.269  15.468 -0.7909  0.1045  0.2175
17318TIP3    H273370   1.029   3.151  15.560 -0.8772 -0.1582 -0.0991
17319TIP3   OH273371   6.642   4.856   3.912  0.1151 -0.7521  0.1777
17319TIP3    H173372   6.620   4.918   3.982 -0.5142 -1.6747  0.8047
17319TIP3    H273373   6.738   4.859   3.908  0.1503 -0.5593  0.9678
17320TIP3   OH273374   2.869   3.578  14.415  0.1644  0.0216 -0.2414
17320TIP3    H173375   2.918   3.526  14.478 -0.0612 -0.3222 -0.3462
17320TIP3    H273376   2.778   3.569  14.443  0.2713  1.6555  0.6811
17321TIP3   OH273377   3.498   0.177  15.040  0.0505 -0.3671 -0.3713
17321TIP3    H173378   3.550   0.178  15.121 -0.1274 -0.8751 -0.2510
17321TIP3    H273379   3.561   0.156  14.971  0.2169  0.1425 -0.3800
17322TIP3   OH273380   3.597   5.447  12.673 -0.0918 -0.2395  0.4129
17322TIP3    H173381   3.690   5.446  12.691  0.1430 -1.3079 -0.8052
17322TIP3    H273382   3.591   5.457  12.578 -1.1942 -1.1486  0.3741
17323TIP3   OH273383   0.133   0.378  14.137  0.3101  0.3069 -0.4129
17323TIP3    H173384   0.161   0.458  14.183  2.3284  0.2436 -1.4943
17323TIP3    H273385   0.204   0.316  14.151  0.3050 -0.1839 -2.4062
17324TIP3   OH273386   2.828   3.946  11.393 -0.4798  0.0201 -1.1731
17324TIP3    H173387   2.860   3.909  11.311  1.7894 -0.2059 -0.2238
17324TIP3    H273388   2.733   3.945  11.384 -0.2904 -0.6445 -3.5068
17325TIP3   OH273389   1.158   2.878   1.953  0.0815 -0.5320  0.5627
17325TIP3    H173390   1.147   2.892   1.859 -0.7637  0.4839  0.8077
17325TIP3    H273391   1.159   2.965   1.992  3.0711 -0.8189  1.2452
17326TIP3   OH273392   2.232   2.475   4.303 -0.3519 -0.1523  0.0820
17326TIP3    H173393   2.274   2.558   4.282  2.1672 -1.6532 -0.9926
17326TIP3    H273394   2.267   2.451   4.389  2.1427 -2.0618 -1.4000
17327TIP3   OH273395   4.851   4.795   3.253  0.1646  0.1567  0.0449
17327TIP3    H173396   4.811   4.850   3.321 -1.1242  1.3523 -1.6214
17327TIP3    H273397   4.850   4.707   3.290 -0.3071  0.8179  1.6617
17328TIP3   OH273398   6.420   3.061  15.315 -0.1577  0.0670 -0.1466
17328TIP3    H173399   6.434   3.155  15.319  1.5297 -0.1828  0.5054
17328TIP3    H273400   6.453   3.029  15.400  1.1024 -1.3027 -1.1235
17329TIP3   OH273401   2.140   5.060   0.609 -0.3191  0.1974 -0.7014
17329TIP3    H173402   2.207   5.125   0.631  1.1188 -1.0877 -1.1691
17329TIP3    H273403   2.119   5.078   0.518  0.8932 -0.6755 -1.1664
17330TIP3   OH273404   3.558   2.345   1.249 -0.8769  0.6763 -0.2308
17330TIP3    H173405   3.645   2.307   1.261 -0.4440  1.4312 -0.8992
17330TIP3    H273406   3.499   2.288   1.299 -0.1881 -0.6408 -0.9042
17331TIP3   OH273407   2.713   6.284  15.309 -0.0629 -0.4128 -0.1481
17331TIP3    H173408   2.706   6.293  15.404 -1.5871 -1.0889 -0.1830
17331TIP3    H273409   2.802   6.313  15.288  0.5717 -1.0716  1.5815
17332TIP3   OH273410   5.008   3.700  15.871  0.2532 -0.0723  0.4542
17332TIP3    H173411   5.054   3.625  15.833  1.3932  0.2471  1.1887
17332TIP3    H273412   4.966   3.665  15.949  2.3848  0.4545  1.8778
17333TIP3   OH273413   6.525   4.856  13.265  0.4146 -0.5872 -0.1731
17333TIP3    H173414   6.479   4.772  13.259  0.2881 -0.5498  0.2592
17333TIP3    H273415   6.588   4.853  13.193 -1.1922 -0.0678 -1.6495
17334TIP3   OH273416   1.713   5.072   0.931  0.1230 -0.0312  0.1404
17334TIP3    H173417   1.728   5.101   0.841  1.0862  0.7931  0.5677
17334TIP3    H273418   1.742   4.980   0.932 -2.2793 -0.8484 -1.0285
17335TIP3   OH273419   6.282   5.447   4.011 -0.3679 -0.2026  0.5751
17335TIP3    H173420   6.328   5.417   4.090  0.2371  0.1703  0.3622
17335TIP3    H273421   6.218   5.378   3.994 -0.7543 -0.1102  1.6088
17336TIP3   OH273422   3.586   6.146   1.760 -0.6187 -0.2974  0.3326
17336TIP3    H173423   3.564   6.054   1.743 -0.8884 -0.2593  0.4787
17336TIP3    H273424   3.681   6.146   1.771 -0.3692 -0.2489 -1.7069
17337TIP3   OH273425   6.195   5.128  11.468 -0.2964 -0.7282 -0.2454
17337TIP3    H173426   6.123   5.071  11.492 -0.1631 -0.7739  0.0526
17337TIP3    H273427   6.272   5.071  11.466 -0.0433 -0.4420  0.7213
17338TIP3   OH273428   3.354   6.358   1.207 -0.2693  0.1174  0.2157
17338TIP3    H173429   3.258   6.348   1.209 -0.1290 -1.0958  2.2229
17338TIP3    H273430   3.369   6.448   1.238 -0.7477  0.3724 -0.2753
17339TIP3   OH273431   5.791   4.484  14.267  0.1999  0.3333  0.4790
17339TIP3    H173432   5.786   4.400  14.313  3.4547  1.7246  3.6777
17339TIP3    H273433   5.858   4.470  14.200 -0.5780 -0.1162 -0.2165
17340TIP3   OH273434   5.473   0.921  15.452 -0.1782  0.1849 -0.6469
17340TIP3    H173435   5.411   0.896  15.521  1.3109  2.4868  1.5727
17340TIP3    H273436   5.520   0.840  15.432 -1.0895 -0.6578  0.5376
17341TIP3   OH273437   0.595   2.344   1.849 -0.4066  0.0951 -0.4332
17341TIP3    H173438   0.566   2.399   1.777 -0.7626 -0.1865 -0.5047
17341TIP3    H273439   0.518   2.334   1.905 -0.9881 -2.2096 -1.5916
17342TIP3   OH273440   4.877   5.635   4.226  0.3011  0.3860 -0.6095
17342TIP3    H173441   4.926   5.716   4.237 -0.0073  0.5722 -0.5992
17342TIP3    H273442   4.926   5.570   4.277  1.1981  0.3028 -1.5638
17343TIP3   OH273443   3.610   0.986   4.547  0.3696 -0.1747 -0.0687
17343TIP3    H173444   3.622   1.081   4.553 -0.0133 -0.0326 -1.4776
17343TIP3    H273445   3.535   0.975   4.489  0.3237 -1.3455  0.2025
17344TIP3   OH273446   3.692   5.458  16.497 -0.3514 -0.4126 -0.0417
17344TIP3    H173447   3.607   5.439  16.538 -0.8237  0.3140 -0.6751
17344TIP3    H273448   3.720   5.373  16.461 -0.6671 -0.7197  0.4290
17345TIP3   OH273449   1.571   2.885   1.736 -0.5803 -0.1038 -0.1374
17345TIP3    H173450   1.514   2.826   1.687 -0.1897  0.8533 -1.7792
17345TIP3    H273451   1.658   2.870   1.699  0.1780 -1.1144  1.9373
17346TIP3   OH273452   0.868   4.209  16.844  0.2306 -1.0575 -0.0325
17346TIP3    H173453   0.854   4.119  16.815 -1.1122 -1.1742  0.9902
17346TIP3    H273454   0.798   4.259  16.802  1.7384 -0.2461 -1.6571
17347TIP3   OH273455   5.713   3.198  10.996 -0.0187 -0.0820  0.1736
17347TIP3    H173456   5.623   3.210  11.028 -1.0647 -0.3669 -2.5472
17347TIP3    H273457   5.761   3.168  11.073 -2.2130  0.2214  1.7318
17348TIP3   OH273458   3.526   5.925  17.147 -0.5080 -0.5205  0.3204
17348TIP3    H173459   3.475   5.844  17.151  1.0761 -1.5397 -0.0171
17348TIP3    H273460   3.615   5.899  17.169 -0.1695  1.3063  1.1583
17349TIP3   OH273461   0.042   6.337  14.308  1.0111  0.6427 -0.3844
17349TIP3    H173462   0.007   6.276  14.243 -0.4621  1.1034 -0.0451
17349TIP3    H273463   0.126   6.300  14.333 -0.4019 -1.9051  0.7252
17350TIP3   OH273464   3.033   5.312   4.117  0.2147  0.2107  0.1396
17350TIP3    H173465   3.092   5.302   4.042 -1.2272  0.4223 -1.0711
17350TIP3    H273466   2.954   5.263   4.091 -0.2425  0.1738  1.5894
17351TIP3   OH273467   1.146   2.657   4.191 -0.4959  0.3413 -0.2028
17351TIP3    H173468   1.211   2.596   4.157 -1.4783 -0.9250  0.1749
17351TIP3    H273469   1.119   2.620   4.275 -0.6535  1.6053  0.3130
17352TIP3   OH273470   3.793   5.689  11.507 -0.0551 -0.1050  0.2750
17352TIP3    H173471   3.865   5.662  11.450  0.5863 -0.7091  1.3416
17352TIP3    H273472   3.825   5.768  11.550 -0.4664  0.2515 -0.0748
17353TIP3   OH273473   3.557   4.948  12.527 -0.2245 -0.8564  0.1044
17353TIP3    H173474   3.576   4.979  12.616  0.8671  0.7543 -0.6664
17353TIP3    H273475   3.618   4.875  12.514  0.1160 -0.6306  0.4099
17354TIP3   OH273476   1.473   0.647  14.410  0.0396  0.1834 -0.2643
17354TIP3    H173477   1.380   0.627  14.420 -0.2816  1.5138 -0.3824
17354TIP3    H273478   1.515   0.562  14.397 -0.9232 -0.5941  1.4721
17355TIP3   OH273479   0.433   1.570   4.879  0.1366  0.5696 -0.6342
17355TIP3    H173480   0.511   1.514   4.876 -0.1487  0.0507  1.2921
17355TIP3    H273481   0.382   1.545   4.802  0.5187 -1.0766 -0.3618
17356TIP3   OH273482   5.246   6.361  15.381  0.4223 -0.2170  0.1216
17356TIP3    H173483   5.302   6.308  15.436  0.5029  0.2316  0.4774
17356TIP3    H273484   5.297   6.376  15.301  0.3584 -0.7505 -0.0236
17357TIP3   OH273485   2.696   1.419  12.194 -0.0582  0.1800 -0.0390
17357TIP3    H173486   2.778   1.469  12.196 -1.1863  2.0677  0.0882
17357TIP3    H273487   2.692   1.375  12.279  1.9516 -1.8450 -0.9312
17358TIP3   OH273488   3.142   2.077   4.018  0.2428 -0.6176  0.6681
17358TIP3    H173489   3.182   2.160   4.044 -1.4262 -0.4644  2.9271
17358TIP3    H273490   3.060   2.101   3.975 -0.5390 -1.0601  1.8609
17359TIP3   OH273491   0.413   0.155  12.856 -0.5650 -1.2197 -0.7481
17359TIP3    H173492   0.495   0.188  12.818 -0.4118 -0.9137 -0.1506
17359TIP3    H273493   0.425   0.061  12.861  0.1552 -1.0696  0.3147
17360TIP3   OH273494   2.923   3.701   2.185 -0.7652  0.2665 -0.1819
17360TIP3    H173495   2.902   3.718   2.277  0.1164  1.9877 -0.2834
17360TIP3    H273496   2.887   3.777   2.138 -0.3270 -0.1134 -1.1365
17361TIP3   OH273497   4.439   5.646  16.704  0.1541 -0.0535 -0.0100
17361TIP3    H173498   4.441   5.740  16.683 -2.1562  0.6290  2.5538
17361TIP3    H273499   4.453   5.642  16.798  0.6064 -2.3391 -0.1449
17362TIP3   OH273500   1.125   1.501  13.872 -0.2645  0.7123  0.0196
17362TIP3    H173501   1.211   1.505  13.913 -1.0784 -0.1805  1.9273
17362TIP3    H273502   1.064   1.517  13.944 -1.6799  1.9443 -1.4200
17363TIP3   OH273503   0.402   1.005   3.540  0.0299 -0.1573  0.3988
17363TIP3    H173504   0.400   1.013   3.635  0.7501 -2.2641  0.6101
17363TIP3    H273505   0.328   0.949   3.519 -0.6084  0.9626 -0.3628
17364TIP3   OH273506   2.526   6.667   1.124 -0.0541  0.3188 -0.0561
17364TIP3    H173507   2.522   6.578   1.090 -2.5774  0.6017 -0.5997
17364TIP3    H273508   2.557   6.719   1.050  0.6559  0.0137  0.0232
17365TIP3   OH273509   4.132   4.470  12.424  0.0707  0.2956 -0.9747
17365TIP3    H173510   4.159   4.433  12.340  0.2682 -0.3172 -0.6445
17365TIP3    H273511   4.182   4.552  12.431  0.7888 -0.1373 -1.0069
17366TIP3   OH273512   0.810   0.776  10.749 -0.2789  0.0942  0.4995
17366TIP3    H173513   0.790   0.868  10.734 -0.1937 -0.2017 -1.7249
17366TIP3    H273514   0.725   0.732  10.747 -0.2471  0.0236  0.7118
17367TIP3   OH273515   6.471   0.558  13.137  0.3712 -0.0219  0.0282
17367TIP3    H173516   6.473   0.485  13.199 -0.5549 -1.0143 -1.1127
17367TIP3    H273517   6.422   0.627  13.183  0.3208 -0.4849  0.6793
17368TIP3   OH273518   2.705   4.624  15.486  0.1397  0.7794  0.8038
17368TIP3    H173519   2.790   4.585  15.465  0.5456  0.6421  2.6083
17368TIP3    H273520   2.665   4.563  15.548 -1.0780  1.0799  0.3238
17369TIP3   OH273521   3.098   0.177  16.660  0.2182 -0.0954  0.7679
17369TIP3    H173522   3.185   0.181  16.700 -0.1163 -0.0134  1.4940
17369TIP3    H273523   3.115   0.177  16.566  0.9100  2.6967  0.8509
17370TIP3   OH273524   4.541   3.585  15.050  0.2673  0.2502  0.0158
17370TIP3    H173525   4.595   3.520  15.095 -0.5151  0.9161  1.9866
17370TIP3    H273526   4.466   3.535  15.017  0.0526  0.0006  0.8563
17371TIP3   OH273527   4.102   3.509   0.222 -0.5256 -0.0240  0.4728
17371TIP3    H173528   4.044   3.489   0.148 -0.9016  1.2652  0.4068
17371TIP3    H273529   4.159   3.579   0.190 -3.1400  3.2223  2.5453
17372TIP3   OH273530   2.905   3.417   5.261 -0.1461 -0.3472  0.0148
17372TIP3    H173531   2.918   3.399   5.354  1.3870 -3.9413 -0.8376
17372TIP3    H273532   2.986   3.460   5.233  0.2263 -1.1410 -0.1187
17373TIP3   OH273533   3.131   1.410  14.950 -0.6370 -0.3188 -0.3612
17373TIP3    H173534   3.112   1.320  14.923  1.1674 -0.7473 -0.2601
17373TIP3    H273535   3.209   1.434  14.900  1.3882 -0.3024  2.6894
17374TIP3   OH273536   5.859   0.200   1.501 -0.1521 -0.1517 -0.4874
17374TIP3    H173537   5.940   0.249   1.486  0.4453 -0.6053  1.1806
17374TIP3    H273538   5.834   0.222   1.590 -1.7001 -0.2768 -0.8829
17375TIP3   OH273539   3.151   3.100  16.138  0.2266 -0.0171  0.0113
17375TIP3    H173540   3.097   3.175  16.163  1.9536  0.8882  1.1242
17375TIP3    H273541   3.226   3.139  16.092  1.1225 -1.0680  0.5793
17376TIP3   OH273542   0.017   5.939   3.814 -0.1901 -1.0712  0.3752
17376TIP3    H173543   0.035   6.033   3.819 -1.8450 -0.6097 -1.6132
17376TIP3    H273544   0.104   5.898   3.807  0.4764  0.4372 -0.4484
17377TIP3   OH273545   5.856   5.990  14.974  0.1787  0.2299 -0.0037
17377TIP3    H173546   5.766   6.001  15.005  0.3202 -0.0996  0.5412
17377TIP3    H273547   5.890   5.916  15.025  1.1151  1.0408  0.5786
17378TIP3   OH273548   5.756   4.284  12.841  0.0253  0.0018  0.7113
17378TIP3    H173549   5.729   4.368  12.803  1.1706 -0.6483 -1.6565
17378TIP3    H273550   5.841   4.301  12.881  0.8544 -0.2662 -0.8720
17379TIP3   OH273551   5.960   2.589   5.520 -0.4842 -0.0815  0.4925
17379TIP3    H173552   5.933   2.569   5.430  0.8481 -0.9581  0.2696
17379TIP3    H273553   6.055   2.582   5.518 -0.5048 -1.2686  2.2506
17380TIP3   OH273554   2.184   0.931   0.120 -0.0467  0.0454  0.6722
17380TIP3    H173555   2.144   0.960   0.038  0.4658 -1.4934 -0.1187
17380TIP3    H273556   2.174   0.836   0.120 -1.0587  0.1191  2.9167
17381TIP3   OH273557   6.306   6.076  12.565 -0.1729  0.0399  0.2791
17381TIP3    H173558   6.268   6.006  12.512 -0.2525 -0.1157  0.5381
17381TIP3    H273559   6.248   6.151  12.552  0.6542  0.4620 -1.0460
17382TIP3   OH273560   4.002   1.783   3.780 -0.4026 -0.1469  0.8303
17382TIP3    H173561   4.062   1.809   3.710  0.3713 -2.6699  0.4969
17382TIP3    H273562   4.056   1.731   3.839 -1.7377 -0.5115  1.7349
17383TIP3   OH273563   5.526   0.757  14.602 -0.3298  0.3870  0.1733
17383TIP3    H173564   5.482   0.801  14.529  0.6106  1.9281  0.5066
17383TIP3    H273565   5.461   0.695  14.635 -0.8588 -0.1472 -1.7919
17384TIP3   OH273566   3.115   5.692  14.311  0.0846 -0.3224  0.3091
17384TIP3    H173567   3.097   5.609  14.356 -0.2190  0.5490  1.8441
17384TIP3    H273568   3.208   5.708  14.328  0.0702 -0.1960  0.2683
17385TIP3   OH273569   2.919   3.511   1.640  0.2640  0.5198 -0.0282
17385TIP3    H173570   2.864   3.530   1.716  1.9660 -1.0249  1.6444
17385TIP3    H273571   2.945   3.597   1.606  0.0076  1.2158  1.5239
17386TIP3   OH273572   6.134   0.743   0.326  0.2336  0.2983 -0.1895
17386TIP3    H173573   6.225   0.726   0.352  0.0665  0.8488  0.7836
17386TIP3    H273574   6.138   0.759   0.232  0.8237 -2.0075 -0.5809
17387TIP3   OH273575   0.097   4.465   3.039 -0.9645 -0.1789 -0.3763
17387TIP3    H173576   0.021   4.523   3.048 -2.0471 -1.2312 -2.4164
17387TIP3    H273577   0.171   4.518   3.067 -2.3616  1.0993  0.9680
17388TIP3   OH273578   6.756   1.073   4.731  0.0652 -0.4447 -0.3926
17388TIP3    H173579   6.761   1.131   4.807  4.0123 -2.5009  1.0672
17388TIP3    H273580   6.674   1.024   4.744 -0.6038  1.0212  1.1608
17389TIP3   OH273581   5.486   4.471   4.518 -0.6202  0.0159  0.2134
17389TIP3    H173582   5.420   4.471   4.449  1.7387 -0.5386 -2.1311
17389TIP3    H273583   5.499   4.378   4.539 -0.1310  0.0758  0.1911
17390TIP3   OH273584   0.679   1.940   6.046 -0.5555 -0.1564 -0.9090
17390TIP3    H173585   0.615   1.965   6.113  0.5396 -0.3491  0.2193
17390TIP3    H273586   0.693   1.847   6.059 -1.1548 -0.4341 -2.1325
17391TIP3   OH273587   5.148   2.384  12.576 -0.1192  0.3287  0.1326
17391TIP3    H173588   5.087   2.364  12.504 -0.4708  1.5659  0.0843
17391TIP3    H273589   5.149   2.479  12.581  0.2589  0.2586  1.4857
17392TIP3   OH273590   4.641   1.904   4.381 -0.4902  0.0870 -0.7518
17392TIP3    H173591   4.619   1.961   4.455 -1.0848  0.8006 -1.4596
17392TIP3    H273592   4.580   1.932   4.312 -0.4682 -1.1016 -1.2519
17393TIP3   OH273593   6.442   2.128  10.518  0.2578  0.2300 -0.0299
17393TIP3    H173594   6.350   2.152  10.530 -0.3082 -1.0439 -1.6481
17393TIP3    H273595   6.442   2.032  10.522  1.5937  0.2406  0.4161
17394TIP3   OH273596   4.321   0.600  11.946  0.1317  0.1583  0.1743
17394TIP3    H173597   4.262   0.563  12.012 -0.5766  1.2134  0.1430
17394TIP3    H273598   4.272   0.592  11.863 -0.6642  2.5215  0.3880
17395TIP3   OH273599   3.974   2.702  14.659  0.3282 -0.1940 -0.3328
17395TIP3    H173600   3.998   2.793  14.677 -0.5044 -0.2303  1.0901
17395TIP3    H273601   3.918   2.707  14.582 -0.3733  0.6053  0.2126
17396TIP3   OH273602   5.280   5.320  16.915  0.6235  0.2915 -0.1918
17396TIP3    H173603   5.214   5.346  16.979  1.3155  1.2010  0.1624
17396TIP3    H273604   5.230   5.276  16.846 -0.0787 -1.1073  1.1702
17397TIP3   OH273605   5.865   1.120  14.371  0.3013  0.0415  0.0929
17397TIP3    H173606   5.837   1.070  14.448  3.7265 -0.4446  1.0669
17397TIP3    H273607   5.897   1.053  14.310 -3.0584  0.3257 -2.1970
17398TIP3   OH273608   3.746   3.212   5.869 -0.0349  0.5381  0.6728
17398TIP3    H173609   3.725   3.143   5.806  0.3539  0.6667  0.4003
17398TIP3    H273610   3.791   3.279   5.817  3.5675 -0.9208  1.6837
17399TIP3   OH273611   2.289   3.220  11.257  0.0822 -0.0717  0.0103
17399TIP3    H173612   2.350   3.220  11.331  0.1492 -0.7118 -0.0429
17399TIP3    H273613   2.339   3.183  11.184 -0.6473 -1.4762  0.2059
17400TIP3   OH273614   0.694   4.130  16.611 -0.0899 -0.0162  0.5087
17400TIP3    H173615   0.704   4.120  16.517 -0.9231 -0.9199  0.5064
17400TIP3    H273616   0.640   4.208  16.621  0.5081  0.4339  0.2660
17401TIP3   OH273617   3.633   4.537  14.883  0.0002 -0.3197 -0.2506
17401TIP3    H173618   3.571   4.537  14.810 -1.0427  0.0792  0.6100
17401TIP3    H273619   3.678   4.453  14.876  1.3759  0.5722 -2.5428
17402TIP3   OH273620   4.233   6.395   5.290 -0.3469  0.2135 -0.4649
17402TIP3    H173621   4.168   6.325   5.292  0.2242 -0.3428 -1.3287
17402TIP3    H273622   4.200   6.457   5.226 -0.8088  0.7007  0.2369
17403TIP3   OH273623   1.580   6.171  16.487  0.2092  0.3244 -0.1734
17403TIP3    H173624   1.495   6.176  16.444  0.4960  1.7163 -0.6094
17403TIP3    H273625   1.640   6.142  16.419  0.5074  1.6840 -0.5036
17404TIP3   OH273626   4.432   1.379   2.424  0.2075  0.0267  0.5005
17404TIP3    H173627   4.406   1.326   2.348  0.8966 -0.3865  0.5423
17404TIP3    H273628   4.497   1.325   2.469  1.0386  0.9705  0.4639
17405TIP3   OH273629   6.408   2.155  15.221  0.1407 -0.5429 -0.1904
17405TIP3    H173630   6.439   2.237  15.258  0.5849 -0.3156 -1.0420
17405TIP3    H273631   6.316   2.149  15.247  0.3469 -0.2109  0.6189
17406TIP3   OH273632   0.211   5.566   2.346 -0.0916  0.4152 -0.6766
17406TIP3    H173633   0.293   5.518   2.365 -0.0385  0.4448 -0.8343
17406TIP3    H273634   0.235   5.627   2.277 -0.4390 -0.1133 -1.2675
17407TIP3   OH273635   0.976   2.124  15.070 -0.1554 -0.2525  0.4545
17407TIP3    H173636   0.887   2.157  15.084 -0.0643  0.9470 -1.6048
17407TIP3    H273637   1.032   2.202  15.074  0.7414 -0.9116  1.0798
17408TIP3   OH273638   6.564   4.134   1.800 -0.4068 -0.0688 -0.0714
17408TIP3    H173639   6.589   4.101   1.714 -1.2873  2.6863 -1.4083
17408TIP3    H273640   6.469   4.128   1.802 -0.3316 -1.4573  1.3146
17409TIP3   OH273641   3.918   1.868   4.778  0.1373  0.1353 -0.1309
17409TIP3    H173642   3.847   1.926   4.749  0.8065  0.6278 -0.8069
17409TIP3    H273643   3.880   1.780   4.773 -0.5262  0.4164 -0.1840
17410TIP3   OH273644   2.969   1.315  14.651 -0.3214 -0.1943 -0.0875
17410TIP3    H173645   2.972   1.346  14.741 -1.2997 -2.5486  0.7730
17410TIP3    H273646   2.955   1.395  14.599  2.1225  1.4332  1.6307
17411TIP3   OH273647   5.858   4.744  14.777  0.2867 -0.5282 -0.3811
17411TIP3    H173648   5.880   4.836  14.795 -1.1747 -0.4966  1.4144
17411TIP3    H273649   5.774   4.748  14.732 -0.7836 -1.0448  1.5213
17412TIP3   OH273650   2.940   5.289  12.382  0.0011  0.2022 -0.0427
17412TIP3    H173651   2.897   5.375  12.384 -2.5829 -1.0308 -0.5662
17412TIP3    H273652   2.875   5.229  12.417  0.6317 -2.0357 -2.5841
17413TIP3   OH273653   5.216   5.597   1.379 -0.3916  1.0787 -0.4164
17413TIP3    H173654   5.156   5.619   1.449  0.6588  0.1045  0.8186
17413TIP3    H273655   5.286   5.663   1.386 -0.7492  1.5324 -1.1261
17414TIP3   OH273656   4.691   2.349  14.888  0.4484  0.1651 -0.3817
17414TIP3    H173657   4.692   2.445  14.889 -0.9353  0.1917 -0.1951
17414TIP3    H273658   4.607   2.327  14.849  1.0136 -0.9853 -0.9598
17415TIP3   OH273659   6.023   5.646  15.544 -0.1453  0.2042 -0.2223
17415TIP3    H173660   6.085   5.645  15.471 -0.5620  0.3876 -0.5838
17415TIP3    H273661   6.068   5.601  15.615  1.2760  2.3339  0.2687
17416TIP3   OH273662   4.269   3.218  13.234  0.2087 -0.4126  0.7066
17416TIP3    H173663   4.224   3.174  13.162  1.7675 -1.2680  0.2273
17416TIP3    H273664   4.362   3.196  13.222  0.7785  1.3695  1.6282
17417TIP3   OH273665   6.162   3.873  15.730  0.8973  0.0034 -0.2948
17417TIP3    H173666   6.096   3.848  15.795  0.4423 -1.7744 -1.4095
17417TIP3    H273667   6.151   3.968  15.720 -1.5304 -0.2731 -0.5057
17418TIP3   OH273668   2.884   0.234  12.896 -0.6067  0.7226 -0.2684
17418TIP3    H173669   2.881   0.265  12.986 -1.2317  1.3895 -0.5207
17418TIP3    H273670   2.821   0.288  12.849  0.9638  1.5409 -1.4777
17419TIP3   OH273671   6.483   0.657  13.615  0.3977  0.4893 -0.4183
17419TIP3    H173672   6.490   0.647  13.710  0.2931  1.6761 -0.2701
17419TIP3    H273673   6.450   0.573  13.584  0.8030 -0.0340  0.5581
17420TIP3   OH273674   4.179   6.266   3.564  0.0342  0.5642 -0.1453
17420TIP3    H173675   4.163   6.238   3.655 -3.5374 -0.8779 -1.1059
17420TIP3    H273676   4.221   6.191   3.523 -1.1506  0.0212 -0.4040
17421TIP3   OH273677   4.789   2.647  15.828 -0.0061  0.3095  0.2870
17421TIP3    H173678   4.771   2.595  15.750 -0.2196  2.0200 -0.8187
17421TIP3    H273679   4.744   2.600  15.899 -0.8190 -0.6061 -0.8137
17422TIP3   OH273680   1.221   5.000  13.525 -0.0602  0.0892  0.5134
17422TIP3    H173681   1.176   4.969  13.446 -0.3080  1.1067  0.2404
17422TIP3    H273682   1.307   4.960  13.522 -0.4100 -0.6505  0.2311
17423TIP3   OH273683   3.700   4.403  14.546  0.4972  0.1499  0.2227
17423TIP3    H173684   3.770   4.451  14.500  0.7966 -2.2244 -1.9441
17423TIP3    H273685   3.746   4.344  14.605  0.1548  1.6806  2.0728
17424TIP3   OH273686   6.121   6.776  12.727  0.3184  0.4993  0.1377
17424TIP3    H173687   6.131   6.743  12.637 -2.7841  0.3835 -0.2202
17424TIP3    H273688   6.203   6.754  12.770  0.8140 -1.8974 -1.9303
17425TIP3   OH273689   6.283   5.301  13.894  0.9767  0.3857 -0.4062
17425TIP3    H173690   6.306   5.232  13.831 -0.1500  0.2622 -0.6931
17425TIP3    H273691   6.314   5.267  13.978 -0.1013 -0.7486 -0.4509
17426TIP3   OH273692   3.285   0.729  15.398  0.4105  0.1136 -0.0508
17426TIP3    H173693   3.320   0.809  15.358  2.6715 -1.2562 -0.9062
17426TIP3    H273694   3.316   0.733  15.489 -1.9793  1.6302  0.7283
17427TIP3   OH273695   3.780   2.653   2.670  0.3388  0.2293  0.0583
17427TIP3    H173696   3.719   2.711   2.624 -0.6375  1.0729  2.3176
17427TIP3    H273697   3.848   2.711   2.704  0.3754 -0.2003  0.7276
17428TIP3   OH273698   3.747   1.146   5.642  0.0618 -0.1947 -0.0175
17428TIP3    H173699   3.804   1.135   5.565  0.3616  0.7479  0.0644
17428TIP3    H273700   3.687   1.072   5.637 -0.6811  0.4901 -1.8312
17429TIP3   OH273701   6.080   0.779   4.761 -0.6947 -0.3601  1.0310
17429TIP3    H173702   6.013   0.711   4.767  1.9099 -2.8856  2.6821
17429TIP3    H273703   6.144   0.744   4.698  0.8886  0.3553  2.2100
17430TIP3   OH273704   3.725   2.268   3.827  0.2015  0.3477  0.7513
17430TIP3    H173705   3.637   2.299   3.806  0.1707 -0.1525  0.1226
17430TIP3    H273706   3.769   2.344   3.866 -0.2545  0.8209  0.3475
17431TIP3   OH273707   3.066   6.332  16.528  0.5649  0.4744 -0.5447
17431TIP3    H173708   3.100   6.421  16.521 -1.1860  1.0844 -1.6895
17431TIP3    H273709   3.008   6.334  16.605 -0.1541  0.5645 -1.0839
17432TIP3   OH273710   4.599   4.140   4.638  0.2806 -0.2015  0.2418
17432TIP3    H173711   4.631   4.092   4.562  0.7793 -0.3797  0.5572
17432TIP3    H273712   4.572   4.072   4.700  0.9023 -0.0764  0.6538
17433TIP3   OH273713   4.109   5.602  11.804 -0.0911 -0.2161 -0.2241
17433TIP3    H173714   4.110   5.692  11.770 -0.1070 -0.0887  0.1097
17433TIP3    H273715   4.023   5.568  11.778 -0.8087  0.4625  1.1805
17434TIP3   OH273716   2.619   3.520   3.677 -0.7212  0.8861 -0.0890
17434TIP3    H173717   2.670   3.508   3.596 -1.6896  0.6436 -0.6684
17434TIP3    H273718   2.537   3.560   3.648 -0.9123  1.1584  0.8233
17435TIP3   OH273719   3.421   3.549   5.221 -0.0321 -0.0695 -0.1555
17435TIP3    H173720   3.485   3.483   5.248 -1.3928 -1.0250  0.7805
17435TIP3    H273721   3.463   3.633   5.244  1.4264 -0.6108 -0.7615
17436TIP3   OH273722   0.865   2.242  13.967 -0.1631  0.0981 -0.1058
17436TIP3    H173723   0.895   2.280  14.049  0.3707  2.8545 -1.5215
17436TIP3    H273724   0.775   2.273  13.957 -0.5250 -0.9380 -0.1551
17437TIP3   OH273725   3.592   1.952  16.538 -0.1044 -0.0975 -0.1579
17437TIP3    H173726   3.541   1.890  16.487  0.2108 -1.2782  0.9522
17437TIP3    H273727   3.538   1.969  16.616  1.7374 -2.3830  1.6774
17438TIP3   OH273728   6.029   5.356   2.677  0.1464 -0.2336  0.0228
17438TIP3    H173729   5.935   5.362   2.695 -0.4518 -2.4605 -2.0758
17438TIP3    H273730   6.043   5.412   2.601  1.0963  2.3322  1.9978
17439TIP3   OH273731   1.211   3.488   6.049  0.1257 -0.5954  0.0463
17439TIP3    H173732   1.246   3.561   5.999  0.8944 -1.0558 -0.0916
17439TIP3    H273733   1.135   3.459   5.998  0.6031 -0.7360 -0.5912
17440TIP3   OH273734   3.667   0.389   4.403 -0.5994  0.5132  0.6380
17440TIP3    H173735   3.749   0.360   4.444 -0.2377  0.8660  0.1585
17440TIP3    H273736   3.598   0.349   4.457 -0.1136  0.1985  1.0275
17441TIP3   OH273737   2.890   6.101  16.714 -0.7764 -0.1400  0.1053
17441TIP3    H173738   2.857   6.070  16.798  0.8411 -0.7965  0.5110
17441TIP3    H273739   2.971   6.053  16.700 -0.0444  1.3487 -0.9388
17442TIP3   OH273740   2.318   0.544  12.476 -0.6443 -0.5313 -0.0289
17442TIP3    H173741   2.399   0.550  12.425 -0.1492  3.5504  1.0811
17442TIP3    H273742   2.341   0.485  12.548  1.3728  0.4884  0.2242
17443TIP3   OH273743   2.602   4.772   1.286  0.5511 -0.3927  0.0989
17443TIP3    H173744   2.697   4.760   1.283  0.4587 -0.8619 -1.2858
17443TIP3    H273745   2.590   4.864   1.306  1.2932 -0.5361  1.2549
17444TIP3   OH273746   0.287   4.337   3.681 -0.2701 -0.4313 -0.1156
17444TIP3    H173747   0.253   4.263   3.631 -1.5034  0.4370 -0.5724
17444TIP3    H273748   0.336   4.389   3.618  0.8955 -1.0298  0.2813
17445TIP3   OH273749   5.270   4.458  16.306  0.0413  0.4418 -1.0302
17445TIP3    H173750   5.270   4.507  16.388  1.0842  3.5967 -2.8290
17445TIP3    H273751   5.359   4.424  16.298 -0.2632 -0.4872 -0.5111
17446TIP3   OH273752   5.457   4.584   3.434  0.6452  0.1931  0.2902
17446TIP3    H173753   5.372   4.625   3.419 -0.6476 -2.1027  1.1657
17446TIP3    H273754   5.518   4.658   3.441 -0.9921  1.8238 -1.8537
17447TIP3   OH273755   6.358   3.030  12.985  0.8538  0.0223 -0.1204
17447TIP3    H173756   6.288   2.973  13.018 -0.1735  0.3285 -1.6969
17447TIP3    H273757   6.438   2.978  12.996  0.1000 -1.2058 -0.2679
17448TIP3   OH273758   0.819   2.506   4.287 -0.3920 -0.0359  0.0745
17448TIP3    H173759   0.832   2.595   4.254 -0.1931 -0.6445 -1.5209
17448TIP3    H273760   0.845   2.511   4.379  0.4932  1.3534 -0.2291
17449TIP3   OH273761   5.967   4.631  11.371 -0.3885 -0.0654  0.0206
17449TIP3    H173762   6.007   4.627  11.285 -2.6115 -1.2496 -0.9867
17449TIP3    H273763   5.981   4.544  11.409  0.8071  0.5252  0.9927
17450TIP3   OH273764   4.490   2.505  13.569  0.4928  0.1946 -0.4744
17450TIP3    H173765   4.491   2.440  13.498 -0.7591 -0.0161 -0.3038
17450TIP3    H273766   4.497   2.453  13.649  1.1156  0.3798 -0.4070
17451TIP3   OH273767   2.481   4.166   0.538  0.0245 -0.6081  0.0884
17451TIP3    H173768   2.419   4.094   0.527 -1.6489  0.6675  0.8576
17451TIP3    H273769   2.468   4.221   0.460 -1.8841  1.1327  1.5581
17452TIP3   OH273770   6.437   3.244  14.804 -0.7181 -0.1302 -0.7854
17452TIP3    H173771   6.493   3.221  14.730  1.3018  0.7470  0.4123
17452TIP3    H273772   6.440   3.167  14.861  0.7407  0.5681  0.1148
17453TIP3   OH273773   0.517   2.272  10.815  0.1452 -0.0357 -0.2635
17453TIP3    H173774   0.499   2.304  10.903 -0.4576  1.0496 -0.7740
17453TIP3    H273775   0.435   2.286  10.767  0.2312 -1.3124 -0.7985
17454TIP3   OH273776   1.190   4.442  16.917 -0.1817 -0.5344  0.2580
17454TIP3    H173777   1.205   4.452  17.011  0.2352  0.1129  0.1336
17454TIP3    H273778   1.126   4.510  16.896 -1.4165 -1.6583  0.3387
17455TIP3   OH273779   5.120   5.883   3.073 -0.1169  0.3309 -0.0575
17455TIP3    H173780   5.055   5.951   3.055 -0.3879 -0.0834 -0.6607
17455TIP3    H273781   5.088   5.806   3.027  0.5976  0.0096 -0.0333
17456TIP3   OH273782   5.813   0.642   5.675  0.2619 -0.2701 -0.0282
17456TIP3    H173783   5.887   0.702   5.682 -0.7562  1.3384 -2.4788
17456TIP3    H273784   5.741   0.688   5.717  0.2527 -1.2018  1.0020
17457TIP3   OH273785   3.080   3.649   6.044 -0.1200 -0.3309  0.3107
17457TIP3    H173786   3.138   3.645   6.121  0.4193 -0.7417 -0.1134
17457TIP3    H273787   3.027   3.569   6.051  1.0415 -1.1957 -0.6117
17458TIP3   OH273788   4.775   4.496   3.344  0.0480 -0.1074  0.1759
17458TIP3    H173789   4.712   4.513   3.414 -1.1027 -0.0412 -0.8590
17458TIP3    H273790   4.722   4.463   3.271  1.2334 -0.2625 -0.6376
17459TIP3   OH273791   3.211   1.077  12.869  0.2183 -0.3764  0.0414
17459TIP3    H173792   3.127   1.098  12.828  0.1855 -0.4481  0.0730
17459TIP3    H273793   3.224   0.984  12.851  0.2697 -0.3761  0.0755
17460TIP3   OH273794   0.072   3.178   2.302  0.0321  0.3016 -0.1972
17460TIP3    H173795   0.041   3.200   2.214  1.4377 -0.2725 -0.8364
17460TIP3    H273796   0.061   3.083   2.308 -0.2609  0.3675  0.3349
17461TIP3   OH273797   3.712   0.627  13.422  0.0270  0.2880 -0.0609
17461TIP3    H173798   3.687   0.553  13.478  1.2639  0.5143  0.8072
17461TIP3    H273799   3.730   0.699  13.483  1.9465  0.3845 -0.7019
17462TIP3   OH273800   3.529   1.251  13.848  0.4446 -0.4272 -0.0647
17462TIP3    H173801   3.502   1.340  13.871 -0.7314 -0.8122  0.0953
17462TIP3    H273802   3.509   1.244  13.754 -2.1969 -1.4472  0.5139
17463TIP3   OH273803   5.206   1.619  16.502 -0.5645 -0.1743  0.2857
17463TIP3    H173804   5.133   1.561  16.525 -1.3936  1.2087  1.1516
17463TIP3    H273805   5.271   1.604  16.571  0.3439 -2.0082 -0.9208
17464TIP3   OH273806   1.134   6.084  16.326  0.1762  0.5539 -0.4325
17464TIP3    H173807   1.083   6.030  16.265 -0.5930  1.3568 -0.4993
17464TIP3    H273808   1.070   6.120  16.387  0.6492  1.6160 -0.5547
17465TIP3   OH273809   1.810   2.033  13.782 -0.1198 -0.0138 -0.0543
17465TIP3    H173810   1.793   2.107  13.724 -0.7744 -0.0946  0.0278
17465TIP3    H273811   1.733   2.029  13.840 -1.0486 -1.9731 -1.3571
17466TIP3   OH273812   0.843   5.200  13.485  0.3150  0.2673 -0.1119
17466TIP3    H173813   0.791   5.144  13.427 -0.0301  1.4278 -0.9313
17466TIP3    H273814   0.779   5.252  13.534  0.6861  1.8222 -1.2396
17467TIP3   OH273815   5.347   2.244   6.377 -0.3432 -1.0315  0.0306
17467TIP3    H173816   5.264   2.203   6.400  0.3910 -2.5030  0.0864
17467TIP3    H273817   5.409   2.212   6.442  0.1760  0.4126  0.2631
17468TIP3   OH273818   4.708   4.770  12.648 -0.0554  0.0841 -0.3481
17468TIP3    H173819   4.792   4.747  12.688 -0.8824 -1.2073  0.6814
17468TIP3    H273820   4.706   4.866  12.648  1.6758  0.1310 -0.9463
17469TIP3   OH273821   0.232   2.807   0.213 -0.0668 -0.2552  0.1603
17469TIP3    H173822   0.296   2.790   0.144 -0.1586  0.5742 -0.1378
17469TIP3    H273823   0.147   2.797   0.171 -0.1428 -1.3843  0.5639
17470TIP3   OH273824   3.023   1.394   3.593  0.1973  0.1021  0.1918
17470TIP3    H173825   3.102   1.404   3.539 -0.2422 -0.1302 -0.5018
17470TIP3    H273826   2.975   1.476   3.581 -0.3050 -0.2831 -0.4308
17471TIP3   OH273827   3.560   1.362  12.026 -0.5059 -0.2057  0.4434
17471TIP3    H173828   3.524   1.447  12.000  1.9053  0.3449 -1.1738
17471TIP3    H273829   3.516   1.299  11.969 -1.8719 -0.0251  1.2561
17472TIP3   OH273830   3.727   0.131   4.247  0.5316  0.0004 -0.0574
17472TIP3    H173831   3.809   0.167   4.212  1.3775 -0.1349  1.7415
17472TIP3    H273832   3.688   0.204   4.296 -1.3872  0.6463 -2.4233
17473TIP3   OH273833   5.278   5.187   0.080  0.1316 -0.3556  1.0851
17473TIP3    H173834   5.248   5.113   0.132  0.8443 -0.7598  0.9234
17473TIP3    H273835   5.367   5.204   0.110  0.9450 -1.2856 -0.7505
17474TIP3   OH273836   1.313   4.317   0.688  0.6093 -0.0714  0.1300
17474TIP3    H173837   1.233   4.368   0.688  1.3723  1.1442  0.6397
17474TIP3    H273838   1.373   4.366   0.631  1.7081  0.2020  1.5080
17475TIP3   OH273839   4.284   3.111  11.262 -0.1410  0.4450  0.0408
17475TIP3    H173840   4.230   3.090  11.338 -0.8501 -0.5727 -0.7290
17475TIP3    H273841   4.312   3.202  11.277 -1.0189  0.5638  1.0574
17476TIP3   OH273842   1.721   2.572   6.540 -0.1713 -0.0711 -0.1686
17476TIP3    H173843   1.806   2.543   6.506 -0.1500  0.4833 -0.6053
17476TIP3    H273844   1.739   2.659   6.577 -0.2992 -0.4609  0.8058
17477TIP3   OH273845   2.318   2.621   6.340  0.0556 -0.4841  0.7575
17477TIP3    H173846   2.399   2.601   6.387  0.4548  0.1160  0.3287
17477TIP3    H273847   2.320   2.715   6.327 -1.8507 -0.1041  2.8206
17478TIP3   OH273848   1.107   1.827  12.600 -0.5537 -0.0217 -0.1018
17478TIP3    H173849   1.023   1.785  12.584  0.1959 -0.6461 -2.5074
17478TIP3    H273850   1.085   1.918  12.620 -1.6999  0.2369 -2.4356
17479TIP3   OH273851   3.814   5.272   6.385 -0.4516 -0.2067 -0.7829
17479TIP3    H173852   3.894   5.234   6.422 -0.8293  0.1421  0.4217
17479TIP3    H273853   3.819   5.252   6.291  1.2445  0.1597 -0.7893
17480TIP3   OH273854   2.228   6.060  14.733 -0.3863  0.0021 -0.0383
17480TIP3    H173855   2.320   6.037  14.745  0.3464  2.5191 -0.5717
17480TIP3    H273856   2.202   6.015  14.653  0.6967  0.0920 -0.4513
17481TIP3   OH273857   1.026   2.135   5.643  0.5433  0.1958 -0.1098
17481TIP3    H173858   1.069   2.053   5.620 -0.8078 -0.7119  0.5233
17481TIP3    H273859   1.038   2.144   5.737  3.1805  2.2214 -0.5817
17482TIP3   OH273860   4.058   4.035   5.069 -0.3140 -0.0837  0.2139
17482TIP3    H173861   3.988   4.094   5.039  1.2364  2.2405  1.0179
17482TIP3    H273862   4.128   4.047   5.005  0.2561 -0.5827  0.7382
17483TIP3   OH273863   0.392   4.047  12.518  0.3918  0.6638  0.1139
17483TIP3    H173864   0.424   4.137  12.513  0.1823  0.7408  0.1439
17483TIP3    H273865   0.341   4.045  12.599  0.0173  0.6377 -0.1230
17484TIP3   OH273866   4.259   2.697  14.473 -0.3183 -0.3714 -0.0679
17484TIP3    H173867   4.202   2.639  14.524 -0.4057  0.2558  0.5538
17484TIP3    H273868   4.216   2.782  14.476 -1.2970 -0.7393 -2.7791
17485TIP3   OH273869   0.624   4.469   0.270  0.3669 -0.0143 -0.6730
17485TIP3    H173870   0.637   4.492   0.362  0.6450 -0.1709 -0.6743
17485TIP3    H273871   0.570   4.389   0.273 -0.9272  0.8387 -0.6753
17486TIP3   OH273872   0.843   3.268   2.208 -0.7242 -0.2347  0.8547
17486TIP3    H173873   0.929   3.253   2.246 -0.7614  1.9850  1.9067
17486TIP3    H273874   0.791   3.193   2.236  0.3696 -0.6767  1.7491
17487TIP3   OH273875   0.567   1.454   0.169  0.0763 -0.3625  0.3976
17487TIP3    H173876   0.580   1.405   0.251 -1.5181  0.9195  1.4744
17487TIP3    H273877   0.559   1.545   0.197  3.0349  0.5467 -1.5791
17488TIP3   OH273878   5.008   1.676   4.971  0.3381  0.0111 -0.2334
17488TIP3    H173879   5.071   1.652   4.904  1.8607  0.6155  0.9599
17488TIP3    H273880   5.008   1.601   5.032 -3.0106 -1.7497 -2.2440
17489TIP3   OH273881   6.527   6.390   4.238  0.0952 -0.3855  0.1960
17489TIP3    H173882   6.590   6.449   4.280 -0.9815  0.2118  1.0150
17489TIP3    H273883   6.568   6.365   4.155 -0.0648  2.7474 -0.9040
17490TIP3   OH273884   3.093   3.002   1.689  0.0956 -0.9240  0.0762
17490TIP3    H173885   3.014   2.963   1.652 -1.4247  1.5403  0.5795
17490TIP3    H273886   3.087   3.095   1.665  3.0421 -0.7811 -0.2135
17491TIP3   OH273887   4.128   1.302  15.989  0.1748  0.2460 -0.0029
17491TIP3    H173888   4.094   1.250  16.062  0.7794 -0.1705 -0.0130
17491TIP3    H273889   4.151   1.386  16.028  0.7942 -0.0860  0.3488
17492TIP3   OH273890   0.669   5.130  14.865 -0.3170 -0.1180  0.0917
17492TIP3    H173891   0.646   5.159  14.953 -0.3983 -0.3184  0.1383
17492TIP3    H273892   0.698   5.209  14.820 -0.7902  0.0800  0.1335
17493TIP3   OH273893   3.155   1.857  13.332 -0.4414  0.2962  1.0256
17493TIP3    H173894   3.130   1.947  13.310 -0.5271  0.6005  2.2849
17493TIP3    H273895   3.089   1.830  13.397  1.3500  0.4483  2.9771
17494TIP3   OH273896   3.954   5.444  12.420 -0.2775  0.3428  0.1013
17494TIP3    H173897   3.939   5.425  12.512 -0.5291  1.7623  0.3582
17494TIP3    H273898   4.034   5.497  12.418 -0.0365 -0.0369 -0.5272
17495TIP3   OH273899   3.502   5.252   2.602 -0.0018  0.2330  0.2108
17495TIP3    H173900   3.592   5.258   2.569 -0.4094  0.1677 -0.9213
17495TIP3    H273901   3.489   5.334   2.650  0.8780 -0.0439  0.9518
17496TIP3   OH273902   3.704   3.319   2.644 -0.3497 -0.1268  0.3612
17496TIP3    H173903   3.625   3.358   2.606  1.2458  0.4702 -2.4859
17496TIP3    H273904   3.761   3.393   2.662  0.0335 -0.6528  1.3419
17497TIP3   OH273905   6.593   1.596   3.176 -0.6332 -0.4819 -0.8962
17497TIP3    H173906   6.545   1.676   3.156  0.8115  0.6390  0.0892
17497TIP3    H273907   6.531   1.526   3.154 -1.1955  0.8102 -3.7103
17498TIP3   OH273908   4.151   4.026   2.705 -0.0228 -0.3981 -0.3149
17498TIP3    H173909   4.230   4.004   2.655  0.2003 -0.7335  0.1717
17498TIP3    H273910   4.175   4.007   2.796 -1.5705 -3.2381 -0.4229
17499TIP3   OH273911   3.768   2.880   1.507 -0.7791 -0.9240  0.6525
17499TIP3    H173912   3.697   2.844   1.454  0.1496  0.8372 -1.8980
17499TIP3    H273913   3.781   2.968   1.472  1.8584 -0.7953  1.8807
17500TIP3   OH273914   0.556   4.725   1.962 -0.1131 -0.7383 -0.2231
17500TIP3    H173915   0.526   4.815   1.974  4.3925  1.1006 -1.3816
17500TIP3    H273916   0.551   4.710   1.867  1.2244 -0.8417 -0.2941
17501TIP3   OH273917   6.360   2.670  13.320  0.5128 -0.2636 -0.0905
17501TIP3    H173918   6.450   2.652  13.294  0.7307  0.9352 -0.1890
17501TIP3    H273919   6.308   2.607  13.270  1.2574 -0.6293 -0.4125
17502TIP3   OH273920   2.403   0.666  15.295  0.1530 -0.4008 -0.1529
17502TIP3    H173921   2.447   0.707  15.220  0.8681 -1.4394 -0.3112
17502TIP3    H273922   2.461   0.594  15.319  0.2118  0.2597  1.7479
17503TIP3   OH273923   1.371   1.205   2.823 -0.0448 -0.0906 -0.4149
17503TIP3    H173924   1.448   1.185   2.875  0.2233 -1.6720 -1.3865
17503TIP3    H273925   1.372   1.300   2.813  1.0070  0.0275  0.7298
17504TIP3   OH273926   0.728   1.521  16.682 -0.6459  0.1840  0.8027
17504TIP3    H173927   0.820   1.498  16.691 -1.0693 -1.7978  0.2458
17504TIP3    H273928   0.724   1.613  16.707  1.4747  0.2833  0.8515
17505TIP3   OH273929   0.457   4.277  16.506 -0.0580 -0.5827 -0.1327
17505TIP3    H173930   0.416   4.362  16.522  1.5026  0.0081  0.8007
17505TIP3    H273931   0.423   4.220  16.576  0.1365 -0.2856  0.2061
17506TIP3   OH273932   0.388   1.885  12.629  0.2038 -0.3395  0.4163
17506TIP3    H173933   0.341   1.965  12.606  2.9460  1.8716  2.1154
17506TIP3    H273934   0.476   1.915  12.652  2.4820 -4.2755 -2.5105
17507TIP3   OH273935   1.710   0.675   3.705  0.2045 -0.3061  0.2559
17507TIP3    H173936   1.650   0.740   3.741  1.5914  0.9984  0.2425
17507TIP3    H273937   1.796   0.716   3.709  0.9910 -1.8267 -0.5118
17508TIP3   OH273938   0.622   5.888  16.213  0.0047  0.6470 -0.0659
17508TIP3    H173939   0.597   5.858  16.126  1.2417 -0.1744 -0.1455
17508TIP3    H273940   0.596   5.980  16.215 -0.8579  0.4229 -0.9766
17509TIP3   OH273941   2.806   2.050   3.212 -0.0097  0.5488 -0.1592
17509TIP3    H173942   2.831   2.113   3.145  1.1887 -1.1476 -1.3494
17509TIP3    H273943   2.802   2.102   3.293  0.1766  2.2893 -1.2375
17510TIP3   OH273944   5.320   3.037   3.687 -0.6948  0.5083 -0.3333
17510TIP3    H173945   5.311   3.127   3.657  1.0863  0.4073 -1.2126
17510TIP3    H273946   5.319   2.985   3.607 -2.2250 -0.3099  0.1999
17511TIP3   OH273947   4.896   0.532  11.322  0.2560 -0.1209 -0.3068
17511TIP3    H173948   4.844   0.460  11.287 -0.0916  0.1902 -0.4334
17511TIP3    H273949   4.848   0.611  11.298  1.2967  0.2286 -1.2734
17512TIP3   OH273950   4.673   6.392  10.961  0.1107 -0.1464  0.5443
17512TIP3    H173951   4.593   6.343  10.942 -0.1883  0.7477 -0.6074
17512TIP3    H273952   4.740   6.326  10.973 -0.5032 -0.8595  0.0743
17513TIP3   OH273953   2.642   1.097   2.143 -0.2397 -1.0383 -0.2758
17513TIP3    H173954   2.723   1.104   2.093  0.4492  0.1516  0.9670
17513TIP3    H273955   2.662   1.037   2.215 -0.4294 -0.7259  0.0470
17514TIP3   OH273956   5.281   1.095  14.954  0.0072 -0.1059 -0.0188
17514TIP3    H173957   5.261   1.188  14.940 -1.3668 -0.0897  1.8205
17514TIP3    H273958   5.305   1.090  15.047  0.9741 -1.4383 -0.3372
17515TIP3   OH273959   1.358   2.187   3.764  0.7278 -0.1378 -0.5864
17515TIP3    H173960   1.327   2.245   3.694  0.4229 -1.1713 -1.3276
17515TIP3    H273961   1.397   2.246   3.828 -0.2680  0.9540 -0.9510
17516TIP3   OH273962   2.107   3.910   4.035 -0.1982 -0.4308 -0.3011
17516TIP3    H173963   2.074   3.874   4.117 -0.7119 -0.8446 -0.6885
17516TIP3    H273964   2.067   3.997   4.029 -1.0488 -0.8484 -0.6671
17517TIP3   OH273965   2.902   0.616  17.146  0.3153  0.0653  0.8294
17517TIP3    H173966   2.822   0.581  17.107  0.4393  2.0857 -1.3581
17517TIP3    H273967   2.872   0.673  17.216 -0.0775 -0.5081  1.1305
17518TIP3   OH273968   1.672   1.806  13.214  0.2638 -0.1346 -0.4029
17518TIP3    H173969   1.643   1.851  13.135 -0.8366 -0.7528 -0.3604
17518TIP3    H273970   1.761   1.837  13.228  0.8949 -0.9061 -2.5515
17519TIP3   OH273971   1.299   3.406  10.647 -0.4195  0.1522  0.0199
17519TIP3    H173972   1.358   3.452  10.707 -1.6170  0.7130  0.7810
17519TIP3    H273973   1.354   3.339  10.606  1.3651  2.2471 -1.1189
17520TIP3   OH273974   5.100   1.575   3.563  0.6337 -0.6211 -0.1981
17520TIP3    H173975   5.131   1.537   3.480  1.7458 -1.0304  0.3945
17520TIP3    H273976   5.180   1.596   3.611 -0.0091 -0.4318  0.8033
17521TIP3   OH273977   5.104   1.970  15.256 -0.4917  0.0259 -0.0705
17521TIP3    H173978   5.107   1.901  15.323 -0.1232 -0.1873 -0.3019
17521TIP3    H273979   5.138   1.927  15.177 -1.3169  0.1549 -0.5011
17522TIP3   OH273980   3.811   2.250   1.332 -0.2579  0.2575 -0.5826
17522TIP3    H173981   3.801   2.327   1.388  0.2621 -0.8444  1.0935
17522TIP3    H273982   3.906   2.244   1.317  0.0004 -1.4290  1.3908
17523TIP3   OH273983   4.851   5.284  12.050 -0.0965  0.8591 -0.0984
17523TIP3    H173984   4.865   5.202  12.098 -3.3588  0.3137 -0.0149
17523TIP3    H273985   4.852   5.352  12.118 -3.6737  0.1947  0.7228
17524TIP3   OH273986   2.223   1.180   5.191  0.0448  0.0780 -0.7478
17524TIP3    H173987   2.133   1.183   5.223  0.7467 -1.4094  1.4968
17524TIP3    H273988   2.217   1.134   5.108 -1.3058  0.3273 -0.8018
17525TIP3   OH273989   4.692   0.692   5.580  0.0002 -0.5706 -0.0896
17525TIP3    H173990   4.708   0.778   5.618 -0.1479 -0.9859  0.9278
17525TIP3    H273991   4.701   0.631   5.653 -2.5552 -1.1793 -0.2122
17526TIP3   OH273992   2.565   2.386   1.167 -0.4426 -0.2183 -0.1442
17526TIP3    H173993   2.500   2.368   1.236 -0.3991 -0.3041 -0.1262
17526TIP3    H273994   2.513   2.419   1.094 -0.6109 -1.2743 -0.4992
17527TIP3   OH273995   3.069   1.751   4.549  0.4905  0.1498  0.3257
17527TIP3    H173996   2.997   1.735   4.611  0.8621 -0.6164  0.5597
17527TIP3    H273997   3.138   1.789   4.602  1.1691 -1.4058  0.5751
17528TIP3   OH273998   1.326   3.986   6.571  1.1558  0.1558  0.0893
17528TIP3    H173999   1.397   4.036   6.530  0.6624 -1.0569 -2.2887
17528TIP3    H274000   1.246   4.025   6.538  0.7290  0.3625  1.3592
17529TIP3   OH274001   6.371   2.726   5.091  0.3758 -0.0628  0.3585
17529TIP3    H174002   6.301   2.661   5.090  1.0987 -0.9299  2.9107
17529TIP3    H274003   6.447   2.680   5.054  0.7327 -0.4880  1.6185
17530TIP3   OH274004   5.872   2.581   0.362  0.1705 -0.3395 -0.6272
17530TIP3    H174005   5.861   2.667   0.402  3.4164  0.0842 -0.5335
17530TIP3    H274006   5.832   2.520   0.424  0.7769  0.7873  0.9026
17531TIP3   OH274007   4.267   0.225  12.905  0.1246 -0.1695  0.2347
17531TIP3    H174008   4.255   0.237  12.810 -0.8439 -1.0923  0.2267
17531TIP3    H274009   4.178   0.207  12.938  0.8186 -2.6043  0.8986
17532TIP3   OH274010   3.424   3.089  15.733  0.5639  0.2653 -0.0930
17532TIP3    H174011   3.420   3.066  15.640  0.7598 -0.6185  0.1151
17532TIP3    H274012   3.464   3.177  15.734 -1.0515  1.0277 -0.9430
17533TIP3   OH274013   4.414   4.910  11.015 -0.0753 -0.0827  0.3904
17533TIP3    H174014   4.460   4.859  10.948  0.6161 -2.4051  2.5361
17533TIP3    H274015   4.322   4.890  11.001 -0.0320  0.3987 -0.6115
17534TIP3   OH274016   1.987   5.879   5.447 -0.1275  0.5408  0.5305
17534TIP3    H174017   2.027   5.798   5.479  0.9348  0.4971 -0.8736
17534TIP3    H274018   2.011   5.883   5.355  1.0734  3.2125  0.9082
17535TIP3   OH274019   6.004   1.370  12.758 -0.2009 -0.4409  0.2444
17535TIP3    H174020   6.028   1.336  12.845 -2.9562 -0.3581  1.0831
17535TIP3    H274021   5.911   1.391  12.766  0.3098  2.8326 -1.6979
17536TIP3   OH274022   2.127   1.736  11.158 -0.4674  0.1987 -0.0528
17536TIP3    H174023   2.159   1.824  11.139  0.9155  0.2866  2.4267
17536TIP3    H274024   2.035   1.749  11.183 -0.2466  0.9685  0.3796
17537TIP3   OH274025   4.605   5.563  13.574  0.2361  0.2158 -0.1315
17537TIP3    H174026   4.525   5.539  13.620  0.1194  1.6943  0.4616
17537TIP3    H274027   4.667   5.492  13.593 -0.7938 -0.7307 -0.2754
17538TIP3   OH274028   3.491   4.687   3.696  0.8545  0.2606 -0.2260
17538TIP3    H174029   3.410   4.637   3.701 -0.0681  1.8516  1.2900
17538TIP3    H274030   3.468   4.763   3.642  1.1816  0.9735  0.6300
17539TIP3   OH274031   3.906   6.720  13.530 -0.0149 -0.0003  0.3670
17539TIP3    H174032   3.909   6.772  13.450 -0.3833  2.0339  1.6575
17539TIP3    H274033   3.822   6.674  13.525 -1.1663  1.9954  0.7084
17540TIP3   OH274034   1.012   1.442   5.254  0.3693  0.6722 -0.1930
17540TIP3    H174035   1.024   1.440   5.159  2.2468  1.9943 -0.0151
17540TIP3    H274036   1.001   1.535   5.275 -0.2870  0.3654  0.8633
17541TIP3   OH274037   2.009   3.758   2.526  0.1905 -0.0614 -0.6027
17541TIP3    H174038   2.102   3.772   2.545 -0.0062  1.2510 -0.5714
17541TIP3    H274039   1.972   3.846   2.519 -0.9842 -0.5718 -0.9673
17542TIP3   OH274040   1.173   0.045  16.711  0.5116 -0.1578 -0.5687
17542TIP3    H174041   1.126   0.126  16.732 -0.5024 -0.5054 -1.4797
17542TIP3    H274042   1.248   0.074  16.659  1.4529  0.4181  1.0713
17543TIP3   OH274043   6.186   2.763   2.142 -0.2684  0.4873  0.0546
17543TIP3    H174044   6.118   2.827   2.125  1.0324  1.3990 -1.8882
17543TIP3    H274045   6.268   2.811   2.129  0.7264 -1.2394 -0.2604
17544TIP3   OH274046   3.917   3.618  13.451 -0.1690 -0.0034 -0.1262
17544TIP3    H174047   3.951   3.528  13.454  1.5798  0.6253 -0.8427
17544TIP3    H274048   3.911   3.638  13.358  1.4331  1.3542  0.0474
17545TIP3   OH274049   2.062   6.279  14.862  0.2476 -0.0674 -0.1252
17545TIP3    H174050   2.136   6.219  14.855  0.3290  0.1849 -1.5813
17545TIP3    H274051   1.987   6.229  14.830  0.3931  0.7089 -1.7599
17546TIP3   OH274052   2.883   0.079   3.885 -0.9390  0.1197 -0.0799
17546TIP3    H174053   2.920   0.044   3.966 -0.1428  0.8496 -0.1187
17546TIP3    H274054   2.954   0.132   3.848 -0.5725 -1.8879 -2.3098
17547TIP3   OH274055   4.729   5.285   2.920  0.5891  0.3732  0.9590
17547TIP3    H174056   4.772   5.202   2.938 -0.7592 -0.2048  1.6200
17547TIP3    H274057   4.781   5.350   2.967  1.4152 -0.1471  0.7700
17548TIP3   OH274058   4.297   5.934   2.445 -0.5356 -0.4106 -0.6265
17548TIP3    H174059   4.323   5.942   2.353  2.6730  1.6844  0.4172
17548TIP3    H274060   4.253   6.016   2.465 -0.7793 -0.6612 -0.1238
17549TIP3   OH274061   0.806   4.901   1.774  0.2128  0.2376 -0.0447
17549TIP3    H174062   0.730   4.847   1.756  0.1785  0.0789  0.5559
17549TIP3    H274063   0.777   4.961   1.844  1.3144 -1.3508  1.8357
17550TIP3   OH274064   3.188   0.789  13.143 -0.1901 -0.0897 -0.8113
17550TIP3    H174065   3.165   0.698  13.127 -2.2546  0.3721 -0.6834
17550TIP3    H274066   3.116   0.823  13.197  0.1706  1.8003 -1.4754
17551TIP3   OH274067   2.271   0.857   6.329  0.0852  0.5021  0.2259
17551TIP3    H174068   2.275   0.774   6.283 -0.4712  0.4743  0.2198
17551TIP3    H274069   2.334   0.913   6.284  3.8849 -1.2745  3.0513
17552TIP3   OH274070   6.299   2.981   4.534 -0.8388  0.3932 -0.0077
17552TIP3    H174071   6.330   2.892   4.547 -1.3529  0.0842 -0.8900
17552TIP3    H274072   6.298   3.019   4.623 -2.3357 -1.0344  0.6045
17553TIP3   OH274073   1.089   6.388   5.373 -0.3971  0.2022 -0.3589
17553TIP3    H174074   1.182   6.378   5.354  0.0122  0.6791  1.3489
17553TIP3    H274075   1.064   6.470   5.331  0.2535  0.7211  0.2624
17554TIP3   OH274076   6.631   2.081   3.879 -0.2923  0.3538 -0.2200
17554TIP3    H174077   6.651   2.048   3.791  1.3622 -0.9661  0.6128
17554TIP3    H274078   6.559   2.143   3.866  1.8605  2.4106 -2.8989
17555TIP3   OH274079   0.796   3.926  11.878  0.1757 -0.7208  0.0746
17555TIP3    H174080   0.706   3.921  11.844 -0.3174 -0.4066  1.2915
17555TIP3    H274081   0.829   4.010  11.846  1.1223 -2.1838 -2.9197
17556TIP3   OH274082   0.124   0.893   4.585  0.6545 -0.4225 -0.0809
17556TIP3    H174083   0.048   0.926   4.633  1.7759  0.7782  0.9070
17556TIP3    H274084   0.163   0.971   4.544  2.2225 -0.7813  0.6836
17557TIP3   OH274085   3.971   5.747  16.280  0.3201 -0.5222  0.2892
17557TIP3    H174086   3.996   5.753  16.372  3.1668 -0.1488 -0.4677
17557TIP3    H274087   3.977   5.654  16.258 -0.3619 -0.6121  0.4525
17558TIP3   OH274088   1.048   2.980  13.997 -0.1233 -0.4421  0.0866
17558TIP3    H174089   0.952   2.976  14.007 -0.3227  1.2027 -1.0025
17558TIP3    H274090   1.077   3.031  14.073 -0.3649  1.1186 -0.8516
17559TIP3   OH274091   4.528   4.720  12.406 -0.2234  0.9200 -0.1283
17559TIP3    H174092   4.593   4.664  12.364 -0.9528  0.5532 -0.7773
17559TIP3    H274093   4.562   4.733  12.495  0.9531  1.1115 -0.6000
17560TIP3   OH274094   5.883   5.435  11.048  0.0693  0.2797  0.0013
17560TIP3    H174095   5.821   5.367  11.074 -0.5840  0.4008 -1.1964
17560TIP3    H274096   5.847   5.470  10.966  2.9676 -1.3398 -2.0486
17561TIP3   OH274097   4.303   6.254  11.189 -0.1781 -0.3011 -0.4418
17561TIP3    H174098   4.344   6.175  11.225 -0.1132 -1.0657 -2.1051
17561TIP3    H274099   4.212   6.229  11.174 -0.4026  0.2672 -0.0264
17562TIP3   OH274100   4.670   0.683   4.020 -0.2702  0.1281 -0.4272
17562TIP3    H174101   4.647   0.688   3.928 -0.0807 -1.9631 -0.6098
17562TIP3    H274102   4.718   0.601   4.029 -0.1448  0.3725  1.5109
17563TIP3   OH274103   5.270   3.007   4.966 -0.4423  0.5283 -0.9848
17563TIP3    H174104   5.209   2.935   4.953 -1.5234  1.1425  0.4655
17563TIP3    H274105   5.343   2.988   4.908 -0.1430 -2.3842  0.2645
17564TIP3   OH274106   1.787   5.443  16.046 -0.0215  0.2234 -0.1994
17564TIP3    H174107   1.734   5.384  16.100  0.9205  0.5878  1.1520
17564TIP3    H274108   1.740   5.526  16.047  0.6970  0.6195  1.2109
17565TIP3   OH274109   6.070   2.108   4.846 -0.2237  0.3835  0.0511
17565TIP3    H174110   6.116   2.128   4.927 -0.9562 -1.1331  0.8572
17565TIP3    H274111   6.134   2.058   4.795  0.5604  2.1208 -0.7211
17566TIP3   OH274112   3.012   0.712  15.948  0.1574  0.2486  0.0407
17566TIP3    H174113   2.975   0.794  15.981 -0.6833 -0.0944 -0.0201
17566TIP3    H274114   2.941   0.673  15.896  0.4850 -0.6005  0.2173
17567TIP3   OH274115   5.241   2.008   2.128 -0.2149  0.6018 -0.2571
17567TIP3    H174116   5.206   1.993   2.216 -0.4152  1.9754 -0.0824
17567TIP3    H274117   5.220   1.929   2.079 -2.1560  0.7631  0.2868
17568TIP3   OH274118   4.728   3.194  13.762 -0.0081  0.3548 -0.0847
17568TIP3    H174119   4.801   3.250  13.786 -0.2585  0.1066  1.3341
17568TIP3    H274120   4.694   3.162  13.846 -0.6412 -0.9174 -0.8107
17569TIP3   OH274121   1.159   5.097  10.238 -0.5311  0.5093 -0.2234
17569TIP3    H174122   1.065   5.087  10.252 -0.7728 -2.3270 -3.2586
17569TIP3    H274123   1.195   5.009  10.251  0.8886  0.3899 -4.1735
17570TIP3   OH274124   5.835   1.949  15.126 -0.4763  0.6173 -0.1013
17570TIP3    H174125   5.802   1.859  15.133 -2.6615  1.3536 -0.4591
17570TIP3    H274126   5.874   1.968  15.211 -2.0917  0.1046  0.7822
17571TIP3   OH274127   3.055   2.019   1.487  0.1833 -0.1148  0.5112
17571TIP3    H174128   3.026   2.110   1.490  0.7427  0.0327  2.0163
17571TIP3    H274129   3.068   1.995   1.579 -1.5495 -2.2454  0.2394
17572TIP3   OH274130   4.266   5.234  13.551 -0.5716  0.3745  0.0469
17572TIP3    H174131   4.261   5.146  13.588  3.0738  0.1887  0.2680
17572TIP3    H274132   4.242   5.223  13.459 -0.4669 -0.8058  0.1594
17573TIP3   OH274133   5.940   5.048  16.910  0.7446 -0.4708  0.5008
17573TIP3    H174134   5.993   4.983  16.955 -0.3196  0.3408  3.0107
17573TIP3    H274135   5.964   5.131  16.951 -0.8622  0.1942  0.1165
17574TIP3   OH274136   1.724   6.152  13.569 -0.1477 -0.2771 -0.1027
17574TIP3    H174137   1.739   6.078  13.628 -0.4830  1.0030  1.6039
17574TIP3    H274138   1.811   6.187  13.552 -0.1962  0.4902  1.1464
17575TIP3   OH274139   4.829   0.119   4.029 -0.3622  0.0559 -0.0452
17575TIP3    H174140   4.771   0.126   4.104  0.8113  0.8419  0.8268
17575TIP3    H274141   4.917   0.117   4.067  0.1386 -2.9315 -1.2309
17576TIP3   OH274142   6.684   5.356  17.089 -0.3863  0.7449  0.0969
17576TIP3    H174143   6.674   5.266  17.119 -0.2562  0.7021  0.0131
17576TIP3    H274144   6.601   5.375  17.045  0.0113  0.2870 -0.8651
17577TIP3   OH274145   5.618   2.335  14.925  0.2717  0.3691  0.1950
17577TIP3    H174146   5.690   2.281  14.893 -0.2291  0.2511 -0.7470
17577TIP3    H274147   5.617   2.320  15.020 -0.9876 -2.6998 -0.2191
17578TIP3   OH274148   1.380   1.775  15.930 -0.1496 -0.1856 -0.4161
17578TIP3    H174149   1.314   1.818  15.984  0.3881  0.6586 -0.4244
17578TIP3    H274150   1.358   1.800  15.840  0.1209  0.0019 -0.4278
17579TIP3   OH274151   5.422   4.656   4.721  0.3154  0.7503 -0.6708
17579TIP3    H174152   5.415   4.617   4.633  0.2566 -0.0289 -0.3274
17579TIP3    H274153   5.468   4.590   4.773 -0.9551  0.5870  0.2581
17580TIP3   OH274154   2.183   0.182   6.496  0.0302  0.0758 -0.2369
17580TIP3    H174155   2.233   0.118   6.548 -0.0664  0.6729  0.6039
17580TIP3    H274156   2.144   0.240   6.562  1.3918  1.9580 -1.0626
17581TIP3   OH274157   4.158   4.205  14.939 -0.2699 -0.2177  0.5228
17581TIP3    H174158   4.208   4.241  15.013  1.5342 -0.3374 -0.6040
17581TIP3    H274159   4.149   4.112  14.959  0.7033 -0.3571  0.3444
17582TIP3   OH274160   0.037   1.297   2.409 -0.5502 -0.0360  0.1206
17582TIP3    H174161   0.002   1.220   2.364  2.0148 -0.6480 -0.9175
17582TIP3    H274162   0.060   1.266   2.496  0.8467 -0.5721 -0.4242
17583TIP3   OH274163   2.146   2.364  14.787  0.7827  0.6581  0.9207
17583TIP3    H174164   2.191   2.448  14.773  0.3750  0.7817  0.3691
17583TIP3    H274165   2.089   2.380  14.863  1.5435  0.5464  1.5256
17584TIP3   OH274166   3.393   4.130  14.671 -0.1407 -0.3082 -0.8099
17584TIP3    H174167   3.350   4.180  14.602  0.1804  0.2002 -0.6364
17584TIP3    H274168   3.477   4.104  14.634  1.2493  2.3636  0.3821
17585TIP3   OH274169   6.097   1.096   3.029  0.8738  0.1408  0.5769
17585TIP3    H174170   6.037   1.106   3.103 -0.2101  1.7610 -0.4899
17585TIP3    H274171   6.184   1.089   3.069  0.0997 -0.8934  2.0770
17586TIP3   OH274172   1.140   3.026  15.680  0.6821 -0.1917 -0.1756
17586TIP3    H174173   1.185   3.089  15.736 -0.5616 -0.1811  0.8619
17586TIP3    H274174   1.128   2.949  15.736 -1.5379  0.2085 -0.0244
17587TIP3   OH274175   4.475   4.386  14.070  0.8260  0.2877 -0.4993
17587TIP3    H174176   4.518   4.321  14.125  0.8485  1.0556  0.4069
17587TIP3    H274177   4.542   4.453  14.054 -0.1407  1.7720  1.3897
17588TIP3   OH274178   3.233   3.740  14.813  0.1173 -0.5534 -0.2786
17588TIP3    H174179   3.219   3.832  14.787 -0.2548 -0.7703 -0.8508
17588TIP3    H274180   3.328   3.733  14.827  0.1627 -0.1165 -0.3589
17589TIP3   OH274181   0.836   3.451   5.361 -0.4905 -0.4362 -0.1127
17589TIP3    H174182   0.833   3.426   5.454 -1.1251 -0.5388 -0.1574
17589TIP3    H274183   0.906   3.397   5.324  1.2556  1.2053  0.7676
17590TIP3   OH274184   5.785   1.910   5.300  0.1518 -0.1677 -0.3540
17590TIP3    H174185   5.745   1.980   5.352  0.1294  0.1327 -0.7691
17590TIP3    H274186   5.849   1.955   5.245  0.1701 -0.4817 -0.5886
17591TIP3   OH274187   3.585   3.551  13.954 -0.0334  0.3541  0.1155
17591TIP3    H174188   3.615   3.604  14.027 -0.1693 -0.3172  0.6611
17591TIP3    H274189   3.644   3.574  13.882  0.1499  0.9550  0.4575
17592TIP3   OH274190   3.008   0.806   4.894 -0.2815 -0.1208  0.4317
17592TIP3    H174191   3.076   0.772   4.951 -0.3776  0.8486  1.1405
17592TIP3    H274192   2.930   0.754   4.914 -0.6324  0.9921  2.0463
17593TIP3   OH274193   4.284   5.442   2.851 -0.4082  0.5132  0.8012
17593TIP3    H174194   4.247   5.479   2.932 -1.6027 -1.6476  1.2728
17593TIP3    H274195   4.321   5.358   2.877  2.1461  1.2703 -0.2989
17594TIP3   OH274196   4.714   5.793   2.364  0.1288  0.5758 -0.1450
17594TIP3    H174197   4.652   5.752   2.424 -2.2722  1.1004 -2.1808
17594TIP3    H274198   4.706   5.887   2.380  0.2749  0.6509 -0.4958
17595TIP3   OH274199   1.677   5.287  11.757  0.1995 -0.2854  0.8906
17595TIP3    H174200   1.631   5.371  11.755  0.0013 -0.4186 -1.4873
17595TIP3    H274201   1.618   5.227  11.710  1.4062 -1.1834  0.5042
17596TIP3   OH274202   5.402   5.195  15.818  0.5574  0.2534  0.0742
17596TIP3    H174203   5.460   5.119  15.808  0.4831  0.1026  0.7755
17596TIP3    H274204   5.452   5.268  15.782  0.5312 -0.1697 -0.8431
17597TIP3   OH274205   0.082   2.913  13.592  0.0649  0.2404  0.5783
17597TIP3    H174206   0.157   2.857  13.569 -1.5214 -2.7078  2.2418
17597TIP3    H274207   0.007   2.853  13.593 -1.6370  2.3147  2.9409
17598TIP3   OH274208   3.140   3.862  11.730 -0.0905 -0.0460 -0.2211
17598TIP3    H174209   3.231   3.863  11.757 -0.4809  1.3824  1.1002
17598TIP3    H274210   3.093   3.821  11.803 -0.5844 -0.2548 -0.6459
17599TIP3   OH274211   4.100   2.821  16.854  0.0799  0.0430  0.2791
17599TIP3    H174212   4.067   2.910  16.868  2.8297  0.9290  1.4431
17599TIP3    H274213   4.092   2.778  16.939  3.2865  0.7834  1.0116
17600TIP3   OH274214   4.949   6.417   3.047 -0.9916 -0.2750 -0.3578
17600TIP3    H174215   4.989   6.404   3.133  1.2099 -0.0943 -1.3321
17600TIP3    H274216   4.874   6.475   3.065  0.3861  1.0674  1.2057
17601TIP3   OH274217   0.726   2.964   5.958  0.8526 -0.7964 -0.4174
17601TIP3    H174218   0.814   2.942   5.927  1.1254 -2.1124  1.2267
17601TIP3    H274219   0.740   3.013   6.039  0.0658 -1.9741  0.4489
17602TIP3   OH274220   6.689   5.034  16.919 -0.3993  0.2624  0.2257
17602TIP3    H174221   6.664   4.946  16.893 -2.1401  0.9238 -0.4114
17602TIP3    H274222   6.636   5.092  16.864  2.7561  1.7549 -1.3951
17603TIP3   OH274223   5.101   1.128   4.472 -1.0770 -0.1214  0.5527
17603TIP3    H174224   5.173   1.151   4.413 -2.0913 -0.1782 -0.7479
17603TIP3    H274225   5.140   1.070   4.537 -0.1447 -0.9009 -0.6823
17604TIP3   OH274226   6.395   1.982   2.001  0.3497 -0.3802 -0.6258
17604TIP3    H174227   6.479   1.956   1.963  0.8219 -1.9137  1.3890
17604TIP3    H274228   6.337   1.994   1.925  2.1952  0.0780 -1.9986
17605TIP3   OH274229   1.441   1.897   5.115 -0.8069  0.0761  0.1150
17605TIP3    H174230   1.501   1.930   5.048 -0.0172 -0.6986  0.4433
17605TIP3    H274231   1.489   1.904   5.197 -1.9539  1.4917  0.6947
17606TIP3   OH274232   0.581   0.410   6.225 -0.2430 -1.1395  0.1330
17606TIP3    H174233   0.510   0.386   6.167  0.4032 -0.5361 -0.9241
17606TIP3    H274234   0.546   0.483   6.277 -0.9892 -2.0114  0.8732
17607TIP3   OH274235   4.065   3.259   2.975  0.3148 -0.8326 -0.3293
17607TIP3    H174236   4.137   3.303   3.020 -0.8060  0.8092 -0.1135
17607TIP3    H274237   3.996   3.325   2.969 -0.3597 -1.6776 -2.5273
17608TIP3   OH274238   2.230   6.105   4.966 -0.0774  0.1555 -0.3993
17608TIP3    H174239   2.181   6.030   4.933 -2.2078  1.0959  0.5028
17608TIP3    H274240   2.321   6.086   4.944 -0.8013 -1.7757 -1.8844
17609TIP3   OH274241   2.181   4.195  15.645  0.1131  0.0875 -0.0379
17609TIP3    H174242   2.228   4.118  15.676 -1.8844 -1.5273 -0.9422
17609TIP3    H274243   2.177   4.253  15.722  2.9241 -0.0126  0.2335
17610TIP3   OH274244   2.467   2.121   3.838 -0.5856  0.4639  0.5358
17610TIP3    H174245   2.410   2.193   3.810 -1.9518 -0.4128  0.9894
17610TIP3    H274246   2.499   2.083   3.757 -0.5316  1.0585  0.2769
17611TIP3   OH274247   0.613   4.303   2.554 -0.3467  0.5740 -0.6100
17611TIP3    H174248   0.706   4.282   2.560  0.0490  2.3525 -0.2401
17611TIP3    H274249   0.575   4.230   2.506  1.2307 -0.1864 -0.7363
17612TIP3   OH274250   0.814   4.805  13.663  0.1360 -0.3950  0.1734
17612TIP3    H174251   0.888   4.846  13.707 -0.3680  1.7097 -0.9068
17612TIP3    H274252   0.853   4.732  13.614  0.9233 -1.7234  2.6883
17613TIP3   OH274253   1.414   6.084   0.162 -0.5334 -0.0694 -1.0026
17613TIP3    H174254   1.444   6.092   0.072 -0.4132 -1.3371 -1.0866
17613TIP3    H274255   1.322   6.110   0.159  0.4741  3.8194 -0.7466
17614TIP3   OH274256   4.778   2.164  13.191 -0.1320  0.2151  0.3179
17614TIP3    H174257   4.728   2.125  13.262 -1.7100 -0.8816 -1.3524
17614TIP3    H274258   4.830   2.233  13.233 -0.4314 -0.9208  2.6336
17615TIP3   OH274259   0.391   4.790   2.832  0.7971  0.0704  0.3563
17615TIP3    H174260   0.297   4.795   2.847  0.7479 -1.7300  0.7510
17615TIP3    H274261   0.402   4.810   2.739 -0.2634 -2.3468 -0.3392
17616TIP3   OH274262   3.264   5.647  15.385 -0.0686 -0.7498 -0.4669
17616TIP3    H174263   3.242   5.740  15.373 -1.5103 -1.0294 -0.0655
17616TIP3    H274264   3.359   5.646  15.393 -0.1436  0.8368  0.8383
17617TIP3   OH274265   2.356   1.752  13.981 -0.1976  0.2550  0.2809
17617TIP3    H174266   2.284   1.691  13.997  0.1840 -0.2619  0.0321
17617TIP3    H274267   2.426   1.698  13.945 -0.7001  1.2263 -2.2686
17618TIP3   OH274268   3.362   5.238   5.774  0.5137 -0.1165 -0.1415
17618TIP3    H174269   3.419   5.175   5.818 -1.3280 -0.7863  1.3684
17618TIP3    H274270   3.277   5.227   5.817 -0.4758  1.6203 -1.5946
17619TIP3   OH274271   1.096   2.568   0.111  0.1645  0.4567  0.1308
17619TIP3    H174272   1.154   2.518   0.169  0.0135  0.3264  0.1659
17619TIP3    H274273   1.093   2.518   0.030  1.2284  1.1806 -0.3631
17620TIP3   OH274274   5.521   3.954   3.497 -0.6045 -0.8569  0.0153
17620TIP3    H174275   5.582   3.891   3.536 -0.2137 -0.0139  0.7885
17620TIP3    H274276   5.454   3.966   3.564  0.0636  0.5895  0.4416
17621TIP3   OH274277   4.433   5.636  16.996 -0.8432 -0.2336 -0.4794
17621TIP3    H174278   4.375   5.580  17.046 -2.7667  2.1615  0.0780
17621TIP3    H274279   4.503   5.659  17.057  0.1233 -2.1985 -0.8032
17622TIP3   OH274280   2.564   6.321   4.271 -0.1499  0.0936  0.3692
17622TIP3    H174281   2.614   6.391   4.314 -1.2528  0.5340  0.9594
17622TIP3    H274282   2.574   6.338   4.178 -0.6083  1.1743  0.5152
17623TIP3   OH274283   1.532   5.672   3.678  0.2935 -0.5147 -0.7186
17623TIP3    H174284   1.465   5.637   3.737 -0.9705  0.2745 -1.6660
17623TIP3    H274285   1.615   5.644   3.717 -0.4158  1.6278  2.5149
17624TIP3   OH274286   3.324   2.866   1.767 -0.3284  0.4213  0.4282
17624TIP3    H174287   3.391   2.930   1.794 -0.3413  1.3110 -1.5837
17624TIP3    H274288   3.249   2.919   1.742 -0.5360 -0.3984 -0.7267
17625TIP3   OH274289   5.198   4.323  13.125 -0.0513  0.1481 -0.1659
17625TIP3    H174290   5.277   4.287  13.084 -1.3069 -1.3893 -1.2899
17625TIP3    H274291   5.202   4.417  13.106  0.5762 -0.1946 -1.8273
17626TIP3   OH274292   3.157   1.612  16.610 -0.0916  0.0496  0.1180
17626TIP3    H174293   3.150   1.658  16.694 -0.7015 -1.8244  1.1150
17626TIP3    H274294   3.191   1.678  16.549  1.4727  1.1150  2.0992
17627TIP3   OH274295   2.064   4.959  15.652 -0.4406  0.5746  0.3921
17627TIP3    H174296   2.010   5.008  15.714 -0.5358 -1.0419  1.6162
17627TIP3    H274297   2.145   4.940  15.699  0.3067  1.0345 -0.6695
17628TIP3   OH274298   2.018   1.522  15.601 -0.2551  0.3575  0.0587
17628TIP3    H174299   1.944   1.473  15.565 -0.6692 -1.6432  3.4860
17628TIP3    H274300   2.089   1.458  15.605  0.9311  1.5876 -0.7421
17629TIP3   OH274301   1.786   5.630  15.279  1.0965  0.0665 -0.2253
17629TIP3    H174302   1.845   5.672  15.217  0.0030  1.3350 -0.4315
17629TIP3    H274303   1.709   5.687  15.281  0.1727 -1.1907  0.5591
17630TIP3   OH274304   4.662   3.200  15.279 -0.1582  1.0763 -0.3878
17630TIP3    H174305   4.684   3.267  15.214 -0.2122 -1.4431 -3.1407
17630TIP3    H274306   4.704   3.120  15.246 -1.0894 -0.5235  2.1319
17631TIP3   OH274307   5.154   0.822  12.608  0.2791  0.2057 -0.2293
17631TIP3    H174308   5.214   0.875  12.661  1.1730  1.0556 -2.0284
17631TIP3    H274309   5.168   0.732  12.637 -0.6848  0.8210  2.3251
17632TIP3   OH274310   1.564   6.580  13.504 -0.0345  0.0889 -0.3884
17632TIP3    H174311   1.552   6.491  13.536  0.2554  0.0231 -0.4606
17632TIP3    H274312   1.552   6.635  13.581  0.5458 -0.0617 -0.1851
17633TIP3   OH274313   6.090   4.093  12.335  0.0252 -0.0379 -0.0502
17633TIP3    H174314   6.012   4.043  12.358 -0.5817 -0.2035 -2.3678
17633TIP3    H274315   6.064   4.185  12.347 -1.0024 -0.0296 -2.1631
17634TIP3   OH274316   2.355   1.942   2.093 -0.4319  0.4639 -0.6179
17634TIP3    H174317   2.283   1.964   2.034  0.8409  0.6574 -2.1372
17634TIP3    H274318   2.312   1.908   2.172 -2.1532 -1.0592 -2.1506
17635TIP3   OH274319   5.617   1.918  10.727  0.3906  0.4650 -0.2085
17635TIP3    H174320   5.622   1.860  10.803  0.3481  0.0606 -0.5172
17635TIP3    H274321   5.579   1.864  10.658 -1.9965  1.5536  0.1978
17636TIP3   OH274322   0.124   6.669  12.060 -0.0428  0.1422  0.3499
17636TIP3    H174323   0.162   6.695  11.977  0.6502 -1.1425  0.2382
17636TIP3    H274324   0.040   6.715  12.064 -0.1164  0.1627 -1.0896
17637TIP3   OH274325   4.103   3.065   4.320 -0.0138 -0.0965 -0.3891
17637TIP3    H174326   4.148   3.027   4.396  0.8719  0.8823 -0.4056
17637TIP3    H274327   4.173   3.087   4.259 -0.6657 -0.2025 -1.1898
17638TIP3   OH274328   6.323   6.026  11.553  0.2038  0.3416 -0.4319
17638TIP3    H174329   6.230   6.004  11.547 -0.2111  2.1316 -0.8526
17638TIP3    H274330   6.328   6.118  11.526  1.9211  0.6460  0.8193
17639TIP3   OH274331   6.281   5.538  14.443 -0.1334  0.4206 -0.4928
17639TIP3    H174332   6.340   5.528  14.517  0.7420 -0.8618 -1.3411
17639TIP3    H274333   6.220   5.607  14.470 -1.0081 -1.3174  2.1412
17640TIP3   OH274334   6.274   0.348  12.576 -0.1371 -0.1791  0.3273
17640TIP3    H174335   6.354   0.343  12.524 -0.4301  0.3946 -0.1768
17640TIP3    H274336   6.289   0.286  12.648  0.5971 -0.3676  0.0201
17641TIP3   OH274337   5.898   5.847  12.916 -0.4771 -0.0431  0.3719
17641TIP3    H174338   5.853   5.776  12.870  0.0331 -0.4130  0.4399
17641TIP3    H274339   5.947   5.804  12.986 -1.8577  0.5960  1.7547
17642TIP3   OH274340   5.010   0.451  14.498 -0.5270  0.4468 -0.0165
17642TIP3    H174341   4.998   0.371  14.550  1.4869  0.1868  0.0944
17642TIP3    H274342   4.991   0.522  14.559 -0.7169  0.0918  0.3466
17643TIP3   OH274343   5.148   5.711   5.538 -0.2566  0.2662 -0.0381
17643TIP3    H174344   5.116   5.703   5.628  0.9330  2.3910  0.6118
17643TIP3    H274345   5.234   5.753   5.547  0.6357 -1.0231 -2.0642
17644TIP3   OH274346   0.902   0.572  12.995  0.0676 -0.2206 -0.2577
17644TIP3    H174347   0.923   0.549  13.086  0.4233  0.8265 -0.0702
17644TIP3    H274348   0.958   0.514  12.943 -1.3549 -2.0106  0.1552
17645TIP3   OH274349   3.339   2.328  15.448  0.0991  0.1821 -0.0597
17645TIP3    H174350   3.257   2.373  15.471 -0.1990 -0.0864 -0.5841
17645TIP3    H274351   3.370   2.291  15.531 -0.8219 -0.5481 -0.0342
17646TIP3   OH274352   0.205   1.240   3.572  0.0008  0.0166  0.0079
17646TIP3    H174353   0.238   1.194   3.649 -0.5522 -1.2435 -0.4903
17646TIP3    H274354   0.234   1.186   3.498 -2.7210 -0.8659 -0.4595
17647TIP3   OH274355   2.098   2.152   1.592 -0.1986 -0.1555 -0.1342
17647TIP3    H174356   2.135   2.227   1.637 -0.9527 -0.1944  0.5694
17647TIP3    H274357   2.023   2.126   1.646 -1.6897  0.3686 -1.8696
17648TIP3   OH274358   1.883   5.906  13.643 -0.5086  1.0248 -0.1979
17648TIP3    H174359   1.975   5.921  13.665 -0.5550  1.3590 -0.2329
17648TIP3    H274360   1.880   5.816  13.611  0.3243  1.9415 -3.0313
17649TIP3   OH274361   6.119   2.217   3.020  0.0033  0.0309  0.9342
17649TIP3    H174362   6.060   2.291   3.034 -0.2498  0.2412 -1.0306
17649TIP3    H274363   6.065   2.153   2.973  0.5802 -0.8886  1.5184
17650TIP3   OH274364   0.964   0.209  15.704 -0.1712  0.6148  0.2553
17650TIP3    H174365   0.876   0.173  15.693  0.0564  0.0201  0.3891
17650TIP3    H274366   0.978   0.262  15.626 -0.2998 -0.0064 -0.1859
17651TIP3   OH274367   0.547   1.090  12.629  0.6803  0.4765  0.1806
17651TIP3    H174368   0.469   1.037  12.644  0.5359  0.4264 -0.6790
17651TIP3    H274369   0.569   1.126  12.714 -0.9362  1.3881  0.2411
17652TIP3   OH274370   4.418   4.802  16.643  0.1395 -0.4423 -0.0111
17652TIP3    H174371   4.371   4.813  16.560  0.0076 -2.4669 -0.2192
17652TIP3    H274372   4.368   4.736  16.691  0.0645  0.8883  1.8133
17653TIP3   OH274373   3.889   3.453   5.628 -0.0107 -0.2760  0.0014
17653TIP3    H174374   3.910   3.529   5.574 -2.3364 -0.0944 -0.7100
17653TIP3    H274375   3.907   3.482   5.718 -0.5338  1.0105 -0.2995
17654TIP3   OH274376   1.319   5.687  14.872 -0.5516  0.7237  0.4871
17654TIP3    H174377   1.336   5.774  14.835  1.1858  0.9150  1.7108
17654TIP3    H274378   1.335   5.627  14.799  0.7496  1.2503  0.3250
17655TIP3   OH274379   2.647   2.960   3.597 -0.0190  0.7702  0.3412
17655TIP3    H174380   2.609   2.927   3.516 -2.0865  2.4783  0.5580
17655TIP3    H274381   2.675   2.882   3.644 -1.0971 -0.3995 -0.8947
17656TIP3   OH274382   0.587   5.519   2.078  0.3524  0.7616 -0.4555
17656TIP3    H174383   0.495   5.502   2.059  0.8325 -1.0618 -1.2703
17656TIP3    H274384   0.589   5.610   2.108 -1.5978  1.0559 -1.1513
17657TIP3   OH274385   1.944   6.182  15.204  0.8177  0.5226  0.4994
17657TIP3    H174386   2.028   6.139  15.191  0.1775 -0.1170 -1.7397
17657TIP3    H274387   1.890   6.116  15.248  0.3448 -0.4499 -1.4708
17658TIP3   OH274388   6.422   6.064   2.990  0.0963 -0.3928 -0.2676
17658TIP3    H174389   6.333   6.058   3.026  0.1673  1.4122  0.2351
17658TIP3    H274390   6.409   6.083   2.897 -0.0329  1.0826  0.0509
17659TIP3   OH274391   3.074   4.937   2.446  0.0435  0.0986 -0.2664
17659TIP3    H174392   3.089   4.843   2.437  0.2520 -0.0982  1.7638
17659TIP3    H274393   3.161   4.975   2.453 -0.0008  0.5939 -2.2351
17660TIP3   OH274394   2.011   2.582  14.566  0.4358  0.5929 -0.6358
17660TIP3    H174395   2.028   2.587  14.472 -0.7182  2.7363 -0.7764
17660TIP3    H274396   2.074   2.642  14.605  1.7703 -1.2571  0.1109
17661TIP3   OH274397   5.608   2.692   1.830 -0.0585 -0.2993 -0.4309
17661TIP3    H174398   5.604   2.596   1.839  0.7862 -0.5001 -2.0678
17661TIP3    H274399   5.681   2.717   1.887 -0.3141 -0.6239  0.0463
17662TIP3   OH274400   1.945   4.793   5.690  0.3150  0.0839  0.2074
17662TIP3    H174401   1.917   4.866   5.745 -0.1657 -0.2823  0.4516
17662TIP3    H274402   1.930   4.824   5.601  0.3901  0.3960  0.3008
17663TIP3   OH274403   4.441   0.734  10.637  0.3501 -0.8798 -0.2994
17663TIP3    H174404   4.382   0.750  10.563  0.1909 -1.6248 -0.3344
17663TIP3    H274405   4.528   0.757  10.603  0.1609 -0.3784 -0.4447
17664TIP3   OH274406   3.999   0.685   5.308 -0.1279  0.4471  0.3630
17664TIP3    H174407   4.085   0.677   5.349 -1.1216  1.0193  2.6082
17664TIP3    H274408   3.964   0.768   5.342 -2.1680 -0.5003  0.6405
17665TIP3   OH274409   1.892   2.296   4.190  0.8791  0.3656 -0.1196
17665TIP3    H174410   1.948   2.229   4.228 -1.3263 -1.5380 -0.1048
17665TIP3    H274411   1.830   2.318   4.259 -0.0592  0.4751 -0.9784
17666TIP3   OH274412   2.375   1.792   2.947  0.5671  0.9102 -0.1492
17666TIP3    H174413   2.406   1.713   2.902 -0.1321  0.6386 -0.1514
17666TIP3    H274414   2.391   1.774   3.040  0.1679  0.6546 -0.1275
17667TIP3   OH274415   5.217   1.838  13.865  0.3958 -0.7205 -0.3588
17667TIP3    H174416   5.311   1.850  13.875  0.4717 -1.5170 -0.0205
17667TIP3    H274417   5.207   1.747  13.837 -0.3924 -1.4791  2.1703
17668TIP3   OH274418   2.420   2.049   3.328 -0.5585 -0.4613  0.3275
17668TIP3    H174419   2.488   2.100   3.285 -0.9022 -0.4610 -0.2163
17668TIP3    H274420   2.380   2.110   3.390  0.5044 -0.7092  1.2649
17669TIP3   OH274421   3.831   0.824  15.154 -0.2960  0.4954 -0.0729
17669TIP3    H174422   3.748   0.784  15.129  0.4946 -1.1059 -0.2238
17669TIP3    H274423   3.880   0.831  15.072 -0.4398  1.8567 -0.0582
17670TIP3   OH274424   3.644   5.506   2.988  0.0295 -0.2133  0.4486
17670TIP3    H174425   3.684   5.590   2.965  1.0025 -0.5310  0.9093
17670TIP3    H274426   3.570   5.529   3.045 -1.0176  0.4331 -1.1594
17671TIP3   OH274427   4.120   0.054  15.621  0.2824 -0.8584 -0.2940
17671TIP3    H174428   4.159   0.045  15.534 -0.2554 -0.3877 -0.5867
17671TIP3    H274429   4.030   0.081  15.604  0.3209 -0.2618  0.4203
17672TIP3   OH274430   5.856   4.066   6.465 -0.3359 -0.2551  0.1206
17672TIP3    H174431   5.778   4.097   6.419  0.1325  1.4474  0.4198
17672TIP3    H274432   5.882   3.987   6.418 -1.3819  0.0012 -0.9096
17673TIP3   OH274433   5.560   2.767  13.821 -0.2687 -0.1567  0.4922
17673TIP3    H174434   5.644   2.750  13.779 -0.4523 -1.3362  0.5901
17673TIP3    H274435   5.522   2.681  13.835 -1.4898  0.3689  0.4826
17674TIP3   OH274436   1.582   1.506  14.390 -0.2924 -0.3960 -0.1460
17674TIP3    H174437   1.633   1.553  14.456 -2.7925  2.3701 -0.0705
17674TIP3    H274438   1.628   1.523  14.308  0.6436 -0.6230  0.3138
17675TIP3   OH274439   0.511   2.020   4.436 -0.2587 -0.4173 -0.0998
17675TIP3    H174440   0.561   1.939   4.444 -1.7343 -1.1700  1.8912
17675TIP3    H274441   0.421   1.994   4.454 -0.8728  1.5003 -0.3348
17676TIP3   OH274442   4.776   2.649   2.659 -0.5768 -0.2804  0.1796
17676TIP3    H174443   4.723   2.629   2.582  1.0717 -2.6807 -0.4188
17676TIP3    H274444   4.734   2.600   2.730 -1.6170  1.2690  0.6519
17677TIP3   OH274445   5.991   2.683  11.447  0.1365 -0.6674  0.2989
17677TIP3    H174446   5.954   2.719  11.528 -0.5188 -0.3461 -0.1356
17677TIP3    H274447   6.057   2.620  11.476  0.4050 -0.0348  1.0821
17678TIP3   OH274448   0.911   3.831  16.653  0.0109  0.0159  0.0165
17678TIP3    H174449   0.958   3.774  16.591 -1.0837 -1.7885  0.8073
17678TIP3    H274450   0.947   3.918  16.638  1.2830 -0.7818 -1.6665
17679TIP3   OH274451   0.063   4.409  15.873 -0.1844  0.2043  0.4562
17679TIP3    H174452   0.122   4.483  15.889 -0.3170  0.0256  1.8367
17679TIP3    H274453  -0.018   4.432  15.920 -0.5314 -0.4353  0.1812
17680TIP3   OH274454   2.633   5.454   2.683 -0.3157  0.6563  0.1697
17680TIP3    H174455   2.591   5.425   2.602  1.4483  0.5679 -0.7525
17680TIP3    H274456   2.622   5.549   2.682  1.0676  0.8204 -0.9912
17681TIP3   OH274457   6.703   4.212   6.284  0.0944  0.2328 -0.7115
17681TIP3    H174458   6.618   4.211   6.327  0.7553  0.2223  0.6343
17681TIP3    H274459   6.714   4.302   6.253 -0.6539  0.0856 -1.4017
17682TIP3   OH274460   0.202   1.180  10.905 -0.0841  0.4300  0.9511
17682TIP3    H174461   0.204   1.150  10.814  0.4542 -0.5154  1.2789
17682TIP3    H274462   0.213   1.101  10.958 -0.8678  0.9091  1.8548
17683TIP3   OH274463   3.534   2.192  13.556  0.2851  0.0185  0.5271
17683TIP3    H174464   3.491   2.146  13.627 -0.2213 -0.2307  0.0648
17683TIP3    H274465   3.611   2.233  13.596  0.5341 -0.9264  1.0056
17684TIP3   OH274466   4.839   4.257  15.413  0.3003  0.4381 -0.2200
17684TIP3    H174467   4.884   4.286  15.334  0.6946  0.8593  0.1656
17684TIP3    H274468   4.868   4.167  15.425 -0.2176  0.1693 -0.8861
17685TIP3   OH274469   6.120   2.906  14.515 -0.3443  0.3135 -0.1906
17685TIP3    H174470   6.178   2.931  14.586  0.9654  0.0664 -1.1474
17685TIP3    H274471   6.178   2.864  14.451 -1.9245 -2.0301 -0.1376
17686TIP3   OH274472   0.456   4.316   4.767  0.1009 -0.2068 -0.4411
17686TIP3    H174473   0.487   4.356   4.848 -1.3577 -0.2558  0.1563
17686TIP3    H274474   0.528   4.261   4.738  2.0516  2.6468 -1.1460
17687TIP3   OH274475   0.365   2.371  17.136  0.3377 -0.0997 -0.0452
17687TIP3    H174476   0.392   2.338  17.051 -0.0356  1.8801 -0.9583
17687TIP3    H274477   0.316   2.299  17.175  2.0299 -1.6682 -0.7350
17688TIP3   OH274478   2.885   0.510  11.941  0.5313  0.4521  0.1338
17688TIP3    H174479   2.964   0.459  11.959  1.5373  0.7071 -3.1930
17688TIP3    H274480   2.917   0.590  11.900 -1.5083 -0.0908 -2.6571
17689TIP3   OH274481   3.525   0.680   4.642  0.4482 -0.1928  0.1933
17689TIP3    H174482   3.532   0.763   4.689 -1.5597 -0.3449  0.7960
17689TIP3    H274483   3.599   0.628   4.673  0.5259  0.6160  1.3687
17690TIP3   OH274484   1.358   0.553   2.208 -0.2470 -0.1047 -1.0167
17690TIP3    H174485   1.393   0.612   2.142 -1.5254  1.9997  0.1217
17690TIP3    H274486   1.273   0.592   2.232 -0.2720 -1.3881  1.0895
17691TIP3   OH274487   0.103   4.529   3.804 -0.0577 -0.3036 -0.4218
17691TIP3    H174488   0.126   4.529   3.897 -1.3471  0.6678 -0.0906
17691TIP3    H274489   0.157   4.459   3.767  1.4619  0.1773  0.7999
17692TIP3   OH274490   6.220   4.039   2.718 -0.7429 -0.0538 -0.4239
17692TIP3    H174491   6.219   3.944   2.731 -0.4919  0.1846  1.6033
17692TIP3    H274492   6.284   4.071   2.782  0.1380  1.3796 -1.9770
17693TIP3   OH274493   6.270   5.181   5.198 -0.3481 -0.1860  0.2591
17693TIP3    H174494   6.297   5.131   5.276 -2.8703 -1.1220  0.5923
17693TIP3    H274495   6.278   5.272   5.225 -0.5792 -0.4903  1.4174
17694TIP3   OH274496   2.511   2.950   1.968 -0.7806 -0.9005  0.2571
17694TIP3    H174497   2.468   3.018   1.915 -0.8848 -2.5768 -1.8819
17694TIP3    H274498   2.526   2.992   2.053  2.8110  3.1883 -2.1927
17695TIP3   OH274499   4.877   2.871   4.236 -0.1258 -0.0186 -0.8737
17695TIP3    H174500   4.785   2.844   4.237 -0.6586  1.6334 -2.4845
17695TIP3    H274501   4.921   2.807   4.293 -2.6535  0.6234  1.9705
17696TIP3   OH274502   5.983   5.861  14.301  0.1045 -0.0610  0.4084
17696TIP3    H174503   6.032   5.941  14.318  1.4524 -1.1894  1.9546
17696TIP3    H274504   5.895   5.879  14.332  0.0650  1.2378 -0.4091
17697TIP3   OH274505   4.176   2.450   1.918  0.3737 -0.6378  0.0158
17697TIP3    H174506   4.143   2.443   1.828 -0.4519 -0.5391  0.3048
17697TIP3    H274507   4.103   2.486   1.967  1.1467  0.2155  0.5453
17698TIP3   OH274508   5.283   0.708  17.143  0.7931 -0.4210  0.8407
17698TIP3    H174509   5.375   0.701  17.171  0.2683 -2.9683  2.1181
17698TIP3    H274510   5.233   0.703  17.225 -0.4913  2.1986  0.2869
17699TIP3   OH274511   2.439   1.749   1.122 -0.4488 -0.2768 -0.1856
17699TIP3    H174512   2.531   1.727   1.110 -0.6654 -0.4033 -1.7517
17699TIP3    H274513   2.405   1.681   1.181  0.2702 -0.7036 -0.2583
17700TIP3   OH274514   0.921   3.168   6.035  0.1412  0.6462  0.0372
17700TIP3    H174515   0.865   3.242   6.012 -0.3890  0.0125 -0.7348
17700TIP3    H274516   0.882   3.133   6.115 -1.5277 -0.7518 -1.3494
17701TIP3   OH274517   2.331   4.253   1.105  0.1217 -0.8404  0.1871
17701TIP3    H174518   2.341   4.178   1.163 -0.4021 -0.3940  0.8669
17701TIP3    H274519   2.419   4.288   1.095  0.3333 -1.4086  0.0429
17702TIP3   OH274520   4.455   5.323  13.314 -0.1433  0.1062  0.3805
17702TIP3    H174521   4.517   5.284  13.375  0.1696  0.6179  0.3910
17702TIP3    H274522   4.454   5.416  13.336  0.6700  0.4549 -1.0061
17703TIP3   OH274523   5.638   6.112   2.560  0.5323 -0.7830  0.8057
17703TIP3    H174524   5.569   6.170   2.528  0.3665 -1.7583 -0.6558
17703TIP3    H274525   5.676   6.158   2.635 -0.7971  0.3755  0.7784
17704TIP3   OH274526   6.021   1.942   0.414 -0.0695 -0.4822 -0.2679
17704TIP3    H174527   6.002   1.917   0.324  0.5620  0.5490 -0.6947
17704TIP3    H274528   6.110   1.912   0.430  0.2566  0.4129 -0.3890
17705TIP3   OH274529   0.919   5.084  10.970  0.0986  0.3462 -0.2312
17705TIP3    H174530   1.003   5.054  11.003  0.3198  0.5298 -0.6225
17705TIP3    H274531   0.868   5.003  10.957  0.5316  0.1684 -0.8518
17706TIP3   OH274532   4.601   3.904   3.248 -0.1527 -0.3005  0.6364
17706TIP3    H174533   4.651   3.958   3.186  0.5625 -0.9595  0.6267
17706TIP3    H274534   4.566   3.833   3.194 -2.3102  0.9300  0.3754
17707TIP3   OH274535   0.916   2.072   0.641 -0.1324 -0.0207 -0.1708
17707TIP3    H174536   0.972   2.150   0.634 -0.2733 -0.0742 -2.1794
17707TIP3    H274537   0.907   2.057   0.735  1.1009  1.5275  0.2096
17708TIP3   OH274538   5.355   6.521   2.789  0.2189 -0.0680 -0.3088
17708TIP3    H174539   5.408   6.529   2.710  0.1651  1.4592 -0.2047
17708TIP3    H274540   5.414   6.545   2.860 -0.5741  1.5731 -0.1837
17709TIP3   OH274541   4.364   3.647  12.935  0.3087  0.5177  0.1814
17709TIP3    H174542   4.287   3.601  12.968  0.3014 -0.5283 -1.2388
17709TIP3    H274543   4.434   3.624  12.996  0.7241 -2.8502 -1.4730
17710TIP3   OH274544   3.767   0.674   4.033 -0.4462 -0.0558  0.0438
17710TIP3    H174545   3.740   0.593   4.077 -0.3488 -0.3601 -0.4440
17710TIP3    H274546   3.710   0.678   3.955 -0.4136  0.3190  0.0393
17711TIP3   OH274547   4.417   4.926   4.549 -0.2450 -0.1768 -0.5772
17711TIP3    H174548   4.374   4.931   4.463 -1.1303 -0.0844 -0.1302
17711TIP3    H274549   4.508   4.948   4.531 -0.8570  1.9811 -1.1445
17712TIP3   OH274550   4.257   3.691  10.373  0.6827 -0.1968 -0.2464
17712TIP3    H174551   4.242   3.599  10.394  0.3789 -0.4707 -1.6017
17712TIP3    H274552   4.338   3.713  10.419  0.2711 -0.8803  0.8227
17713TIP3   OH274553   4.424   3.966   3.850  0.6037  0.1353  0.4070
17713TIP3    H174554   4.445   3.898   3.785  0.4450 -0.4418  0.9543
17713TIP3    H274555   4.379   4.034   3.799  1.8975  0.4106 -0.3801
17714TIP3   OH274556   5.448   4.442   6.033  0.0126 -0.3882  0.0689
17714TIP3    H174557   5.543   4.431   6.033  0.0588 -0.0503  1.1739
17714TIP3    H274558   5.428   4.479   6.119 -0.9387  1.1591 -0.7872
17715TIP3   OH274559   2.281   2.012   2.723 -0.1146 -1.0387  0.2034
17715TIP3    H174560   2.220   2.078   2.688  1.0289 -1.0312 -1.8918
17715TIP3    H274561   2.367   2.041   2.692  0.4967 -3.0803 -0.0830
17716TIP3   OH274562   4.314   4.337  15.162  0.5044 -0.2716  0.1289
17716TIP3    H174563   4.276   4.409  15.212  0.3919 -0.6126  0.5352
17716TIP3    H274564   4.338   4.272  15.227 -1.1384 -1.4279 -0.3660
17717TIP3   OH274565   5.546   3.136   4.059 -0.0516 -0.7292  0.0887
17717TIP3    H174566   5.611   3.068   4.074 -0.3005 -0.4524  2.6223
17717TIP3    H274567   5.574   3.210   4.113 -2.1418 -0.4150  0.8144
17718TIP3   OH274568   2.280   0.029  13.596 -0.0287  0.1310  0.4123
17718TIP3    H174569   2.229   0.026  13.515  0.7054  0.7047 -0.0777
17718TIP3    H274570   2.323   0.115  13.594 -0.1924  0.2430  1.5263
17719TIP3   OH274571   4.146   6.328  11.990  0.3054 -0.1642  0.1472
17719TIP3    H174572   4.215   6.306  11.927  0.7470 -0.7346  0.8169
17719TIP3    H274573   4.084   6.256  11.985  0.3773 -0.2465  0.4063
17720TIP3   OH274574   1.658   4.149  15.658 -0.1521 -0.5786  0.7413
17720TIP3    H174575   1.607   4.229  15.664  0.0876 -0.4765  1.6135
17720TIP3    H274576   1.739   4.169  15.705  0.2650 -1.0537  0.2216
17721TIP3   OH274577   5.083   0.201   6.265 -0.4749 -0.1874  0.6421
17721TIP3    H174578   5.016   0.203   6.197 -0.1076 -1.3982  0.2355
17721TIP3    H274579   5.166   0.195   6.218  0.0139  2.1188  1.1156
17722TIP3   OH274580   5.614   6.637  15.245 -0.5851  0.2784  0.2696
17722TIP3    H174581   5.671   6.584  15.300 -0.3869  0.7694  0.5428
17722TIP3    H274582   5.666   6.715  15.225 -0.7884  0.2616 -0.3188
17723TIP3   OH274583   3.192   3.258   4.027  0.1803  0.1257 -0.3196
17723TIP3    H174584   3.199   3.257   3.932 -2.6150 -1.1421 -0.5433
17723TIP3    H274585   3.103   3.228   4.046 -0.1281  2.5572  2.6296
17724TIP3   OH274586   2.246   1.943  14.474 -0.6101 -0.2413 -0.3213
17724TIP3    H174587   2.316   1.997  14.511 -0.5172 -1.6079  1.5799
17724TIP3    H274588   2.190   1.921  14.549 -1.8462 -1.0091 -1.4354
17725TIP3   OH274589   0.809   5.759   1.421  0.2934  0.4172 -0.2255
17725TIP3    H174590   0.790   5.711   1.340  2.6838  1.4444 -1.4533
17725TIP3    H274591   0.879   5.708   1.463 -0.4860  0.2466  0.9000
17726TIP3   OH274592   3.150   2.296   3.615  0.2472  0.3190 -0.1926
17726TIP3    H174593   3.138   2.389   3.635  0.0294  0.6977 -2.0347
17726TIP3    H274594   3.066   2.256   3.636  0.7643  0.2851  1.9156
17727TIP3   OH274595   4.851   0.754  16.203  0.1793 -0.2959 -0.8270
17727TIP3    H174596   4.764   0.725  16.233  0.2099 -0.0121 -0.4719
17727TIP3    H274597   4.909   0.683  16.229  0.3324  0.2982  0.4783
17728TIP3   OH274598   5.831   6.714   0.806  0.8938  1.0304 -0.1661
17728TIP3    H174599   5.878   6.708   0.889 -1.4897  1.7008  1.2913
17728TIP3    H274600   5.797   6.803   0.805 -0.9358  0.3374 -0.8218
17729TIP3   OH274601   3.644   6.348  12.398 -0.5976 -0.0859  0.7655
17729TIP3    H174602   3.680   6.426  12.439  0.3649  0.5414 -1.2209
17729TIP3    H274603   3.698   6.276  12.433  0.0152  0.4070  0.8454
17730TIP3   OH274604   3.645   4.678  12.489 -0.1636 -0.3280  0.6188
17730TIP3    H174605   3.630   4.642  12.401 -0.1130  0.3206  0.3396
17730TIP3    H274606   3.727   4.727  12.481  0.5717 -1.4321  1.3869
17731TIP3   OH274607   0.626   5.104  17.213  0.0151 -0.3368 -1.1155
17731TIP3    H174608   0.549   5.161  17.212  1.2698  1.4366  1.0798
17731TIP3    H274609   0.590   5.015  17.212 -1.9784  0.4416 -3.0315
17732TIP3   OH274610   0.498   2.113   2.162  0.1544  0.3246  0.0980
17732TIP3    H174611   0.445   2.103   2.241  0.5333 -0.1842  0.2941
17732TIP3    H274612   0.556   2.187   2.181  2.3494 -1.6663  1.5171
17733TIP3   OH274613   3.350   4.586   4.281  0.0876 -0.2521  0.3523
17733TIP3    H174614   3.426   4.549   4.236 -0.0046 -1.9332  1.5271
17733TIP3    H274615   3.292   4.511   4.294 -2.1577  1.1436 -1.2422
17734TIP3   OH274616   6.605   6.745   1.064  0.2086 -0.5314  0.1025
17734TIP3    H174617   6.595   6.756   1.158 -0.7458  1.7367 -0.2203
17734TIP3    H274618   6.584   6.831   1.027 -3.0168 -2.2668 -2.4183
17735TIP3   OH274619   1.893   1.559  11.056  0.5515 -0.0018  1.3277
17735TIP3    H174620   1.846   1.576  10.975 -0.6206 -1.0738  1.7669
17735TIP3    H274621   1.896   1.644  11.100 -0.8900  0.1080  1.2386
17736TIP3   OH274622   4.356   0.411   1.448 -0.1706  0.4405  0.5344
17736TIP3    H174623   4.438   0.453   1.475 -0.3899 -0.2316  2.3463
17736TIP3    H274624   4.289   0.478   1.466 -0.0935  0.7777 -0.4020
17737TIP3   OH274625   2.547   6.086   5.686 -0.3470 -0.3880  0.8757
17737TIP3    H174626   2.569   5.994   5.697  0.0830 -0.3170  0.6147
17737TIP3    H274627   2.453   6.086   5.669 -0.1641 -0.8589 -0.1689
17738TIP3   OH274628   3.603   3.941   0.228  0.3018  0.1891  0.8984
17738TIP3    H174629   3.659   4.019   0.228 -0.1086  0.4820 -0.4161
17738TIP3    H274630   3.604   3.912   0.320  0.6969  1.5516  1.3390
17739TIP3   OH274631   1.037   2.659   6.131 -0.2310  0.6135 -0.4196
17739TIP3    H174632   1.067   2.654   6.222  1.1215 -0.2605 -0.8847
17739TIP3    H274633   0.982   2.582   6.120  1.8634 -0.8431 -1.0927
17740TIP3   OH274634   0.188   5.478   6.441 -0.1409  0.6621 -0.1851
17740TIP3    H174635   0.187   5.388   6.408  0.6761  1.1307 -1.5523
17740TIP3    H274636   0.259   5.479   6.506 -0.9355  0.0431  0.7116
17741TIP3   OH274637   5.383   1.665   4.451  0.1765 -0.9556 -0.2235
17741TIP3    H174638   5.445   1.619   4.509  1.1561  0.3525 -0.2077
17741TIP3    H274639   5.429   1.671   4.368  0.1586  0.2099 -0.1534
17742TIP3   OH274640   3.094   0.078  12.877  0.0909 -0.2219 -0.0695
17742TIP3    H174641   3.026   0.146  12.875 -0.9547 -1.2400  0.5151
17742TIP3    H274642   3.174   0.125  12.855 -0.7114  1.0995 -0.2690
17743TIP3   OH274643   6.466   3.663  15.326  0.2447 -0.2076 -0.0915
17743TIP3    H174644   6.399   3.699  15.384  0.8993  0.3071  0.3466
17743TIP3    H274645   6.427   3.667  15.239 -0.3945 -0.1461  0.1948
17744TIP3   OH274646   3.850   3.260   1.849  0.1101 -0.2373  0.0610
17744TIP3    H174647   3.889   3.338   1.812 -1.1687  0.4849  0.1821
17744TIP3    H274648   3.755   3.272   1.837 -0.0145 -2.9793 -2.3226
17745TIP3   OH274649   1.502   2.450   4.226 -0.0330  0.0549 -0.4928
17745TIP3    H174650   1.481   2.543   4.218  0.4488  0.1641 -0.5086
17745TIP3    H274651   1.572   2.446   4.292  0.0568 -0.2802 -0.6038
17746TIP3   OH274652   2.023   4.432  15.462 -0.5386 -0.1795  0.2258
17746TIP3    H174653   2.116   4.427  15.441 -0.6649 -0.6580 -0.2377
17746TIP3    H274654   2.013   4.516  15.506  0.1522 -0.2257  0.4800
17747TIP3   OH274655   2.520   4.101   0.801  0.0604 -0.1937 -0.7117
17747TIP3    H174656   2.493   4.144   0.720  0.5114 -0.8460 -1.2104
17747TIP3    H274657   2.451   4.036   0.817 -0.7726  0.8929  0.1962
17748TIP3   OH274658   2.298   2.182   6.633  0.7481 -0.9248  0.2993
17748TIP3    H174659   2.361   2.160   6.565  0.7845 -0.5351  0.2042
17748TIP3    H274660   2.237   2.243   6.591  0.4153 -1.1555  0.4433
17749TIP3   OH274661   0.150   1.763   1.614  0.8036 -0.7546 -0.3746
17749TIP3    H174662   0.197   1.844   1.593 -0.9207  0.3682 -0.0149
17749TIP3    H274663   0.071   1.767   1.560 -0.5824 -0.8905  1.5715
17750TIP3   OH274664   5.554   6.554  16.696 -0.0590  0.0029  0.2879
17750TIP3    H174665   5.553   6.499  16.775 -1.9236 -0.9236 -0.3724
17750TIP3    H274666   5.521   6.639  16.726  1.2343  0.2941  0.9411
17751TIP3   OH274667   6.252   0.195  16.888 -0.2812  0.3202 -0.1473
17751TIP3    H174668   6.267   0.203  16.982  0.2187 -2.1808  0.0394
17751TIP3    H274669   6.338   0.208  16.848 -0.0822 -0.7122 -0.0799
17752TIP3   OH274670   3.433   6.232  12.712  0.0168  0.1030  0.4838
17752TIP3    H174671   3.528   6.243  12.718  0.2201 -0.0882 -1.8280
17752TIP3    H274672   3.408   6.192  12.796  2.2583 -1.5923  0.4026
17753TIP3   OH274673   5.292   0.807   2.331  0.3709 -0.0978 -0.6110
17753TIP3    H174674   5.345   0.879   2.366 -2.1047  0.8543  1.2856
17753TIP3    H274675   5.239   0.777   2.405 -1.9005 -0.8769 -2.4832
17754TIP3   OH274676   4.282   1.832  16.470  0.2148  0.2571  0.2930
17754TIP3    H174677   4.207   1.882  16.502 -1.0532 -0.4715 -1.4729
17754TIP3    H274678   4.302   1.771  16.541 -0.4846  0.8427  1.0049
17755TIP3   OH274679   1.801   1.423  15.223  0.3814  0.0335 -0.1077
17755TIP3    H174680   1.816   1.428  15.318  0.9935  0.0815 -0.2070
17755TIP3    H274681   1.706   1.431  15.214  0.2779 -0.4213  0.5316
17756TIP3   OH274682   2.487   3.191  10.961 -0.0954  0.4337 -0.6936
17756TIP3    H174683   2.558   3.251  10.981 -1.2259  1.3782  0.5706
17756TIP3    H274684   2.407   3.242  10.975 -1.0600 -1.1484 -0.2904
17757TIP3   OH274685   1.010   0.316  13.992 -0.2746  0.0794 -0.3731
17757TIP3    H174686   1.084   0.340  13.937 -0.8275  1.3599 -0.5882
17757TIP3    H274687   1.050   0.273  14.068  0.9066  2.7991  0.6141
17758TIP3   OH274688   5.496   6.726  12.242 -0.4222 -0.2637 -1.0518
17758TIP3    H174689   5.406   6.697  12.252 -0.3342 -0.2844 -0.2971
17758TIP3    H274690   5.515   6.775  12.322  0.5260 -1.0438 -0.7843
17759TIP3   OH274691   3.313   0.387   0.657  0.0281  0.1319 -0.0101
17759TIP3    H174692   3.402   0.410   0.684  0.4306 -0.7496 -0.5742
17759TIP3    H274693   3.318   0.293   0.638 -0.5891  0.4554 -1.7750
17760TIP3   OH274694   6.676   3.966  16.542 -0.1801 -0.7601 -0.3433
17760TIP3    H174695   6.642   3.879  16.523 -2.0755 -0.4535  1.4265
17760TIP3    H274696   6.699   4.003  16.457 -1.5380 -2.1159 -1.3014
17761TIP3   OH274697   0.430   2.620  14.513  0.3311 -0.2901 -0.0827
17761TIP3    H174698   0.341   2.656  14.505 -0.6891 -2.8031 -0.5508
17761TIP3    H274699   0.416   2.526  14.525  2.8843 -0.4260  1.9976
17762TIP3   OH274700   5.465   4.029  15.041  0.0833  0.3025  0.2700
17762TIP3    H174701   5.526   4.076  15.098 -0.8854  1.2410  0.5349
17762TIP3    H274702   5.508   3.944  15.026  0.9988  0.5741  1.2588
17763TIP3   OH274703   5.625   4.944  14.681  0.1950  0.0331  0.2342
17763TIP3    H174704   5.541   4.901  14.695 -0.1097  0.9070  1.1930
17763TIP3    H274705   5.615   4.990  14.598  0.0694 -0.6705 -0.1406
17764TIP3   OH274706   1.584   0.959  10.992 -0.0555  0.0961 -0.4659
17764TIP3    H174707   1.604   0.867  10.972  1.3723  0.5037 -0.9698
17764TIP3    H274708   1.515   0.982  10.929 -1.7418 -1.1360  0.8697
17765TIP3   OH274709   5.204   3.732   3.093  0.2198 -0.3438  0.4614
17765TIP3    H174710   5.162   3.762   3.173  1.5699  0.8057  0.7653
17765TIP3    H274711   5.298   3.734   3.113  0.4270 -3.1625 -0.0914
17766TIP3   OH274712   3.872   3.715   5.527  0.5082  0.1246 -0.3928
17766TIP3    H174713   3.937   3.758   5.471 -1.1222 -0.0580 -2.4848
17766TIP3    H274714   3.817   3.666   5.467 -1.9530  0.7635  1.2517
17767TIP3   OH274715   6.214   2.453  12.128 -0.0331 -0.1916 -0.4034
17767TIP3    H174716   6.149   2.387  12.107  0.3291  0.0741 -2.4936
17767TIP3    H274717   6.165   2.522  12.172 -1.2808  0.2290 -2.3960
17768TIP3   OH274718   2.933   4.422  15.471  0.1506 -0.5764  0.2280
17768TIP3    H174719   3.023   4.448  15.452 -0.6618  1.8321 -0.5271
17768TIP3    H274720   2.938   4.328  15.488  2.4503 -0.9410 -2.1564
17769TIP3   OH274721   2.614   2.651  12.329 -0.1014  0.1070  0.1351
17769TIP3    H174722   2.681   2.667  12.395  0.2733 -1.9022  0.2940
17769TIP3    H274723   2.661   2.611  12.256 -1.2043 -2.1371  0.6004
17770TIP3   OH274724   6.002   2.083   2.175  0.3748 -0.2923  0.1032
17770TIP3    H174725   5.983   2.091   2.268 -3.6257  1.0432 -0.7591
17770TIP3    H274726   5.983   2.169   2.138 -0.0826 -1.3495 -2.2590
17771TIP3   OH274727   1.076   3.518   0.589  0.6595 -0.0112  0.0771
17771TIP3    H174728   1.037   3.550   0.508 -0.8428 -0.0134  0.7777
17771TIP3    H274729   1.149   3.464   0.561 -0.5823 -0.9975 -1.3444
17772TIP3   OH274730   1.558   4.683   4.285 -0.5070  0.0127 -0.5783
17772TIP3    H174731   1.622   4.628   4.331  0.9100  0.5503 -1.8884
17772TIP3    H274732   1.611   4.746   4.236 -2.0747  1.1249 -0.8692
17773TIP3   OH274733   5.576   0.385   1.022  0.2980 -0.0254 -0.3887
17773TIP3    H174734   5.508   0.332   1.064  2.1011 -2.4284 -0.4150
17773TIP3    H274735   5.570   0.363   0.929  2.4100 -1.8400 -0.1395
17774TIP3   OH274736   1.210   0.159  13.231 -0.1176  0.3513 -0.2425
17774TIP3    H174737   1.248   0.244  13.251  1.0862 -0.4221  0.9085
17774TIP3    H274738   1.257   0.129  13.154 -1.4967  1.3029 -1.4809
17775TIP3   OH274739   3.256   1.038   1.446  0.0533  0.1115  0.5348
17775TIP3    H174740   3.270   1.024   1.540 -0.2648 -1.5901  0.3591
17775TIP3    H274741   3.266   0.950   1.408  0.2478  0.8010 -1.0249
17776TIP3   OH274742   4.144   2.082  12.984  0.3100 -0.1828 -0.1884
17776TIP3    H174743   4.204   2.145  13.025  1.6537 -1.5492 -0.0190
17776TIP3    H274744   4.071   2.075  13.047  0.5430  0.5660  0.1767
17777TIP3   OH274745   4.727   5.944   1.436  0.4976  0.2201 -0.6970
17777TIP3    H174746   4.743   6.000   1.512  1.5481 -0.4045 -0.4476
17777TIP3    H274747   4.734   5.855   1.470 -0.6996 -0.0722 -1.1910
17778TIP3   OH274748   6.515   5.584   4.144 -0.2859 -0.2657 -0.6996
17778TIP3    H174749   6.429   5.625   4.152 -0.8690 -1.7576  0.8893
17778TIP3    H274750   6.561   5.608   4.225  0.1671 -0.8888 -0.7691
17779TIP3   OH274751   0.909   0.980   2.787  0.1951  0.0742  0.3230
17779TIP3    H174752   0.918   0.961   2.693 -0.2718 -0.0461  0.3022
17779TIP3    H274753   0.998   1.002   2.815  0.3643 -0.0334 -0.1168
17780TIP3   OH274754   6.067   3.671  12.811 -0.6711  0.3151  0.0626
17780TIP3    H174755   6.090   3.666  12.904 -1.1497  1.1732  0.2347
17780TIP3    H274756   5.971   3.672  12.810 -0.6677  0.2857 -0.4437
17781TIP3   OH274757   2.380   4.642  14.287 -0.8816  0.3176 -0.4654
17781TIP3    H174758   2.377   4.733  14.258 -2.2001  0.4495  0.0359
17781TIP3    H274759   2.326   4.641  14.366 -0.0347 -0.6958  0.1100
17782TIP3   OH274760   1.406   1.529  15.435 -0.3439 -0.2884  0.2670
17782TIP3    H174761   1.320   1.491  15.417 -0.2228  0.1849 -1.3506
17782TIP3    H274762   1.391   1.589  15.508 -1.5098  0.2158 -0.3788
17783TIP3   OH274763   2.290   0.434  15.895 -0.1103  0.4632  0.2231
17783TIP3    H174764   2.322   0.456  15.983 -0.5713  2.8674 -0.1696
17783TIP3    H274765   2.209   0.484  15.886 -0.7175 -0.7387 -1.1134
17784TIP3   OH274766   4.727   0.608  15.307  0.1378  0.2865  0.2787
17784TIP3    H174767   4.641   0.643  15.329  0.1032 -0.2850  1.0826
17784TIP3    H274768   4.710   0.546  15.236 -0.5256 -1.8746  2.2555
17785TIP3   OH274769   2.267   5.919  11.758  0.3824  0.1711 -0.2918
17785TIP3    H174770   2.303   5.887  11.841  0.9164 -0.1530 -0.6426
17785TIP3    H274771   2.190   5.970  11.783  1.3374  1.2693  0.5238
17786TIP3   OH274772   5.153   5.128   6.169 -0.1930 -0.2799 -0.4450
17786TIP3    H174773   5.140   5.047   6.218  0.9051  0.0894  0.4851
17786TIP3    H274774   5.177   5.193   6.236 -2.4337  1.1622 -0.9762
17787TIP3   OH274775   3.770   3.797   2.644 -0.6930  0.0701  0.3124
17787TIP3    H174776   3.706   3.865   2.625 -1.2791 -1.0608 -1.9503
17787TIP3    H274777   3.841   3.813   2.582 -0.2716 -0.6347  0.6040
17788TIP3   OH274778   0.477   1.666   5.880 -0.2659 -0.0322 -0.0990
17788TIP3    H174779   0.420   1.733   5.917  0.0301 -0.2743  0.7912
17788TIP3    H274780   0.425   1.586   5.884 -1.0037  0.3131 -2.0862
17789TIP3   OH274781   0.150   2.107  15.247 -0.1817 -0.2645 -0.7386
17789TIP3    H174782   0.215   2.111  15.317 -0.4804 -0.2117 -0.4609
17789TIP3    H274783   0.197   2.134  15.169  0.1380 -0.2538 -0.5444
17790TIP3   OH274784   6.596   3.751   1.050 -0.0086 -0.2224 -0.3550
17790TIP3    H174785   6.657   3.733   1.122 -0.0439 -1.3091 -0.5999
17790TIP3    H274786   6.512   3.766   1.094  0.2600  0.5099 -0.0746
17791TIP3   OH274787   5.998   6.685  15.842 -0.0082 -0.1790  0.0965
17791TIP3    H174788   5.973   6.622  15.774  1.0062 -0.5445  0.0462
17791TIP3    H274789   5.916   6.726  15.869 -0.3742  0.2288 -1.6025
17792TIP3   OH274790   6.492   5.644   0.357 -0.1479  0.0516 -0.5755
17792TIP3    H174791   6.458   5.612   0.274  2.6228 -3.8002 -0.3365
17792TIP3    H274792   6.476   5.573   0.419  3.0286  0.4716  0.8223
17793TIP3   OH274793   5.705   2.790   2.861  0.0105  0.4606 -0.4314
17793TIP3    H174794   5.623   2.790   2.811 -0.0170 -0.5761 -0.4102
17793TIP3    H274795   5.693   2.858   2.927 -0.3054  1.2387 -1.2685
17794TIP3   OH274796   3.151   3.081   2.807  0.4819 -0.5999 -0.2005
17794TIP3    H174797   3.109   2.995   2.806 -3.2038  1.0958  0.0582
17794TIP3    H274798   3.184   3.093   2.718 -0.7533 -1.4772 -0.7905
17795TIP3   OH274799   3.190   4.904   1.631 -0.1708  0.1631  0.2462
17795TIP3    H174800   3.206   4.958   1.553  1.6340  0.3312  0.6977
17795TIP3    H274801   3.258   4.836   1.626 -2.6625 -2.3614 -0.5426
17796TIP3   OH274802   1.131   5.212   5.787 -0.0239 -0.1452  0.1025
17796TIP3    H174803   1.121   5.284   5.725 -0.9308  0.9921  1.5543
17796TIP3    H274804   1.217   5.227   5.827  1.1378 -1.5894 -1.7224
17797TIP3   OH274805   4.656   0.493  14.571  0.4062 -0.4685  0.2244
17797TIP3    H174806   4.589   0.432  14.544 -0.2255  0.1229  0.4453
17797TIP3    H274807   4.676   0.544  14.492 -1.3851  1.2077  0.8045
17798TIP3   OH274808   6.260   5.325  11.648 -0.3676 -0.3202 -0.1249
17798TIP3    H174809   6.240   5.250  11.593 -0.1699 -0.8610  0.5305
17798TIP3    H274810   6.207   5.312  11.727  1.0209 -0.6980  0.7493
17799TIP3   OH274811   2.637   4.305   3.912  0.1521 -0.7657  0.0962
17799TIP3    H174812   2.594   4.350   3.985  1.2611 -0.4885  0.5926
17799TIP3    H274813   2.695   4.242   3.954  0.1424 -1.2167 -0.5668
17800TIP3   OH274814   1.698   4.759   1.571  0.2915 -0.3518  0.3973
17800TIP3    H174815   1.728   4.765   1.480 -1.8482  0.1576 -0.3060
17800TIP3    H274816   1.647   4.839   1.585 -2.9355 -2.3688  0.6720
17801TIP3   OH274817   4.842   5.981  17.170 -0.0767  0.2219  0.3897
17801TIP3    H174818   4.898   6.048  17.131 -0.3330  0.2526  0.0701
17801TIP3    H274819   4.897   5.938  17.235  1.0642 -1.3018 -1.5316
17802TIP3   OH274820   0.343   3.170   3.713  0.0380  0.0436  0.2413
17802TIP3    H174821   0.284   3.244   3.700  0.4945  0.4360  0.3841
17802TIP3    H274822   0.420   3.208   3.756  0.5777 -0.3796 -0.3381
17803TIP3   OH274823   6.681   5.040   0.237  0.0643 -0.6219  0.1650
17803TIP3    H174824   6.677   5.031   0.141  0.7899  1.0106 -0.0367
17803TIP3    H274825   6.618   5.109   0.257  0.2553 -0.6411  0.8175
17804TIP3   OH274826   4.289   1.041   1.473  0.1476  0.2666 -1.1711
17804TIP3    H174827   4.314   1.114   1.416  0.8935 -1.1360 -2.6945
17804TIP3    H274828   4.287   0.965   1.415  1.4003 -1.2977  0.7583
17805TIP3   OH274829   4.533   6.331  14.994 -0.2191  0.6409  0.4578
17805TIP3    H174830   4.610   6.387  14.988  1.2243 -1.0883  2.3864
17805TIP3    H274831   4.512   6.311  14.902  1.6840  1.0258 -0.0913
17806TIP3   OH274832   3.392   3.307   3.070 -0.1355  0.6018  0.9774
17806TIP3    H174833   3.417   3.299   3.161  0.4817 -2.3716  0.5831
17806TIP3    H274834   3.299   3.286   3.068 -0.0304  0.1349  0.8648
17807TIP3   OH274835   5.219   1.076   2.101  1.1613 -0.5958 -0.3538
17807TIP3    H174836   5.146   1.067   2.163  1.4044 -1.8479 -0.2333
17807TIP3    H274837   5.176   1.097   2.017  0.8225  0.9088  0.1834
17808TIP3   OH274838   6.280   4.791  12.183  0.0262 -0.6706  0.2698
17808TIP3    H174839   6.239   4.766  12.100 -0.2241 -2.2638  0.8556
17808TIP3    H274840   6.215   4.847  12.226 -0.4680 -1.0880  0.0686
17809TIP3   OH274841   4.625   0.431  13.694  0.7331  0.6603  0.0211
17809TIP3    H174842   4.572   0.488  13.638  1.4170  0.4907 -0.8166
17809TIP3    H274843   4.652   0.488  13.766  0.8782  1.2311 -0.4770
17810TIP3   OH274844   2.960   5.518  16.924 -0.3716  0.1765 -0.2243
17810TIP3    H174845   2.941   5.568  16.845 -0.2218  1.2389  0.3978
17810TIP3    H274846   2.899   5.445  16.922 -0.4961  0.2981 -1.2198
17811TIP3   OH274847   5.335   4.455  13.354 -0.2119 -0.2489  0.7298
17811TIP3    H174848   5.240   4.442  13.352 -0.0003 -1.9362  0.9152
17811TIP3    H274849   5.366   4.396  13.423  1.1090 -0.6814 -0.2059
17812TIP3   OH274850   3.596   3.024  11.686 -0.1551  0.2247 -0.3187
17812TIP3    H174851   3.559   3.032  11.598 -1.2125  0.0947  0.1038
17812TIP3    H274852   3.531   3.066  11.743  0.6751  0.6032  0.3612
17813TIP3   OH274853   4.204   1.366   5.454  0.4814  0.1430 -0.1491
17813TIP3    H174854   4.204   1.270   5.451 -0.5939  0.1262  0.2199
17813TIP3    H274855   4.193   1.393   5.363 -1.1755 -0.1067 -0.0347
17814TIP3   OH274856   4.127   0.378   5.494 -0.1206 -0.0230 -0.6396
17814TIP3    H174857   4.222   0.385   5.497 -0.0840 -0.6045 -0.3065
17814TIP3    H274858   4.098   0.399   5.583  0.0081 -3.9911  0.4494
17815TIP3   OH274859   5.744   6.255  16.721 -0.4269  0.4988  0.3535
17815TIP3    H174860   5.734   6.165  16.753 -1.6680  0.5493  0.1311
17815TIP3    H274861   5.685   6.306  16.776  0.4933  1.2242  0.6668
17816TIP3   OH274862   3.308   3.107   1.000  0.8033 -0.3809  0.1463
17816TIP3    H174863   3.257   3.040   0.956  0.1596  0.2811 -0.1307
17816TIP3    H274864   3.394   3.104   0.957  0.7331 -0.9320  0.0485
17817TIP3   OH274865   4.025   0.041   1.938 -0.1679 -0.4484 -0.1303
17817TIP3    H174866   3.943   0.083   1.965  0.3586 -0.4691  1.5275
17817TIP3    H274867   4.001  -0.012   1.862 -1.1134  1.7893 -1.4305
17818TIP3   OH274868   6.142   5.628   5.364  0.0610 -0.7710  0.1968
17818TIP3    H174869   6.123   5.682   5.440  2.9739 -1.0373  1.1729
17818TIP3    H274870   6.097   5.545   5.382 -2.0800  0.3024 -0.0028
17819TIP3   OH274871   4.927   5.137   4.424 -0.1847  0.0963 -0.0961
17819TIP3    H174872   4.879   5.089   4.492  1.3174  0.0335  0.9604
17819TIP3    H274873   4.860   5.174   4.367 -1.3930 -2.0713 -0.0897
17820TIP3   OH274874   2.203   4.501   3.709 -0.2387  0.3786  0.1015
17820TIP3    H174875   2.215   4.410   3.734 -1.8384 -0.5874 -2.4512
17820TIP3    H274876   2.292   4.539   3.712  0.4102 -1.1897  1.3242
17821TIP3   OH274877   5.045   1.317   4.044  0.1360 -0.0520 -0.0158
17821TIP3    H174878   5.138   1.303   4.062  0.0171 -0.7128  0.0739
17821TIP3    H274879   5.004   1.232   4.059 -0.2331 -0.1978 -1.6857
17822TIP3   OH274880   2.446   6.478  12.713 -0.3065  0.2686 -0.1910
17822TIP3    H174881   2.386   6.507  12.782  0.6057  1.1844  0.2329
17822TIP3    H274882   2.475   6.391  12.742  1.4264  1.3776  1.4983
17823TIP3   OH274883   5.275   2.912  15.568 -0.5801  0.1804  0.0616
17823TIP3    H174884   5.249   2.820  15.572  0.2847 -0.0383  0.8305
17823TIP3    H274885   5.215   2.951  15.505 -0.1876 -1.1815 -1.2057
17824TIP3   OH274886   5.848   3.491   0.865 -0.1863 -0.5278 -0.7403
17824TIP3    H174887   5.906   3.491   0.789 -0.2775 -0.1075 -0.8086
17824TIP3    H274888   5.877   3.565   0.918 -0.9277 -0.0581 -0.9804
17825TIP3   OH274889   6.261   1.902  10.563  0.6885  0.2899  0.1089
17825TIP3    H174890   6.246   1.843  10.637 -0.0431  0.6466  0.2604
17825TIP3    H274891   6.262   1.845  10.486 -0.2552  0.0895  0.2268
17826TIP3   OH274892   2.390   0.361  14.910  0.1388  0.7017  0.0606
17826TIP3    H174893   2.328   0.345  14.981  0.6138 -1.0597  0.0869
17826TIP3    H274894   2.473   0.325  14.942  0.2967 -0.3517 -1.5113
17827TIP3   OH274895   3.785   6.493  16.340 -0.4028 -0.2315  0.2376
17827TIP3    H174896   3.779   6.397  16.341 -0.8600 -0.2415 -1.6615
17827TIP3    H274897   3.756   6.520  16.427 -0.7303 -1.8061  0.6252
17828TIP3   OH274898   1.464   2.985   4.745  0.0659 -0.2468  0.1809
17828TIP3    H174899   1.515   2.916   4.704 -0.8419 -0.0402 -1.3874
17828TIP3    H274900   1.383   2.987   4.694  0.3527  2.4050 -0.2359
17829TIP3   OH274901   1.107   0.281  14.478 -0.0889 -0.5316 -0.0490
17829TIP3    H174902   1.055   0.218  14.428 -2.2029  1.0205  0.1252
17829TIP3    H274903   1.195   0.274  14.441 -1.0815 -1.1106 -2.3837
17830TIP3   OH274904   6.759   1.790   3.369 -0.0789 -0.8996 -0.1996
17830TIP3    H174905   6.699   1.743   3.427 -1.8316 -1.8439 -2.6970
17830TIP3    H274906   6.703   1.850   3.320  1.8312  2.2288  1.3328
17831TIP3   OH274907   5.610   0.292   2.756 -0.3458 -0.7599  0.3046
17831TIP3    H174908   5.583   0.254   2.839  0.5798 -0.8345  0.5753
17831TIP3    H274909   5.702   0.314   2.768 -1.4240  3.7483  0.9575
17832TIP3   OH274910   0.827   0.050   2.855  0.1961  0.2255  0.8829
17832TIP3    H174911   0.742   0.017   2.825 -0.0595  1.6584 -0.0532
17832TIP3    H274912   0.804   0.120   2.917  0.6914  0.2213  1.0724
17833TIP3   OH274913   0.435   0.271  13.576 -0.3760 -0.0821 -0.5732
17833TIP3    H174914   0.495   0.289  13.503  1.3574 -1.6480  0.4040
17833TIP3    H274915   0.487   0.218  13.637 -1.9874  0.6442  1.5058
17834TIP3   OH274916   6.625   2.276   0.741  0.5413  0.0620  0.3867
17834TIP3    H174917   6.629   2.201   0.800 -0.1621  0.4967  0.9960
17834TIP3    H274918   6.717   2.300   0.726  0.7848 -1.1361 -0.1055
17835TIP3   OH274919   5.179   4.222  16.865 -0.3811  0.5054  0.0990
17835TIP3    H174920   5.201   4.209  16.958  0.8606  1.8033 -0.0160
17835TIP3    H274921   5.133   4.306  16.863  0.3939  0.9132 -0.5921
17836TIP3   OH274922   3.672   1.570  11.696 -0.1595 -0.1456  0.3936
17836TIP3    H174923   3.741   1.537  11.754 -0.0646  2.2167  1.6748
17836TIP3    H274924   3.590   1.550  11.741 -0.0557  2.4483  1.8019
17837TIP3   OH274925   1.328   3.784   0.546  0.1666 -0.1610  0.1459
17837TIP3    H174926   1.234   3.788   0.526 -0.6773 -2.3438  3.2783
17837TIP3    H274927   1.355   3.875   0.556 -1.8933  0.4396  0.3832
17838TIP3   OH274928   5.045   0.538   5.592 -0.0441  0.8416 -0.4607
17838TIP3    H174929   4.962   0.531   5.545 -0.1639  0.3237 -0.1793
17838TIP3    H274930   5.027   0.499   5.677  0.6949  0.0500 -0.6621
17839TIP3   OH274931   2.630   1.255  13.846 -0.5635 -0.0756  0.2657
17839TIP3    H174932   2.645   1.161  13.841 -1.2650 -0.1693 -0.1369
17839TIP3    H274933   2.548   1.264  13.894 -0.6167  0.3252  0.1048
17840TIP3   OH274934   3.549   6.087  12.086 -0.4622  0.0533 -0.0556
17840TIP3    H174935   3.493   6.074  12.009  1.3212  1.4107 -1.6657
17840TIP3    H274936   3.490   6.116  12.155 -1.8068  1.1685 -1.6254
17841TIP3   OH274937   2.555   3.865  15.842 -0.2963 -0.3359  0.4409
17841TIP3    H174938   2.544   3.788  15.786 -0.8710 -0.9357  1.3608
17841TIP3    H274939   2.643   3.897  15.822 -0.3774 -0.7167 -0.5725
17842TIP3   OH274940   1.781   0.244  14.222  0.5952 -0.3771  0.2089
17842TIP3    H174941   1.810   0.262  14.132 -0.5483 -1.8617 -0.4696
17842TIP3    H274942   1.850   0.282  14.277  0.5498  1.9212 -1.2416
17843TIP3   OH274943   3.244   0.424  16.974 -0.2960 -0.1431 -0.5466
17843TIP3    H174944   3.179   0.476  16.927  0.1731  0.7322 -0.2310
17843TIP3    H274945   3.209   0.416  17.063  1.3391  2.6783  0.3799
17844TIP3   OH274946   3.747   4.715   4.369 -0.0640 -0.2457  0.1445
17844TIP3    H174947   3.800   4.786   4.334  1.0765  0.1595  2.5746
17844TIP3    H274948   3.811   4.655   4.409 -1.3423 -0.0187  2.6394
17845TIP3   OH274949   6.199   5.913   3.053 -0.6313  0.0120 -0.0802
17845TIP3    H174950   6.154   5.971   3.114  1.8507  3.1182 -1.0599
17845TIP3    H274951   6.242   5.848   3.109 -1.4795  0.5504  1.2066
17846TIP3   OH274952   1.698   2.273   3.056 -0.4148 -0.0674  0.0117
17846TIP3    H174953   1.708   2.179   3.068 -0.9487 -0.1032  0.1853
17846TIP3    H274954   1.770   2.311   3.107 -1.7714 -0.2834  2.1850
17847TIP3   OH274955   4.666   0.041   3.550  0.4962 -0.2174 -0.0951
17847TIP3    H174956   4.720   0.069   3.624  0.8723 -0.7408 -0.1776
17847TIP3    H274957   4.625  -0.040   3.579 -0.2447  0.1694 -0.0345
17848TIP3   OH274958   5.782   4.011  16.609 -0.3271 -0.5467  0.4909
17848TIP3    H174959   5.778   4.051  16.696 -1.1126 -0.3618  0.3732
17848TIP3    H274960   5.755   4.080  16.550 -2.2809 -1.4058  0.3374
17849TIP3   OH274961   0.798   3.378   4.614 -0.3476 -0.0342  0.3883
17849TIP3    H174962   0.747   3.344   4.687  0.6212  0.5589  1.3502
17849TIP3    H274963   0.841   3.456   4.649  0.6934 -0.1538 -0.6042
17850TIP3   OH274964   2.578   1.216   3.442  0.5134 -0.1628  0.8788
17850TIP3    H174965   2.514   1.150   3.416 -1.2401  0.7393  2.7657
17850TIP3    H274966   2.571   1.220   3.537  0.6273  2.6654  0.8211
17851TIP3   OH274967   0.149   1.207   4.524 -0.1219 -0.4968 -0.0231
17851TIP3    H174968   0.128   1.294   4.490  0.4033  0.8166  2.8607
17851TIP3    H274969   0.083   1.191   4.592  0.3903 -1.9083  0.1595
17852TIP3   OH274970   2.309   3.889   2.031  0.3740  0.4771 -0.0094
17852TIP3    H174971   2.379   3.845   1.983 -0.7290 -0.0157 -1.1993
17852TIP3    H274972   2.302   3.975   1.990  1.1077  0.9990  0.9324
17853TIP3   OH274973   2.412   2.887   2.842  0.2937 -0.2720 -0.8629
17853TIP3    H174974   2.330   2.937   2.850  0.7313  0.0938  1.8963
17853TIP3    H274975   2.384   2.796   2.842 -0.1158 -0.1755  0.8368
17854TIP3   OH274976   2.327   2.239  13.360 -0.1786 -0.2150  0.5796
17854TIP3    H174977   2.354   2.269  13.273  1.1373 -0.8987  0.7344
17854TIP3    H274978   2.313   2.320  13.410 -0.0987  0.1741 -0.0295
17855TIP3   OH274979   6.528   3.111   0.695  0.3410  0.0113 -0.1126
17855TIP3    H174980   6.617   3.117   0.662  0.2319  0.1856 -0.3739
17855TIP3    H274981   6.500   3.022   0.676  0.8676 -0.3987  0.9994
17856TIP3   OH274982   2.219   2.263   3.808  0.1961 -0.3586  0.4270
17856TIP3    H174983   2.252   2.250   3.897 -0.2269 -0.3917  0.5791
17856TIP3    H274984   2.124   2.265   3.818  0.1450 -0.5301 -0.0489
17857TIP3   OH274985   4.004   5.907  12.951  0.0085  0.2326  0.4607
17857TIP3    H174986   3.921   5.902  12.998  0.6375  0.3179  1.5839
17857TIP3    H274987   4.035   5.997  12.964  0.4708  0.0909  0.3676
17858TIP3   OH274988   5.273   3.084  11.027  0.0928  0.1527 -0.2684
17858TIP3    H174989   5.238   3.009  11.075 -0.2670  0.2795 -0.3314
17858TIP3    H274990   5.195   3.132  10.998  0.3181  0.3475 -0.5472
17859TIP3   OH274991   1.133   6.595  12.431 -0.0248  0.1441 -0.3856
17859TIP3    H174992   1.124   6.663  12.363 -1.2017  0.8379  0.4375
17859TIP3    H274993   1.063   6.615  12.493  0.9419 -0.5931  0.9452
17860TIP3   OH274994   1.141   1.625   2.274  0.5641  0.1934  0.7893
17860TIP3    H174995   1.197   1.702   2.278  0.8856 -0.0325  0.6788
17860TIP3    H274996   1.198   1.552   2.299  1.0713 -0.4146 -1.9788
17861TIP3   OH274997   5.290   5.491   3.136 -0.6795 -0.2399 -0.2570
17861TIP3    H174998   5.255   5.471   3.049 -0.3805  0.1859 -0.4777
17861TIP3    H274999   5.362   5.552   3.119  0.6591 -1.6750  0.1346
17862TIP3   OH275000   1.458   2.601  15.989 -0.0728  0.0044  0.1324
17862TIP3    H175001   1.446   2.688  16.026 -0.5175 -0.3682  0.8640
17862TIP3    H275002   1.370   2.565  15.984  0.1888 -0.7084  0.5704
17863TIP3   OH275003   6.400   0.170  12.798 -0.5207  0.6469 -0.3290
17863TIP3    H175004   6.416   0.259  12.829  2.4135 -0.3865  1.3042
17863TIP3    H275005   6.424   0.114  12.872  0.0520 -1.5896 -2.1536
17864TIP3   OH275006   4.989   3.783   3.631  0.1107 -0.2106  0.0575
17864TIP3    H175007   5.059   3.751   3.574  0.8126  1.6301 -0.1354
17864TIP3    H275008   4.918   3.807   3.571  0.2999  0.3578  0.0569
17865TIP3   OH275009   2.323   5.920   0.244 -0.1771 -0.0743  0.0841
17865TIP3    H175010   2.336   6.013   0.225  1.8259 -0.0163  1.6195
17865TIP3    H275011   2.407   5.880   0.224 -1.2273 -1.7127 -1.2378
17866TIP3   OH275012   3.378   6.165   4.835 -0.2795  0.2204  0.3240
17866TIP3    H175013   3.459   6.150   4.787  0.0591  1.0945  0.6150
17866TIP3    H275014   3.379   6.100   4.905 -1.6413 -2.3052 -1.8732
17867TIP3   OH275015   3.839   0.557  10.650 -0.1813  0.6327  0.2948
17867TIP3    H175016   3.773   0.518  10.593 -0.0293 -0.3462  0.7797
17867TIP3    H275017   3.825   0.515  10.735  0.6295  0.8956  0.5630
17868TIP3   OH275018   6.008   3.013   5.659 -0.0376 -0.0550 -1.0069
17868TIP3    H175019   6.000   3.019   5.755 -0.2633 -2.4691 -0.8178
17868TIP3    H275020   6.099   2.988   5.644 -0.6547 -2.3922 -1.1891
17869TIP3   OH275021   1.780   5.587  15.539  0.7065 -0.1838 -0.0450
17869TIP3    H175022   1.865   5.574  15.581  1.1266 -0.1294 -0.8649
17869TIP3    H275023   1.799   5.586  15.445 -0.2620 -0.5844 -0.2435
17870TIP3   OH275024   4.471   2.242   2.798 -0.1573  0.1856  0.1042
17870TIP3    H175025   4.470   2.147   2.789  0.7222  0.2299 -0.5279
17870TIP3    H275026   4.386   2.271   2.765 -0.3957 -0.3732  0.2279
17871TIP3   OH275027   6.637   1.026  15.040  0.0257  0.2371 -0.0129
17871TIP3    H175028   6.692   1.087  15.090  0.1404  0.1876 -0.0767
17871TIP3    H275029   6.553   1.071  15.031 -0.4179 -0.2922  1.3368
17872TIP3   OH275030   3.693   3.813   4.468  0.5623 -0.0693  0.7367
17872TIP3    H175031   3.631   3.775   4.406  0.2353 -3.1690  2.8403
17872TIP3    H275032   3.693   3.907   4.449 -1.0658 -0.6829 -2.5323
17873TIP3   OH275033   1.115   1.087   1.631 -0.3139  0.5156 -0.3318
17873TIP3    H175034   1.184   1.151   1.646 -1.2607  1.2648  0.9043
17873TIP3    H275035   1.084   1.106   1.542  0.4898  0.7203 -0.5742
17874TIP3   OH275036   6.520   4.102   4.228 -0.2353  0.0621 -0.1729
17874TIP3    H175037   6.502   4.132   4.318 -0.3309 -0.9474  0.1541
17874TIP3    H275038   6.517   4.006   4.234 -0.7275 -0.0027 -1.3554
17875TIP3   OH275039   2.900   0.840  16.805 -0.5700 -0.0564  0.2475
17875TIP3    H175040   2.873   0.793  16.884  1.2647 -2.2597 -0.3642
17875TIP3    H275041   2.829   0.902  16.788 -1.2541  0.0699  3.2860
17876TIP3   OH275042   5.599   2.949  10.644 -0.3537 -0.1599 -0.4697
17876TIP3    H175043   5.604   2.860  10.678 -2.0935 -0.0848  0.0049
17876TIP3    H275044   5.510   2.978  10.664 -0.7388  0.6557 -3.2199
17877TIP3   OH275045   1.313   0.666  16.847  0.1848 -0.3528 -0.7451
17877TIP3    H175046   1.242   0.643  16.907  0.1055 -0.7288 -0.9863
17877TIP3    H275047   1.269   0.694  16.767  0.2384  2.0984  0.0519
17878TIP3   OH275048   5.795   1.647   4.395 -0.3713  0.1611 -0.5417
17878TIP3    H175049   5.815   1.733   4.358  0.9492  0.3961  0.7002
17878TIP3    H275050   5.794   1.588   4.320  2.8511  0.5161 -0.9026
17879TIP3   OH275051   4.396   3.250  15.343  0.1930  0.3115  0.6742
17879TIP3    H175052   4.380   3.183  15.409  0.9061 -2.7026 -2.0582
17879TIP3    H275053   4.490   3.244  15.325 -0.0386  0.8865 -0.7885
17880TIP3   OH275054   2.630   3.020   4.469  0.4119  0.1291  0.9657
17880TIP3    H175055   2.706   3.035   4.526  0.8050 -0.4144  0.5913
17880TIP3    H275056   2.615   2.926   4.473  0.5510  0.0554  0.0452
17881TIP3   OH275057   1.591   0.092  15.180  0.5083 -0.0480 -0.0364
17881TIP3    H175058   1.673   0.120  15.138  0.5993 -2.1209 -1.3214
17881TIP3    H275059   1.588  -0.003  15.165 -1.7611 -0.1082  0.6711
17882TIP3   OH275060   2.789   3.144  15.782 -0.6103 -0.2110 -0.4708
17882TIP3    H175061   2.772   3.186  15.698  0.0741  0.9541 -0.0454
17882TIP3    H275062   2.763   3.053  15.769  1.0595 -0.4582 -2.4812
17883TIP3   OH275063   3.520   0.437  17.000  0.2493 -0.2192  0.0458
17883TIP3    H175064   3.553   0.441  17.090 -0.4721 -0.6166  0.3332
17883TIP3    H275065   3.425   0.440  17.010  0.1872  0.4323 -0.7453
17884TIP3   OH275066   3.234   4.722  11.133 -0.9385  0.1280 -0.3525
17884TIP3    H175067   3.154   4.711  11.184  0.3129  0.3339  1.7227
17884TIP3    H275068   3.290   4.777  11.188  1.0089 -0.8152 -1.3262
17885TIP3   OH275069   4.867   4.670   0.912 -0.0756 -0.1139 -0.3782
17885TIP3    H175070   4.881   4.699   1.003  2.5928  0.6921 -1.0027
17885TIP3    H275071   4.911   4.737   0.859 -2.0416 -0.3081 -2.3195
17886TIP3   OH275072   3.669   6.370   5.485  0.3104 -0.0408 -0.4896
17886TIP3    H175073   3.577   6.393   5.496  0.2045 -0.0754 -1.2864
17886TIP3    H275074   3.717   6.445   5.521 -0.0336  0.4742 -1.0864
17887TIP3   OH275075   0.396   1.430   4.050  0.0086  0.8970 -0.3564
17887TIP3    H175076   0.353   1.450   3.967 -1.7022  1.7142  0.6844
17887TIP3    H275077   0.341   1.473   4.116  0.4945 -0.9973  1.3238
17888TIP3   OH275078   1.171   1.465  12.344  0.0880  0.2419  0.1368
17888TIP3    H175079   1.260   1.499  12.356  0.2659  0.2991 -1.2539
17888TIP3    H275080   1.116   1.526  12.393  0.5556  1.7425 -1.1531
17889TIP3   OH275081   0.205   6.436  13.468  0.2007  0.1180 -0.1560
17889TIP3    H175082   0.228   6.398  13.384  0.3897  0.5090 -0.2831
17889TIP3    H275083   0.285   6.430  13.520  0.2760  0.4735 -0.2271
17890TIP3   OH275084   4.406   6.447   0.138  0.3906 -0.1540  0.1403
17890TIP3    H175085   4.338   6.408   0.192  1.3872  0.2957  1.7594
17890TIP3    H275086   4.464   6.374   0.116  1.7736  0.1972  2.4376
17891TIP3   OH275087   5.091   3.688  13.510  0.6852  0.4439  0.1941
17891TIP3    H175088   5.035   3.644  13.446 -0.0304 -0.0306  1.1321
17891TIP3    H275089   5.167   3.632  13.519  0.1422 -0.2068  0.7915
17892TIP3   OH275090   0.602   3.635  11.762  0.0597 -0.4288 -0.3165
17892TIP3    H175091   0.629   3.712  11.712 -0.0344  0.3195  0.7590
17892TIP3    H275092   0.519   3.608  11.723 -1.4924  1.8774  1.2528
17893TIP3   OH275093   2.874   2.542  14.974  0.2467  0.1903  0.6194
17893TIP3    H175094   2.886   2.480  15.045  0.1249 -0.0940  0.3923
17893TIP3    H275095   2.911   2.624  15.007  0.9861 -0.1673  0.6721
17894TIP3   OH275096   5.149   0.304   0.503  0.3469  0.3142 -0.7673
17894TIP3    H175097   5.183   0.221   0.536 -2.7260 -0.9565 -0.6853
17894TIP3    H275098   5.104   0.281   0.422  0.9066  2.1704 -1.6288
17895TIP3   OH275099   1.213   0.574  11.553 -0.1686  0.7558  0.1806
17895TIP3    H175100   1.259   0.530  11.624 -1.2440 -1.4917 -0.4641
17895TIP3    H275101   1.237   0.666  11.562  3.0942 -0.0845  0.8822
17896TIP3   OH275102   2.921   0.196  16.868  0.2590 -0.2445  0.4944
17896TIP3    H175103   2.970   0.238  16.797  1.2499  0.3662  1.5195
17896TIP3    H275104   2.906   0.107  16.839 -0.1430  0.2603 -0.8742
17897TIP3   OH275105   6.345   5.905   5.444  0.4233  0.1895 -0.2664
17897TIP3    H175106   6.278   5.920   5.377 -0.4581 -2.8242 -0.1419
17897TIP3    H275107   6.332   5.975   5.508 -1.9440  0.2308 -0.7578
17898TIP3   OH275108   0.807   0.985   3.880  0.1424 -0.1933  0.4063
17898TIP3    H175109   0.813   0.916   3.946  0.1400 -0.4122  0.1784
17898TIP3    H275110   0.799   0.938   3.796 -1.4523  0.0646  0.3838
17899TIP3   OH275111   6.367   5.729  11.278 -0.3085  0.5735  0.4613
17899TIP3    H175112   6.435   5.776  11.228 -1.0972 -0.9631 -2.1862
17899TIP3    H275113   6.411   5.649  11.308 -0.3268  0.6295  0.6354
17900TIP3   OH275114   0.050   6.234  15.290  0.1717 -0.6892  0.0941
17900TIP3    H175115   0.033   6.258  15.382 -0.5845  0.3833 -0.3182
17900TIP3    H275116  -0.020   6.171  15.269 -0.6747  0.3563 -0.2549
17901TIP3   OH275117   4.245   4.642   4.243 -0.4259  0.1536  0.0307
17901TIP3    H175118   4.250   4.551   4.271 -0.3438  0.0129 -0.4261
17901TIP3    H275119   4.257   4.638   4.148  0.8120  0.7449  0.1474
17902TIP3   OH275120   5.320   5.944   5.240 -0.4698 -0.1451 -0.1923
17902TIP3    H175121   5.379   5.949   5.165 -0.5057  1.6995 -0.1193
17902TIP3    H275122   5.238   5.909   5.203  0.3933 -1.9607 -0.4386
17903TIP3   OH275123   3.269   4.168   5.205  0.1233  0.2524 -0.3914
17903TIP3    H175124   3.177   4.140   5.211 -0.0119  1.0745  1.6710
17903TIP3    H275125   3.319   4.087   5.208 -0.4750 -0.1039  0.2083
17904TIP3   OH275126   0.881   3.044   4.892  0.3363 -0.2474 -0.4200
17904TIP3    H175127   0.928   2.992   4.958  1.1103 -0.5809 -1.2241
17904TIP3    H275128   0.943   3.111   4.865 -0.0972  0.0944 -0.5700
17905TIP3   OH275129   5.612   6.195  15.704  0.0204 -0.1540 -0.3550
17905TIP3    H175130   5.594   6.106  15.734  1.0719  0.3083  1.7381
17905TIP3    H275131   5.581   6.251  15.775 -1.1162  1.1894 -1.8863
17906TIP3   OH275132   0.187   1.797  11.921 -0.0446 -0.1208  0.1775
17906TIP3    H175133   0.172   1.825  12.012  1.7773  1.5512 -0.0098
17906TIP3    H275134   0.130   1.854  11.869 -2.7582 -2.5340  0.3653
17907TIP3   OH275135   5.718   4.522  10.926  0.3126 -0.0438  0.0030
17907TIP3    H175136   5.791   4.578  10.900 -0.0333  0.8804  0.9264
17907TIP3    H275137   5.753   4.469  10.998  0.2037  0.0934  0.1593
17908TIP3   OH275138   3.300   4.516  16.986  0.1854 -0.4472  0.6043
17908TIP3    H175139   3.220   4.477  16.953 -0.1417  1.6248 -1.1671
17908TIP3    H275140   3.361   4.443  16.993 -1.2062 -1.6983 -0.0577
17909TIP3   OH275141   4.025   4.997  16.136 -0.2234 -0.2930  0.1263
17909TIP3    H175142   4.011   5.041  16.052  0.8096 -0.0012  0.0979
17909TIP3    H275143   4.115   4.965  16.131  0.0951  0.3707  1.4173
17910TIP3   OH275144   0.207   5.287   5.130 -0.0828 -0.3986 -0.1984
17910TIP3    H175145   0.287   5.302   5.080  0.4564  0.6205  0.9308
17910TIP3    H275146   0.209   5.194   5.153  0.2140 -0.6193 -1.0988
17911TIP3   OH275147   0.046   2.188   3.314  0.1492  0.0477 -0.1743
17911TIP3    H175148   0.084   2.110   3.274  0.0737 -0.4557  0.7470
17911TIP3    H275149  -0.024   2.214   3.253  0.1409 -0.6219 -0.4550
17912TIP3   OH275150   4.024   5.430   2.738 -0.1347  0.3699  0.2693
17912TIP3    H175151   4.113   5.466   2.743  1.2024 -2.4047 -1.5188
17912TIP3    H275152   3.986   5.472   2.661  0.6092 -0.3690 -0.5144
17913TIP3   OH275153   4.890   2.108  14.837 -0.1441 -1.0352 -0.0897
17913TIP3    H175154   4.951   2.177  14.864 -1.4077 -0.0702  0.3339
17913TIP3    H275155   4.805   2.138  14.867 -0.9050 -2.1664 -1.0641
17914TIP3   OH275156   3.371   0.261  17.212 -0.1336  0.1473  0.4456
17914TIP3    H175157   3.450   0.315  17.216 -1.0291  1.6780 -1.5662
17914TIP3    H275158   3.305   0.310  17.262 -0.6766  0.4646 -0.5617
17915TIP3   OH275159   0.460   0.503   0.839 -0.0172 -0.7067 -0.0185
17915TIP3    H175160   0.531   0.566   0.829 -0.5692  0.1875  1.5272
17915TIP3    H275161   0.462   0.479   0.932 -3.8411  1.8930  0.8364
17916TIP3   OH275162   0.178   1.662   4.936 -0.3910  0.0330  0.0329
17916TIP3    H175163   0.175   1.606   5.014 -0.4110  1.6142  1.1924
17916TIP3    H275164   0.270   1.684   4.925 -0.1541 -1.5688 -1.4288
17917TIP3   OH275165   2.553   2.525  11.779 -0.0474  0.3351  0.0433
17917TIP3    H175166   2.516   2.503  11.693 -0.5813 -1.2745  0.6629
17917TIP3    H275167   2.608   2.449  11.801  3.2383  2.3980 -0.6130
17918TIP3   OH275168   2.025   5.010  10.666  0.5350 -0.2501  0.4160
17918TIP3    H175169   2.034   5.086  10.609  0.1199 -0.3218  0.2554
17918TIP3    H275170   1.933   5.010  10.691  0.7813 -0.0316  1.3454
17919TIP3   OH275171   2.457   1.150   1.099  0.0516 -0.3782 -0.7047
17919TIP3    H175172   2.451   1.243   1.123 -0.0496  0.3860 -3.5480
17919TIP3    H275173   2.546   1.125   1.126 -0.1830  0.2965  0.7936
17920TIP3   OH275174   4.373   0.672   3.487 -0.1542 -0.5237 -0.7991
17920TIP3    H175175   4.298   0.627   3.448 -0.4418 -0.7974  0.0642
17920TIP3    H275176   4.449   0.620   3.460 -0.3006 -0.3818 -1.4772
17921TIP3   OH275177   6.317   3.522   5.557  0.4034 -0.3245 -0.5140
17921TIP3    H175178   6.371   3.462   5.506 -0.3350 -1.5447  0.1355
17921TIP3    H275179   6.227   3.489   5.546 -0.0094  0.6472 -0.1393
17922TIP3   OH275180   4.519   1.411  11.567  0.3112 -0.1410  0.5746
17922TIP3    H175181   4.594   1.443  11.517  1.1919 -2.3405  0.4150
17922TIP3    H275182   4.537   1.436  11.657  0.8718 -0.0011  0.4254
17923TIP3   OH275183   3.967   2.276   6.387 -0.0061 -0.4574  0.4082
17923TIP3    H175184   4.040   2.336   6.370  0.8269 -1.4898  0.3221
17923TIP3    H275185   3.997   2.223   6.461 -0.7318 -0.7871  0.4619
17924TIP3   OH275186   1.452   2.348   3.978 -0.9163  0.2492 -0.0933
17924TIP3    H175187   1.470   2.369   4.070  1.0336 -0.2160 -0.3523
17924TIP3    H275188   1.400   2.422   3.946 -0.3527  1.1157  0.9812
17925TIP3   OH275189   5.413   1.484   5.772  0.1627  0.6165  0.0079
17925TIP3    H175190   5.378   1.433   5.699 -0.7801  0.0374  0.8549
17925TIP3    H275191   5.481   1.428   5.810 -0.0956  0.4649  0.2446
17926TIP3   OH275192   2.029   6.051  11.727 -0.2763 -0.0279 -0.2702
17926TIP3    H175193   1.997   5.963  11.709 -0.6847  0.2679 -1.0059
17926TIP3    H275194   2.012   6.100  11.646  2.2098  0.0836 -0.7793
17927TIP3   OH275195   5.654   0.324  12.548 -0.4362  0.1529 -0.2456
17927TIP3    H175196   5.697   0.404  12.516  2.0952 -1.0660  0.0128
17927TIP3    H275197   5.623   0.347  12.635  1.5793  0.4419  0.4161
17928TIP3   OH275198   1.727   2.688  13.449 -0.1014  0.0083  0.1996
17928TIP3    H175199   1.717   2.621  13.381 -1.6878 -0.5433  0.9491
17928TIP3    H275200   1.793   2.748  13.414 -1.4043  0.1540 -2.1662
17929TIP3   OH275201   2.363   1.214   2.266  0.5195 -0.1626  0.5697
17929TIP3    H175202   2.299   1.236   2.198  0.2085 -0.2763  0.8216
17929TIP3    H275203   2.426   1.285   2.264  1.3887 -0.9618 -0.9229
17930TIP3   OH275204   2.136   3.988   3.428  0.6353 -0.0403  0.0022
17930TIP3    H175205   2.149   3.897   3.400 -0.5398 -0.3185  0.3368
17930TIP3    H275206   2.193   4.039   3.371 -0.6123 -0.7480 -1.9246
17931TIP3   OH275207   5.341   4.052  11.332 -0.3234 -0.6549  0.0616
17931TIP3    H175208   5.266   4.079  11.278 -0.1354 -3.0509 -1.5009
17931TIP3    H275209   5.305   3.989  11.394  0.0200 -0.1525  0.7835
17932TIP3   OH275210   2.310   3.379   1.455  0.0308  0.2045  0.3028
17932TIP3    H175211   2.220   3.350   1.441  0.1656 -1.8379  3.0976
17932TIP3    H275212   2.348   3.381   1.368 -1.8819 -1.8598 -0.6629
17933TIP3   OH275213   2.929   3.075   1.087 -0.2035  0.2073 -0.0863
17933TIP3    H175214   3.007   3.050   1.135  0.0413  0.6753 -0.2373
17933TIP3    H275215   2.868   3.106   1.154 -0.6427 -1.1301  0.1384
17934TIP3   OH275216   5.166   1.861  15.008 -0.4311 -0.6090 -0.5985
17934TIP3    H175217   5.112   1.839  14.933 -0.9627  0.5719 -0.5846
17934TIP3    H275218   5.235   1.918  14.973  0.8150 -2.1006 -0.6171
17935TIP3   OH275219   5.179   1.367   2.701  0.5068 -0.1124  0.1499
17935TIP3    H175220   5.163   1.357   2.795  1.9235 -0.3014  0.3809
17935TIP3    H275221   5.193   1.277   2.670  1.8088  0.1012  0.0941
17936TIP3   OH275222   5.672   3.906   2.727 -0.0123 -0.7485 -0.2871
17936TIP3    H175223   5.653   3.946   2.812  2.2167  0.6528 -0.4055
17936TIP3    H275224   5.755   3.860   2.739 -0.3955 -1.7506 -1.3281
17937TIP3   OH275225   4.270   4.768   2.432  0.2329 -0.0887  0.6060
17937TIP3    H175226   4.346   4.813   2.467 -1.1301  1.4593  1.6380
17937TIP3    H275227   4.204   4.774   2.501 -1.1018 -0.6796 -0.5865
17938TIP3   OH275228   5.509   4.530  14.258  0.4162  0.2655 -0.4039
17938TIP3    H175229   5.596   4.496  14.279 -0.2747 -0.4334  1.4384
17938TIP3    H275230   5.468   4.543  14.343 -0.8264  1.8253 -1.2295
17939TIP3   OH275231   3.058   1.522  14.335 -0.1541 -0.2916  0.2334
17939TIP3    H175232   3.002   1.447  14.317 -2.6987  1.7777 -0.8407
17939TIP3    H275233   3.014   1.567  14.407  1.4650  0.0536  1.0215
17940TIP3   OH275234   6.154   4.211   3.637  0.6345  0.3557 -1.1361
17940TIP3    H175235   6.063   4.220   3.610  0.2859 -1.7181 -0.7911
17940TIP3    H275236   6.157   4.245   3.726  0.6211  2.1645 -1.8086
17941TIP3   OH275237   2.167   5.186  12.052  0.2726  0.4406  0.0588
17941TIP3    H175238   2.127   5.122  12.110  1.9498  1.1160  2.0450
17941TIP3    H275239   2.209   5.134  11.984 -0.9589 -0.4074 -0.0689
17942TIP3   OH275240   0.581   6.303  15.168  0.2008 -0.7039 -0.4061
17942TIP3    H175241   0.618   6.231  15.118  0.2097 -0.7043 -0.3984
17942TIP3    H275242   0.487   6.300  15.148  0.5716  0.9253 -2.5049
17943TIP3   OH275243   3.680   0.179  15.265  0.1139  0.0551  0.0372
17943TIP3    H175244   3.752   0.137  15.218 -0.8696 -0.5068 -1.0107
17943TIP3    H275245   3.716   0.262  15.295  0.7675  0.4489 -1.7563
17944TIP3   OH275246   3.679   0.329   2.254  0.3739  0.3211  0.1045
17944TIP3    H175247   3.616   0.315   2.325 -1.3006 -0.2133 -1.4262
17944TIP3    H275248   3.650   0.410   2.212  1.7371  0.9785  0.4039
17945TIP3   OH275249   6.134   6.561   4.149 -0.1798 -0.0621  0.0591
17945TIP3    H175250   6.208   6.615   4.121  0.1977 -0.4473  0.3148
17945TIP3    H275251   6.057   6.612   4.125  0.1909  1.5080  2.1057
17946TIP3   OH275252   0.679   0.373  14.452 -0.6787  0.4595 -0.2758
17946TIP3    H175253   0.753   0.354  14.510 -1.1909 -0.9552 -0.0479
17946TIP3    H275254   0.713   0.355  14.364 -0.2111  1.5987 -0.3345
17947TIP3   OH275255   4.755   5.210  14.360 -0.2524 -0.2246  0.3973
17947TIP3    H175256   4.830   5.268  14.351 -0.1752 -0.2987  0.5640
17947TIP3    H275257   4.762   5.174  14.449 -1.1039  0.6204  0.8108
17948TIP3   OH275258   4.056   0.783   1.312 -0.6571 -0.4692 -0.5859
17948TIP3    H175259   4.018   0.840   1.246 -1.7546  2.0727  2.1656
17948TIP3    H275260   4.033   0.823   1.396  3.7127 -1.6203  1.3124
17949TIP3   OH275261   0.050   1.422  10.787  0.0075 -0.1098 -0.0982
17949TIP3    H175262   0.007   1.506  10.774 -1.3343 -0.5320  1.4151
17949TIP3    H275263   0.017   1.366  10.717 -1.5113 -0.2525  0.6927
17950TIP3   OH275264   0.100   6.136   0.786 -0.6318 -0.4324 -0.6236
17950TIP3    H175265   0.011   6.152   0.757 -0.1484  0.8097 -1.4646
17950TIP3    H275266   0.104   6.177   0.873 -0.7549 -0.1061 -0.7706
17951TIP3   OH275267   1.418   1.760   5.817 -0.2925  0.0764 -0.2025
17951TIP3    H175268   1.461   1.776   5.901  0.5097  1.8317 -0.9105
17951TIP3    H275269   1.377   1.843   5.795 -1.1219 -0.5866 -1.1997
17952TIP3   OH275270   2.816   4.800   1.939  1.0471  0.3920  0.3457
17952TIP3    H175271   2.857   4.714   1.951  1.9380  0.8647  0.7737
17952TIP3    H275272   2.800   4.831   2.028 -1.0499 -0.1472  0.1856
17953TIP3   OH275273   5.258   4.680  13.680 -0.3201 -0.1600  0.3554
17953TIP3    H175274   5.345   4.644  13.664 -0.5844  0.2500 -2.2353
17953TIP3    H275275   5.198   4.612  13.649 -0.8936 -0.0202  1.1633
17954TIP3   OH275276   1.222   1.032   3.395 -0.0795 -0.2024 -0.0664
17954TIP3    H175277   1.142   1.083   3.409 -0.3708 -0.4325 -0.8987
17954TIP3    H275278   1.192   0.942   3.386  0.4079 -0.4958  1.0838
17955TIP3   OH275279   1.212   1.122  11.531  0.5934 -0.3008  0.1155
17955TIP3    H175280   1.130   1.083  11.564  0.0410  1.8008  1.3368
17955TIP3    H275281   1.186   1.166  11.450  0.8194 -0.7902 -0.2274
17956TIP3   OH275282   5.188   1.536  15.960 -0.4575  0.0316 -0.2006
17956TIP3    H175283   5.206   1.559  16.051 -0.8825  3.5119 -0.9553
17956TIP3    H275284   5.093   1.524  15.956 -0.4026 -0.4419 -0.1244
17957TIP3   OH275285   0.766   4.131   3.889 -0.6079 -0.2131  0.0970
17957TIP3    H175286   0.780   4.166   3.801 -0.6144  1.6333  0.8058
17957TIP3    H275287   0.854   4.116   3.923 -0.4177  3.5183  1.4717
17958TIP3   OH275288   0.255   6.740   3.377  0.3697 -0.5863  0.2272
17958TIP3    H175289   0.317   6.669   3.392 -1.0865 -1.9142  0.1013
17958TIP3    H275290   0.304   6.805   3.327  1.2752 -2.1860 -1.0006
17959TIP3   OH275291   0.017   6.134   5.950  0.2457  0.2849 -0.0518
17959TIP3    H175292   0.051   6.132   5.861  0.8740 -0.3058  0.2024
17959TIP3    H275293   0.055   6.058   5.993  0.4490  0.9120  0.9092
17960TIP3   OH275294   0.452   0.051  14.589 -0.0982  0.5216 -0.7445
17960TIP3    H175295   0.544   0.031  14.573 -0.3331  0.1144 -1.5948
17960TIP3    H275296   0.421  -0.022  14.643 -0.5959 -0.7329 -2.6810
17961TIP3   OH275297   3.526   1.987   3.690  0.0069  0.1066  0.5363
17961TIP3    H175298   3.614   2.001   3.727  0.9502 -0.5232 -1.4251
17961TIP3    H275299   3.472   2.053   3.733  2.0820  2.5974 -0.5198
17962TIP3   OH275300   1.466   3.316  12.269 -0.2068 -0.2941  0.3406
17962TIP3    H175301   1.490   3.305  12.178 -0.4935  1.9305 -0.0413
17962TIP3    H275302   1.535   3.371  12.306 -1.1103  0.4539  0.9542
17963TIP3   OH275303   2.981   0.279   2.443 -0.4707 -0.6240 -0.1489
17963TIP3    H175304   3.043   0.349   2.422 -0.3603 -0.4752  0.6260
17963TIP3    H275305   2.902   0.325   2.471 -1.5428 -0.8008 -2.7673
17964TIP3   OH275306   0.346   4.375  16.949  0.5471 -0.2793 -1.3701
17964TIP3    H175307   0.271   4.384  16.890 -0.8265  0.6364  0.4856
17964TIP3    H275308   0.324   4.302  17.006  0.3337  0.9954  0.2202
17965TIP3   OH275309   2.115   6.133   4.403  0.0494  0.1275 -0.0099
17965TIP3    H175310   2.075   6.076   4.468  1.7518 -1.6531 -0.5041
17965TIP3    H275311   2.149   6.207   4.453 -0.7703 -0.0417  0.8083
17966TIP3   OH275312   2.322   5.168   3.963 -0.1240 -0.5742 -0.1191
17966TIP3    H175313   2.299   5.136   4.050 -1.5475  1.1366  0.1708
17966TIP3    H275314   2.244   5.154   3.910  0.3461 -0.5772 -0.8235
17967TIP3   OH275315   4.397   1.950   2.541 -0.2070 -0.2009  0.2148
17967TIP3    H175316   4.397   1.863   2.502  0.5854  0.1731 -0.6229
17967TIP3    H275317   4.413   1.935   2.634  1.8647 -0.8194 -0.2285
17968TIP3   OH275318   5.535   1.431  14.716 -0.5844 -0.4324  0.0977
17968TIP3    H175319   5.604   1.368  14.695 -0.0529  0.3534 -0.5149
17968TIP3    H275320   5.522   1.481  14.635 -1.8748 -0.5768  0.2069
17969TIP3   OH275321   5.414   6.584  13.629 -0.0543 -0.3346  0.1485
17969TIP3    H175322   5.374   6.499  13.609  0.2594 -0.3653 -0.3744
17969TIP3    H275323   5.418   6.628  13.544  0.9936 -0.3210  0.2031
17970TIP3   OH275324   2.613   1.918  16.723  0.2407 -0.3263  0.0957
17970TIP3    H175325   2.664   1.984  16.676 -1.2865  1.3128  0.6442
17970TIP3    H275326   2.640   1.927  16.814  0.2348 -0.6367  0.1269
17971TIP3   OH275327   6.128   5.060   4.718  0.5069 -0.4738  0.2914
17971TIP3    H175328   6.210   5.087   4.677 -0.1829  0.5925 -0.4065
17971TIP3    H275329   6.061   5.079   4.652 -0.3210 -1.1591  0.9255
17972TIP3   OH275330   6.424   4.666  16.344  0.5985 -0.1671 -0.3097
17972TIP3    H175331   6.502   4.674  16.289  0.6517 -1.8848 -0.5193
17972TIP3    H275332   6.361   4.619  16.289 -1.3018  2.8467 -0.8333
17973TIP3   OH275333   0.153   2.202   2.225  0.5768 -0.2200 -0.1062
17973TIP3    H175334   0.106   2.167   2.301  0.1200  0.1547 -0.2155
17973TIP3    H275335   0.243   2.174   2.239  0.5491  0.0715  0.7124
17974TIP3   OH275336   2.451   1.004  11.759 -0.1067 -0.0950  0.6427
17974TIP3    H175337   2.431   0.920  11.718  0.7350 -0.3110  0.6523
17974TIP3    H275338   2.521   1.040  11.705 -0.4712  0.5975  0.6382
17975TIP3   OH275339   6.131   3.947  11.769 -0.6889  0.1645  0.0375
17975TIP3    H175340   6.089   3.861  11.763  0.4135 -0.3199 -0.9269
17975TIP3    H275341   6.208   3.940  11.712  1.0553  0.8023  2.2362
17976TIP3   OH275342   0.399   5.664  16.811 -0.2783  0.3664 -0.2256
17976TIP3    H175343   0.367   5.590  16.863  0.2865 -0.7951 -1.5237
17976TIP3    H275344   0.471   5.700  16.863 -1.9885  1.4388  1.4991
17977TIP3   OH275345   3.606   1.601  15.324 -0.2686 -0.7680  0.4792
17977TIP3    H175346   3.628   1.509  15.338  0.4629 -0.5490  0.7929
17977TIP3    H275347   3.680   1.650  15.362  0.0508 -0.0864 -0.9487
17978TIP3   OH275348   1.260   1.240   5.811 -0.0414  0.6784  0.0677
17978TIP3    H175349   1.176   1.221   5.853 -0.5259  0.8736 -0.8092
17978TIP3    H275350   1.325   1.197   5.867 -0.5701  1.9445  1.6762
17979TIP3   OH275351   2.356   4.726   1.976 -0.6457  0.0036  0.1914
17979TIP3    H175352   2.265   4.717   2.004 -0.5988 -0.0498  0.3280
17979TIP3    H275353   2.398   4.774   2.048 -0.5460 -0.0512  0.1696
17980TIP3   OH275354   0.401   3.819   3.673  0.3460  0.1618  0.3564
17980TIP3    H175355   0.481   3.854   3.633  0.7385 -1.6923 -0.5715
17980TIP3    H275356   0.367   3.758   3.607 -1.7644  0.8219  0.8161
17981TIP3   OH275357   5.759   5.490  16.527 -0.1296 -0.2221  0.1249
17981TIP3    H175358   5.840   5.481  16.476 -0.5154  0.6011 -0.6521
17981TIP3    H275359   5.695   5.437  16.479  0.2020 -1.7472  1.3283
17982TIP3   OH275360   0.177   1.793  16.534 -0.1543 -0.1927 -0.3703
17982TIP3    H175361   0.115   1.812  16.604  1.2950 -0.0045  0.8724
17982TIP3    H275362   0.160   1.701  16.512 -0.7028 -0.2136  0.1261
17983TIP3   OH275363   5.478   5.029  12.565  0.1774  0.3654 -0.1776
17983TIP3    H175364   5.556   5.040  12.512  0.9795 -2.3810  0.3190
17983TIP3    H275365   5.405   5.032  12.503  0.5791  3.5023 -0.5707
17984TIP3   OH275366   4.704   3.055  11.125  0.0528 -0.3003 -0.2486
17984TIP3    H175367   4.781   3.076  11.177  0.7506 -0.7430 -1.0767
17984TIP3    H275368   4.722   3.094  11.039 -0.6638 -0.3625 -0.4305
17985TIP3   OH275369   6.047   6.115   1.807 -0.5128 -0.1853  0.3112
17985TIP3    H175370   6.016   6.081   1.891 -0.4590 -1.8878 -0.3320
17985TIP3    H275371   6.000   6.197   1.795 -2.6365 -1.3238  0.6758
17986TIP3   OH275372   5.249   0.237  11.737  0.5810  0.1724 -0.1904
17986TIP3    H175373   5.201   0.156  11.721  0.8741  0.1821 -1.1458
17986TIP3    H275374   5.220   0.265  11.824 -0.3960 -0.3345 -0.3446
17987TIP3   OH275375   2.109   1.848  17.021  0.0645 -0.3505 -0.4121
17987TIP3    H175376   2.113   1.852  17.116 -0.1549 -0.2361 -0.4078
17987TIP3    H275377   2.103   1.939  16.993 -1.6155 -0.4754 -0.4707
17988TIP3   OH275378   2.220   2.870  13.338 -0.0524 -0.0228 -0.2587
17988TIP3    H175379   2.193   2.908  13.254 -0.7766  0.5799  0.2478
17988TIP3    H275380   2.316   2.872  13.334 -0.0762 -0.5238 -1.3081
17989TIP3   OH275381   2.464   2.907  10.864  0.7375  0.3000  0.5052
17989TIP3    H175382   2.489   2.998  10.876 -0.1711  0.8293 -1.4660
17989TIP3    H275383   2.547   2.861  10.849  1.0296  1.1315 -0.4854
17990TIP3   OH275384   1.200   3.393   0.003  0.2958  0.0490  0.0839
17990TIP3    H175385   1.294   3.403   0.016  0.3593  0.0899 -0.3819
17990TIP3    H275386   1.180   3.307   0.040  0.5658 -0.0775 -0.0626
17991TIP3   OH275387   4.747   5.450   0.474 -0.5117 -0.3126  0.5028
17991TIP3    H175388   4.695   5.385   0.427  2.1626 -3.1752  1.3850
17991TIP3    H275389   4.811   5.481   0.410  0.4201 -1.1044  1.0390
17992TIP3   OH275390   6.060   5.121   0.488  0.4142 -0.3055 -0.5915
17992TIP3    H175391   5.981   5.157   0.449  0.2797  0.1950  0.1421
17992TIP3    H275392   6.044   5.027   0.492 -0.7481 -0.0570  0.9226
17993TIP3   OH275393   6.156   0.202  12.971  0.2669 -0.2288 -0.1872
17993TIP3    H175394   6.093   0.177  12.904 -0.0860 -0.9944  0.4238
17993TIP3    H275395   6.205   0.275  12.932  0.1019 -0.6944 -1.2887
17994TIP3   OH275396   5.890   2.066  12.775 -0.3533  0.7397  0.3911
17994TIP3    H175397   5.845   2.146  12.802  0.8483  1.6134 -0.1243
17994TIP3    H275398   5.961   2.097  12.719  0.1945 -0.6916  0.2774
17995TIP3   OH275399   3.340   2.572   4.412 -0.3973 -0.2586  0.1644
17995TIP3    H175400   3.261   2.526   4.385 -0.6718 -1.9257  3.5388
17995TIP3    H275401   3.407   2.503   4.416  0.3446  0.4964  0.8333
17996TIP3   OH275402   5.908   3.985  14.414 -0.4336  0.0299 -0.1898
17996TIP3    H175403   5.894   3.934  14.494 -1.1399  0.5865  0.0470
17996TIP3    H275404   5.833   3.964  14.359 -0.5332  0.5286 -0.2447
17997TIP3   OH275405   3.733   5.538   3.889 -0.1564  0.2236  0.6421
17997TIP3    H175406   3.655   5.486   3.866  0.6903 -0.5899 -0.4765
17997TIP3    H275407   3.736   5.607   3.823 -0.3056  0.6709  1.0992
17998TIP3   OH275408   0.817   1.635   5.235  0.0369  0.3081  0.7909
17998TIP3    H175409   0.780   1.681   5.310 -3.2658 -1.4693  0.3679
17998TIP3    H275410   0.741   1.618   5.178  2.0330 -0.7677 -1.6522
17999TIP3   OH275411   0.372   1.090   2.961 -0.1069 -0.3317 -0.2830
17999TIP3    H175412   0.392   0.998   2.941 -0.4586 -0.4209 -0.2197
17999TIP3    H275413   0.408   1.103   3.049 -2.2444 -1.1089  0.7360
18000TIP3   OH275414   1.482   0.597   0.734 -0.2266 -0.1987  0.3195
18000TIP3    H175415   1.494   0.601   0.829  1.8165  0.3610  0.0579
18000TIP3    H275416   1.421   0.524   0.721  0.2474 -0.9281  1.9980
18001TIP3   OH275417   3.265   4.737  10.866  0.2024 -0.0658  0.8842
18001TIP3    H175418   3.254   4.749  10.960 -1.7219 -0.9181  0.7846
18001TIP3    H275419   3.297   4.822  10.835  0.1860  0.4300  2.1965
18002TIP3   OH275420   1.718   5.526  11.042  0.3577 -0.0185  0.0240
18002TIP3    H175421   1.694   5.434  11.038 -3.3730  0.8406  0.4614
18002TIP3    H275422   1.747   5.548  10.954 -0.1839 -1.2502 -0.4631
18003TIP3   OH275423   0.140   5.936   5.295 -0.1999  0.5507  0.1432
18003TIP3    H175424   0.071   5.874   5.275  2.1040 -1.1214 -2.9739
18003TIP3    H275425   0.198   5.889   5.355  0.4954  0.4026 -0.6430
18004TIP3   OH275426   5.236   1.751   2.227  0.0238  0.2837 -0.5264
18004TIP3    H175427   5.263   1.711   2.309  1.5424  0.7603 -0.7728
18004TIP3    H275428   5.145   1.726   2.216  0.2992 -1.1739  0.4715
18005TIP3   OH275429   5.508   1.590  14.199 -0.7468 -0.4506  0.0269
18005TIP3    H175430   5.506   1.686  14.205 -1.1080 -0.6309  3.0958
18005TIP3    H275431   5.430   1.568  14.148 -0.4946  0.8904 -0.9675
18006TIP3   OH275432   5.638   4.601   0.248  0.5777 -0.0505 -0.3791
18006TIP3    H175433   5.560   4.632   0.201  0.0171 -0.3329  0.3636
18006TIP3    H275434   5.624   4.628   0.339 -0.0145 -2.6774  0.3325
18007TIP3   OH275435   3.199   3.472   0.409 -0.2354  0.0488 -0.2765
18007TIP3    H175436   3.203   3.435   0.497 -0.5558 -0.5618 -0.5146
18007TIP3    H275437   3.287   3.508   0.394 -0.3897  0.7805  0.5554
18008TIP3   OH275438   4.275   5.333   0.452 -0.1665 -0.2790  0.1479
18008TIP3    H175439   4.357   5.327   0.403 -1.4513 -0.8268 -1.9982
18008TIP3    H275440   4.298   5.306   0.541  1.9601 -0.4826 -0.4409
18009TIP3   OH275441   0.107   6.050  12.374 -0.6763 -0.0616  0.6876
18009TIP3    H175442   0.173   6.101  12.327  0.1971 -0.4354  1.4967
18009TIP3    H275443   0.107   6.086  12.462 -1.9277  0.2758  0.5558
18010TIP3   OH275444   3.818   5.563  16.724  0.3740  0.8746  0.2333
18010TIP3    H175445   3.748   5.600  16.778  1.7095  1.2075  1.7716
18010TIP3    H275446   3.774   5.536  16.643 -1.1883  2.8443  0.3757
18011TIP3   OH275447   5.546   2.469  16.812 -0.3887 -0.3494  0.3353
18011TIP3    H175448   5.468   2.493  16.861  0.4941 -0.8344  2.0041
18011TIP3    H275449   5.614   2.529  16.843 -0.1901  0.3689 -1.4264
18012TIP3   OH275450   3.327   3.470   2.076 -0.5032 -0.4925  0.1219
18012TIP3    H175451   3.250   3.418   2.055  1.0618 -2.1132 -1.7341
18012TIP3    H275452   3.366   3.425   2.151  0.6028 -1.7575 -1.2008
18013TIP3   OH275453   5.919   0.440   5.494  0.0297  0.5059  0.1123
18013TIP3    H175454   5.893   0.491   5.570  0.3548  1.1946 -0.2388
18013TIP3    H275455   5.865   0.475   5.423  0.1776  0.2935 -0.1053
18014TIP3   OH275456   1.633   0.074  13.928 -0.6054  0.3589 -0.3998
18014TIP3    H175457   1.644   0.155  13.878 -1.7716  1.7280  1.5066
18014TIP3    H275458   1.589   0.014  13.866 -0.9282  1.6152 -1.4154
18015TIP3   OH275459   1.005   3.973   3.140 -0.0504  0.7103  0.6522
18015TIP3    H175460   0.911   3.972   3.126  0.1417  0.8816 -0.7124
18015TIP3    H275461   1.040   3.913   3.074  0.7434  0.1820  1.5379
18016TIP3   OH275462   6.018   6.701   1.336 -0.2512  0.4856 -0.1807
18016TIP3    H175463   6.085   6.655   1.285 -0.6793  0.3895 -0.6638
18016TIP3    H275464   6.066   6.769   1.383  0.5513 -1.1003  1.3618
18017TIP3   OH275465   2.964   2.361  16.511  0.5226  0.3679  0.0918
18017TIP3    H175466   2.998   2.423  16.447 -0.8976  1.3469  0.2579
18017TIP3    H275467   3.019   2.284  16.501  1.5334  1.1986 -0.9745
18018TIP3   OH275468   6.626   2.877  12.739 -0.0299  0.0806  0.3038
18018TIP3    H175469   6.595   2.962  12.707 -0.3505 -0.2519 -0.2770
18018TIP3    H275470   6.614   2.881  12.833 -0.3821  0.5471  0.2430
18019TIP3   OH275471   2.717   4.611  16.403  0.0086 -0.2379 -0.0661
18019TIP3    H175472   2.762   4.659  16.333 -0.6506 -0.7618 -0.8629
18019TIP3    H275473   2.642   4.665  16.425  0.1377 -0.1425  0.1408
18020TIP3   OH275474   6.687   6.305   4.624  0.2403  0.2736  0.5449
18020TIP3    H175475   6.652   6.393   4.636  1.4264  1.0067 -1.2170
18020TIP3    H275476   6.611   6.253   4.596 -0.5570  0.6006  2.0321
18021TIP3   OH275477   6.576   5.148   3.294  0.2862 -0.2321 -0.1978
18021TIP3    H175478   6.595   5.086   3.223  3.5544  0.7585 -0.2476
18021TIP3    H275479   6.514   5.210   3.256 -0.2326 -1.3659 -1.2480
18022TIP3   OH275480   0.809   5.504  16.843 -0.4568 -0.2147  0.8768
18022TIP3    H175481   0.882   5.550  16.884  0.3192  0.7806 -1.5945
18022TIP3    H275482   0.779   5.443  16.911  0.9423  1.2152  2.8429
18023TIP3   OH275483   5.185   1.271   3.620  0.8002 -0.2809  0.0820
18023TIP3    H175484   5.143   1.284   3.705  0.4593 -0.1648 -0.1020
18023TIP3    H275485   5.114   1.282   3.556  1.2187  0.5317 -0.2639
18024TIP3   OH275486   4.916   6.076   3.017  0.0820 -1.0696 -0.2255
18024TIP3    H175487   4.867   6.051   3.096  1.1097 -0.5148  0.6045
18024TIP3    H275488   4.861   6.142   2.975 -0.5717 -1.5184 -0.0899
18025TIP3   OH275489   0.985   3.256   3.346 -0.2793  0.3669  0.7284
18025TIP3    H175490   0.931   3.266   3.267  0.4145 -1.6171 -0.0415
18025TIP3    H275491   1.028   3.340   3.357 -1.6997  1.2102 -0.0384
18026TIP3   OH275492   0.425   3.385   1.874 -0.2923  0.4017 -0.1873
18026TIP3    H175493   0.512   3.352   1.895 -0.8417 -1.5152 -0.8619
18026TIP3    H275494   0.441   3.458   1.814  0.7936 -0.8796 -1.4951
18027TIP3   OH275495   6.303   1.949   3.013  0.2180 -0.1501 -0.4563
18027TIP3    H175496   6.273   1.964   3.103  2.9383  0.3920  0.3935
18027TIP3    H275497   6.223   1.927   2.965 -1.2355 -0.8117  2.1630
18028TIP3   OH275498   0.791   3.970   5.896  0.8833 -0.5380  0.4756
18028TIP3    H175499   0.723   4.015   5.846  1.2760  0.6057  0.9740
18028TIP3    H275500   0.748   3.944   5.978  0.9976 -0.0044  0.7007
18029TIP3   OH275501   3.612   2.869   5.792  0.1028  0.1124  0.2806
18029TIP3    H175502   3.606   2.807   5.865  1.0284  0.1013  0.3535
18029TIP3    H275503   3.589   2.818   5.715 -1.4399  0.2634  0.6313
18030TIP3   OH275504   5.745   0.696  13.916  0.8100 -0.1304  0.1885
18030TIP3    H175505   5.801   0.702  13.994 -0.7704 -1.8054  1.4919
18030TIP3    H275506   5.668   0.648  13.945  0.3106 -1.0560 -2.5000
18031TIP3   OH275507   4.362   1.721  11.262 -0.3509  0.2473  0.7377
18031TIP3    H175508   4.352   1.788  11.194  0.6726  1.0019  1.3143
18031TIP3    H275509   4.396   1.645  11.216 -1.9048 -0.0264  0.0054
18032TIP3   OH275510   1.558   0.848   1.171  0.5299  0.1764  0.6020
18032TIP3    H175511   1.545   0.934   1.130 -1.0506 -0.5359 -0.4568
18032TIP3    H275512   1.638   0.857   1.221  1.2886  1.7830 -0.8458
18033TIP3   OH275513   0.182   3.700   3.184  0.5148  1.0771  1.0336
18033TIP3    H175514   0.258   3.713   3.127 -0.1556  1.2229  0.1638
18033TIP3    H275515   0.174   3.605   3.192 -0.8439  0.9830 -1.1098
18034TIP3   OH275516   0.153   3.502   2.193 -0.5618 -0.3076 -0.0085
18034TIP3    H175517   0.247   3.484   2.193 -0.9880 -2.6148 -0.8319
18034TIP3    H275518   0.136   3.538   2.280  1.4763  2.3742 -0.6625
18035TIP3   OH275519   1.583   4.794  16.718 -0.0747  0.2438  0.1967
18035TIP3    H175520   1.542   4.774  16.802  1.1817  0.8154  0.9604
18035TIP3    H275521   1.604   4.887  16.722  0.0045  0.2764 -0.7493
18036TIP3   OH275522   3.365   5.937   5.716 -0.0626  0.1692 -0.3925
18036TIP3    H175523   3.283   5.889   5.725  0.6520 -0.6113  2.4524
18036TIP3    H275524   3.432   5.870   5.705  0.4399  0.6993 -0.6051
18037TIP3   OH275525   6.532   2.168   4.531  0.1623 -0.0119 -0.3677
18037TIP3    H175526   6.484   2.244   4.566  0.0314 -0.8027  1.2198
18037TIP3    H275527   6.477   2.137   4.459  0.7827  2.0711 -1.7658
18038TIP3   OH275528   5.287   0.418   0.878 -0.2404  0.4553  0.1213
18038TIP3    H175529   5.286   0.503   0.922  0.7866 -0.0166  1.0774
18038TIP3    H275530   5.374   0.413   0.838 -1.1142  0.8200 -1.8684
18039TIP3   OH275531   5.323   3.075   0.090 -0.0275 -0.2088  0.2839
18039TIP3    H175532   5.407   3.031   0.101 -0.2467 -0.4733  0.8912
18039TIP3    H275533   5.326   3.110   0.001  0.2587 -1.2171 -0.1133
18040TIP3   OH275534   4.249   5.946   3.465  0.8527 -0.1209 -0.2780
18040TIP3    H175535   4.181   5.879   3.455  0.0731  0.7510 -0.8558
18040TIP3    H275536   4.267   5.949   3.559  0.2813 -0.5315 -0.1591
18041TIP3   OH275537   4.574   1.724  16.949  0.6079 -0.2248 -0.5013
18041TIP3    H175538   4.641   1.658  16.935  0.3581 -0.3469 -1.1274
18041TIP3    H275539   4.497   1.690  16.903  0.6160  0.7189 -1.2163
18042TIP3   OH275540   5.374   4.843   6.351 -0.3465 -0.1784  0.2703
18042TIP3    H175541   5.312   4.915   6.355 -0.8298 -0.6146  0.8413
18042TIP3    H275542   5.459   4.884   6.337 -0.6218  0.4945  0.5850
18043TIP3   OH275543   2.870   6.082  13.020  0.3467 -0.2102 -0.1021
18043TIP3    H175544   2.922   6.159  13.000 -0.7220  0.4105 -0.5554
18043TIP3    H275545   2.918   6.009  12.982  0.7183  0.3929 -0.7971
18044TIP3   OH275546   3.611   6.154   0.776 -0.5642 -0.0805 -0.0042
18044TIP3    H175547   3.659   6.230   0.742  0.8107 -0.8357  0.2244
18044TIP3    H275548   3.560   6.189   0.849 -0.3716  0.7332 -0.2490
18045TIP3   OH275549   0.683   4.544  17.034  0.0379  0.0653 -0.1757
18045TIP3    H175550   0.758   4.530  17.092  1.6943 -0.0805 -2.2899
18045TIP3    H275551   0.711   4.613  16.974 -1.3425 -0.2864 -1.2576
18046TIP3   OH275552   5.070   3.103  13.440  0.2477  0.4970  0.2717
18046TIP3    H175553   5.158   3.098  13.477  0.2108 -2.0368  0.1334
18046TIP3    H275554   5.012   3.073  13.510 -0.1347 -1.2322 -0.7610
18047TIP3   OH275555   6.107   0.635   2.473 -0.5004  0.7491  0.2283
18047TIP3    H175556   6.076   0.587   2.549  0.5924 -1.2043 -0.5360
18047TIP3    H275557   6.093   0.727   2.495 -1.3065  0.1459  2.2801
18048TIP3   OH275558   4.214   6.433   2.464  0.2128 -0.2927  0.1105
18048TIP3    H175559   4.215   6.486   2.543  0.5077 -0.5415  0.2725
18048TIP3    H275560   4.223   6.497   2.393 -2.0445  0.1362  0.1529
18049TIP3   OH275561   1.029   4.708   3.460 -0.2426  0.0164  0.5351
18049TIP3    H175562   0.948   4.760   3.467  1.1214  2.0110  1.9157
18049TIP3    H275563   1.069   4.737   3.378 -0.9421 -1.0350 -0.1933
18050TIP3   OH275564   1.265   5.044  16.934  0.2630 -0.2426  0.6522
18050TIP3    H175565   1.330   5.102  16.974 -2.6397  2.7967  1.1753
18050TIP3    H275566   1.215   5.009  17.007 -3.0361  2.8650  0.0327
18051TIP3   OH275567   6.691   4.125   5.273  0.3775  0.0286  0.3894
18051TIP3    H175568   6.749   4.063   5.316  1.5123  1.3678  0.8161
18051TIP3    H275569   6.604   4.106   5.310  1.0663  0.0992  2.1092
18052TIP3   OH275570   6.724   1.248  16.748  0.0040  0.0591 -0.3279
18052TIP3    H175571   6.663   1.261  16.820 -0.0387 -1.1840 -0.1228
18052TIP3    H275572   6.795   1.310  16.764 -1.2482  1.5775 -0.6330
18053TIP3   OH275573   0.774   4.612  12.608 -0.1478 -0.2023 -0.0575
18053TIP3    H175574   0.732   4.589  12.691 -0.7052 -0.4966 -0.4235
18053TIP3    H275575   0.835   4.539  12.592 -1.2748 -0.9992 -0.7672
18054TIP3   OH275576   4.792   4.582   1.411  0.2837 -0.1959 -0.0686
18054TIP3    H175577   4.809   4.499   1.455 -1.4007 -1.7287 -2.2392
18054TIP3    H275578   4.879   4.610   1.381  0.6165 -2.1981 -1.0726
18055TIP3   OH275579   0.646   2.043   5.112  0.3484  0.2607  0.2250
18055TIP3    H175580   0.622   2.108   5.045  0.9678  0.6930  0.4198
18055TIP3    H275581   0.615   1.960   5.076 -1.5637  0.8050  0.5245
18056TIP3   OH275582   4.368   3.893  10.646 -0.2570  0.0857  0.1574
18056TIP3    H175583   4.338   3.950  10.575  1.1115  0.8111  0.1410
18056TIP3    H275584   4.373   3.950  10.722  0.1606 -0.2501  0.3826
18057TIP3   OH275585   3.402   6.340   2.593  0.0822  0.3493 -0.3821
18057TIP3    H175586   3.443   6.327   2.508  0.0645  0.2517 -0.3763
18057TIP3    H275587   3.394   6.435   2.603 -0.2927  0.3505 -0.6681
18058TIP3   OH275588   1.221   6.582  12.754 -0.1167 -0.1770 -0.1549
18058TIP3    H175589   1.135   6.561  12.717 -0.2921  0.6802 -0.2570
18058TIP3    H275590   1.273   6.503  12.741 -0.5491 -0.3109 -1.1198
18059TIP3   OH275591   5.221   3.046  15.892 -0.4290  0.2577 -0.1283
18059TIP3    H175592   5.178   3.097  15.824 -0.6360 -0.1129 -0.2717
18059TIP3    H275593   5.279   3.109  15.936 -0.5629  0.5771 -0.4117
18060TIP3   OH275594   4.950   4.749   0.519 -0.3406  0.5308  0.0287
18060TIP3    H175595   4.878   4.793   0.565 -0.0935  0.2760  0.6641
18060TIP3    H275596   4.973   4.675   0.575 -0.6108 -0.2901 -0.9371
18061TIP3   OH275597   6.199   3.754  16.062 -0.0777  0.5560  0.4056
18061TIP3    H175598   6.194   3.846  16.090  0.6735  1.2608 -1.6146
18061TIP3    H275599   6.267   3.754  15.994  2.1771 -2.1078  2.5775
18062TIP3   OH275600   5.195   3.718  17.136 -0.1178 -0.0478  0.0781
18062TIP3    H175601   5.250   3.698  17.211 -1.1398 -0.8248  0.6294
18062TIP3    H275602   5.244   3.784  17.087  0.5827  0.4144  1.3884
18063TIP3   OH275603   4.694   0.911   3.588 -0.7382 -0.6450  0.1633
18063TIP3    H175604   4.680   0.963   3.667 -2.1089 -0.9602  0.1379
18063TIP3    H275605   4.667   0.823   3.612 -2.1193 -0.5400 -0.9380
18064TIP3   OH275606   0.511   3.840  12.140 -0.2928  0.3178  0.4159
18064TIP3    H175607   0.569   3.866  12.212 -0.7220 -0.2795  0.9759
18064TIP3    H275608   0.465   3.763  12.172  0.8774 -1.0884 -1.1882
18065TIP3   OH275609   2.824   5.049  12.358  0.8585 -0.1323  0.4177
18065TIP3    H175610   2.769   4.975  12.384  0.9388 -0.1940  0.4131
18065TIP3    H275611   2.890   5.010  12.301  0.9909 -0.0826  0.5356
18066TIP3   OH275612   2.698   4.879  12.030  0.7221  0.6126  0.2125
18066TIP3    H175613   2.754   4.820  11.981 -1.0465 -0.2991 -0.7488
18066TIP3    H275614   2.759   4.941  12.071  2.3657  0.0321 -1.2927
18067TIP3   OH275615   2.685   0.898  13.070  0.0145  0.4364  0.5204
18067TIP3    H175616   2.648   0.828  13.123  0.1624 -0.2687 -0.2819
18067TIP3    H275617   2.621   0.969  13.074 -0.7407 -0.2299  0.3121
18068TIP3   OH275618   3.219   3.131  10.619 -0.4396  0.2442 -0.3109
18068TIP3    H175619   3.191   3.220  10.639 -1.7300  0.3290 -2.3266
18068TIP3    H275620   3.313   3.137  10.609 -0.8081  1.9708 -3.2119
18069TIP3   OH275621   2.242   0.012  15.629 -0.0974  0.0940  0.0245
18069TIP3    H175622   2.150   0.014  15.656 -0.1903 -0.3956 -0.2363
18069TIP3    H275623   2.287   0.069  15.691 -0.1886 -1.5302  1.6456
18070TIP3   OH275624   4.391   2.292  15.187 -0.1154 -0.0389 -0.2503
18070TIP3    H175625   4.424   2.378  15.213  0.6343  0.0006 -1.3211
18070TIP3    H275626   4.467   2.234  15.197 -0.2802 -0.3382 -0.7366
18071TIP3   OH275627   4.930   4.460   6.053  0.1326  0.2015  1.2220
18071TIP3    H175628   4.840   4.492   6.041 -1.3494 -3.7765  0.7440
18071TIP3    H275629   4.974   4.481   5.970 -1.2163 -0.3270  0.3492
18072TIP3   OH275630   5.506   5.304   3.210  0.1657  0.4198 -0.2304
18072TIP3    H175631   5.417   5.337   3.194 -0.9308 -2.1570  0.2166
18072TIP3    H275632   5.506   5.281   3.303  1.7039  1.5440  0.0480
18073TIP3   OH275633   2.479   1.854  13.602  0.5910 -0.2580  0.2713
18073TIP3    H175634   2.493   1.772  13.650  1.3747  0.0503  0.5741
18073TIP3    H275635   2.429   1.828  13.525  1.6562 -1.1771 -0.1234
18074TIP3   OH275636   2.064   2.659   6.243  0.3727  0.2343  0.2853
18074TIP3    H175637   2.034   2.731   6.188 -0.0404  0.6271  1.0079
18074TIP3    H275638   2.159   2.658   6.232  0.3099  0.4175 -0.3007
18075TIP3   OH275639   4.772   0.099   3.050 -0.5018  0.5568  0.2445
18075TIP3    H175640   4.868   0.097   3.046 -0.5068 -3.2638 -0.1071
18075TIP3    H275641   4.752   0.097   3.144 -0.2330 -0.1320  0.2870
18076TIP3   OH275642   0.018   6.417  11.573  0.0735 -0.4865 -0.5520
18076TIP3    H175643  -0.066   6.457  11.593 -0.9407 -2.1417 -1.4226
18076TIP3    H275644   0.010   6.390  11.481  2.3900  1.4150 -1.3695
18077TIP3   OH275645   4.019   1.248   0.550 -0.3098  0.0669  0.3014
18077TIP3    H175646   4.064   1.174   0.590  1.9290  1.7452  1.0047
18077TIP3    H275647   4.075   1.273   0.476 -1.7930  0.1776 -0.8177
18078TIP3   OH275648   2.099   1.515   4.208  0.1704 -0.2858 -0.4157
18078TIP3    H175649   2.192   1.493   4.202  0.4294  0.8242 -0.5367
18078TIP3    H275650   2.068   1.512   4.117 -0.8818 -4.6563 -0.0350
18079TIP3   OH275651   4.594   0.453  16.848 -0.5717 -0.0946 -0.5732
18079TIP3    H175652   4.683   0.429  16.821 -1.0719  0.7059 -3.1176
18079TIP3    H275653   4.563   0.377  16.897  1.6823 -0.1840  0.7758
18080TIP3   OH275654   1.769   4.118   0.519  0.1329  0.3829 -0.1802
18080TIP3    H175655   1.767   4.044   0.581 -0.1527 -0.2279 -0.9137
18080TIP3    H275656   1.777   4.195   0.575 -0.0074 -0.1709  0.6186
18081TIP3   OH275657   2.083   2.842  11.370 -0.1629 -0.2123  0.4125
18081TIP3    H175658   2.130   2.847  11.287  0.9875 -1.3106  0.9771
18081TIP3    H275659   2.032   2.761  11.365  0.5234 -0.6969  1.0732
18082TIP3   OH275660   5.659   0.086  11.812 -0.0291  0.1374 -0.6544
18082TIP3    H175661   5.740   0.110  11.766  0.6940  1.4850  1.2828
18082TIP3    H275662   5.599   0.158  11.794 -0.4882 -0.4000 -1.2934
18083TIP3   OH275663   5.523   5.412  12.565 -0.2469 -0.2532  0.5095
18083TIP3    H175664   5.464   5.352  12.520  0.3503 -0.3593 -0.1627
18083TIP3    H275665   5.565   5.461  12.494  0.7414 -0.4432  0.9522
18084TIP3   OH275666   4.884   1.247  13.649 -0.3030 -0.1300 -0.0450
18084TIP3    H175667   4.851   1.188  13.717  0.6167 -0.8708 -0.2311
18084TIP3    H275668   4.979   1.249  13.662 -0.0279 -0.8756 -1.7643
18085TIP3   OH275669   4.264   1.624  15.420 -0.5557 -0.3991 -0.0822
18085TIP3    H175670   4.318   1.666  15.487 -0.6197 -1.0479  0.3737
18085TIP3    H275671   4.319   1.621  15.343  0.4428 -2.0169  0.6716
18086TIP3   OH275672   4.057   2.537  13.121  0.0169  0.1025  0.3324
18086TIP3    H175673   4.051   2.516  13.214  0.0526 -2.6555 -0.2382
18086TIP3    H275674   3.977   2.501  13.083  0.6022  0.0652 -0.8891
18087TIP3   OH275675   2.245   0.479   1.824  0.0201 -1.0587  0.5266
18087TIP3    H175676   2.269   0.571   1.833 -0.1072 -0.9810  0.0781
18087TIP3    H275677   2.150   0.478   1.838  0.0624 -1.1636  0.8197
18088TIP3   OH275678   0.235   4.544   1.082 -0.3621  0.0902  0.3251
18088TIP3    H175679   0.217   4.611   1.016 -1.1587 -1.1299 -0.7108
18088TIP3    H275680   0.192   4.465   1.049 -1.5260 -0.3277  2.7400
18089TIP3   OH275681   3.830   5.896  17.206 -0.4706  0.2438  0.0020
18089TIP3    H175682   3.849   5.806  17.178  0.5226  0.3586  0.2938
18089TIP3    H275683   3.885   5.951  17.150 -1.4730  0.7131 -0.5450
18090TIP3   OH275684   2.695   3.836   3.286 -0.4038 -0.0688  0.4509
18090TIP3    H175685   2.754   3.764   3.263  0.5945  0.5117  1.1859
18090TIP3    H275686   2.753   3.909   3.309 -1.4056  1.0204 -0.3948
18091TIP3   OH275687   6.078   3.329  15.324 -0.0595  0.3384 -0.4193
18091TIP3    H175688   6.076   3.412  15.278  1.5172 -0.1058 -1.3278
18091TIP3    H275689   6.146   3.340  15.391  1.1151 -0.6587 -1.4287
18092TIP3   OH275690   3.738   4.260  11.282 -0.4430  0.2742  0.1862
18092TIP3    H175691   3.699   4.207  11.212  1.0279 -0.2597 -0.2464
18092TIP3    H275692   3.674   4.329  11.299 -1.1576 -0.0527 -1.1626
18093TIP3   OH275693   0.442   3.639   1.375 -0.6268  0.2659  0.0862
18093TIP3    H175694   0.362   3.689   1.394 -1.0383  0.0229 -0.9947
18093TIP3    H275695   0.442   3.629   1.280 -0.3596 -1.5030  0.2618
18094TIP3   OH275696   0.266   4.875   3.296  0.3599 -0.2354 -0.1443
18094TIP3    H175697   0.190   4.904   3.246 -0.6710 -0.2644  1.3848
18094TIP3    H275698   0.239   4.883   3.387  2.3120  0.0661  0.4245
18095TIP3   OH275699   3.410   1.192   4.157 -0.4876  0.1003 -0.0194
18095TIP3    H175700   3.482   1.200   4.095  0.4445 -0.3409  0.9997
18095TIP3    H275701   3.409   1.099   4.181  0.2277  0.5653  1.8910
18096TIP3   OH275702   2.635   0.764  11.463  0.1074  0.0046  0.4359
18096TIP3    H175703   2.582   0.834  11.427  0.4838  1.0016  1.7864
18096TIP3    H275704   2.614   0.687  11.409 -1.4087  0.7902 -0.1019
18097TIP3   OH275705   4.412   3.440  13.156 -0.2707 -0.3029 -0.1432
18097TIP3    H175706   4.417   3.466  13.248 -1.7621  0.2234 -0.1958
18097TIP3    H275707   4.341   3.375  13.153 -0.4159 -0.1151 -0.9537
18098TIP3   OH275708   3.280   1.953  16.844  0.4002 -0.4751  0.1178
18098TIP3    H175709   3.241   1.970  16.930 -1.6519  0.8890 -1.0539
18098TIP3    H275710   3.333   2.031  16.826 -1.8907  0.7933 -1.3209
18099TIP3   OH275711   5.684   1.254   1.989 -1.1732 -0.2899  0.0424
18099TIP3    H175712   5.713   1.286   2.075  1.6833 -0.3428 -0.8272
18099TIP3    H275713   5.638   1.173   2.009  0.7404 -1.0893  1.4662
18100TIP3   OH275714   3.093   5.925  16.706 -0.5826  0.0783 -0.0331
18100TIP3    H175715   3.141   5.902  16.786  1.1752  0.0953 -1.0538
18100TIP3    H275716   3.047   5.845  16.682  2.7754 -1.4878 -1.6681
18101TIP3   OH275717   1.853   3.203   4.619 -0.1549  0.5731 -0.6653
18101TIP3    H175718   1.853   3.107   4.617  1.2200  0.5709 -0.5656
18101TIP3    H275719   1.823   3.225   4.707  3.0726  0.1842  0.6066
18102TIP3   OH275720   3.190   5.374   0.016 -0.1415 -0.0521  0.0036
18102TIP3    H175721   3.212   5.289  -0.022  0.7963  0.0893  0.2099
18102TIP3    H275722   3.232   5.374   0.102 -1.0755  0.1838  0.4700
18103TIP3   OH275723   4.971   5.989  11.697 -0.4578  0.2616  0.0631
18103TIP3    H175724   4.969   6.038  11.780  0.9156  0.4357  0.0068
18103TIP3    H275725   4.907   6.034  11.642  0.0675  1.3952  0.3498
18104TIP3   OH275726   4.884   3.871   0.631 -0.3641  0.3970  0.5745
18104TIP3    H175727   4.831   3.794   0.609  0.3513 -0.0136  0.2557
18104TIP3    H275728   4.820   3.939   0.650 -1.1329  1.2701 -4.3559
18105TIP3   OH275729   1.846   0.142   5.497 -0.2193 -0.2073 -0.9134
18105TIP3    H175730   1.882   0.172   5.580 -2.8934  1.3930 -0.2990
18105TIP3    H275731   1.855   0.046   5.501  0.5570 -0.0868  0.7784
18106TIP3   OH275732   1.771   0.979   0.233 -0.4287  0.0502 -0.4870
18106TIP3    H175733   1.708   0.914   0.202  0.2452 -0.5306 -0.6257
18106TIP3    H275734   1.811   1.014   0.153  0.1160 -0.2611 -0.3481
18107TIP3   OH275735   3.992   4.190   3.541 -0.0733  0.1857  0.3123
18107TIP3    H175736   4.016   4.098   3.527  1.1450  0.3416  1.2660
18107TIP3    H275737   3.969   4.195   3.634  1.0900  1.0875  0.5735
18108TIP3   OH275738   6.123   2.829  12.998 -0.1134  0.3888  0.6691
18108TIP3    H175739   6.043   2.878  12.979 -1.8472 -1.8108  2.0592
18108TIP3    H275740   6.149   2.792  12.913  0.4047  2.5003 -0.1083
18109TIP3   OH275741   5.993   3.026  16.856  0.1098 -0.0790 -0.2232
18109TIP3    H175742   5.986   2.933  16.835 -0.4733 -0.3482  1.1624
18109TIP3    H275743   5.945   3.037  16.938 -0.6482  1.6144 -0.8564
18110TIP3   OH275744   1.916   1.256   5.670  0.3456  0.1718  0.5519
18110TIP3    H175745   1.978   1.274   5.739  0.7289  0.7633  0.0564
18110TIP3    H275746   1.830   1.268   5.710  0.5648  0.2448  0.9921
18111TIP3   OH275747   4.220   2.755   0.085  0.0722 -0.9900  0.3434
18111TIP3    H175748   4.251   2.846   0.087  0.3299 -1.0377 -0.8280
18111TIP3    H275749   4.293   2.707   0.045 -0.1732 -1.6663  0.7179
18112TIP3   OH275750   5.571   4.518   5.288  0.6982 -0.5089  0.1323
18112TIP3    H175751   5.606   4.430   5.298 -0.7327 -1.3438 -2.0906
18112TIP3    H275752   5.564   4.550   5.378  2.2195 -2.2373  0.9118
18113TIP3   OH275753   6.344   1.627  15.743  0.5301  0.0570  0.1554
18113TIP3    H175754   6.347   1.605  15.650 -0.9388 -2.6695  0.7076
18113TIP3    H275755   6.419   1.581  15.781  0.0072 -0.4212  0.6177
18114TIP3   OH275756   1.656   2.344   3.804 -0.0221 -0.1862  0.7542
18114TIP3    H175757   1.671   2.252   3.781 -1.4940 -0.1390 -0.4928
18114TIP3    H275758   1.578   2.342   3.859 -1.1747  0.4755 -0.8160
18115TIP3   OH275759   1.510   1.854  17.214 -0.3348  0.1525 -0.4413
18115TIP3    H175760   1.540   1.763  17.211 -3.5381 -1.0878  1.4114
18115TIP3    H275761   1.485   1.874  17.124  0.9760 -0.5919 -0.9756
18116TIP3   OH275762   0.985   0.485   2.057  0.3709 -0.2033 -0.0751
18116TIP3    H175763   0.968   0.578   2.040 -0.9103 -0.6980 -1.7041
18116TIP3    H275764   0.932   0.439   1.991  0.9619 -2.0867  0.7329
18117TIP3   OH275765   3.238   3.857  14.313  0.5429 -0.2017  0.0083
18117TIP3    H175766   3.191   3.809  14.381  1.6053  0.0901  0.9600
18117TIP3    H275767   3.187   3.841  14.233 -1.5864  0.6585  1.1289
18118TIP3   OH275768   2.681   0.851   2.806  0.0578  0.0921  0.1903
18118TIP3    H175769   2.673   0.944   2.826  2.3741  0.7049 -1.5421
18118TIP3    H275770   2.629   0.839   2.727 -1.2607 -0.3814  1.1015
18119TIP3   OH275771   6.068   2.115  11.464  0.3118 -0.2714 -0.3359
18119TIP3    H175772   6.072   2.132  11.558 -1.6920 -0.7460 -0.1345
18119TIP3    H275773   6.112   2.031  11.452 -0.6689 -0.8828  0.3704
18120TIP3   OH275774   5.151   2.015   4.645 -0.1738  0.2341  0.1554
18120TIP3    H175775   5.087   2.074   4.684 -1.4101 -0.5498 -0.6562
18120TIP3    H275776   5.106   1.977   4.569  0.5776 -1.7836  0.6983
18121TIP3   OH275777   1.084   6.765  15.544 -0.3731  0.7732 -0.5774
18121TIP3    H175778   1.028   6.842  15.553 -2.8213 -0.9079 -0.9285
18121TIP3    H275779   1.114   6.746  15.633 -0.0178  1.9199 -0.4441
18122TIP3   OH275780   6.486   6.651  16.625  0.2665  0.5611 -0.3424
18122TIP3    H175781   6.518   6.667  16.713  0.1376 -0.6707 -0.0708
18122TIP3    H275782   6.435   6.730  16.603  1.7021  1.5994  0.0134
18123TIP3   OH275783   1.147   3.517  10.889 -0.4609 -0.1974 -0.7925
18123TIP3    H175784   1.232   3.522  10.846 -0.7130 -0.3850 -1.3126
18123TIP3    H275785   1.132   3.424  10.903 -0.5327 -0.1591 -0.6073
18124TIP3   OH275786   4.357   5.474  15.992  0.1335  0.0799 -0.1024
18124TIP3    H175787   4.294   5.539  15.960 -0.7027 -0.5877  0.1892
18124TIP3    H275788   4.323   5.447  16.077  1.0378  0.0198  0.2477
18125TIP3   OH275789   2.251   5.008  11.152  0.2698 -0.0423  0.1583
18125TIP3    H175790   2.219   5.011  11.062  1.2256 -1.6533 -0.2665
18125TIP3    H275791   2.338   5.049  11.148  0.1360  0.2587  0.4132
18126TIP3   OH275792   6.001   1.977  13.323  0.7491  0.4905  0.4307
18126TIP3    H175793   6.027   1.954  13.234  1.3922 -0.5169  0.8795
18126TIP3    H275794   5.908   1.956  13.327  1.4621 -2.6925  1.0391
18127TIP3   OH275795   5.012   1.219   5.857 -0.5094  0.3615  0.1365
18127TIP3    H175796   5.036   1.300   5.813  2.7159 -1.2494 -1.1506
18127TIP3    H275797   5.029   1.237   5.950  1.8979  0.5876 -0.3301
18128TIP3   OH275798   3.957   3.044  16.920 -0.0392 -0.0782 -0.4522
18128TIP3    H175799   3.929   3.110  16.857 -0.3278 -0.4742 -0.7378
18128TIP3    H275800   3.918   3.071  17.003 -0.3244 -0.0013 -0.6096
18129TIP3   OH275801   0.220   6.354  12.030  0.4520 -0.0414  0.1699
18129TIP3    H175802   0.250   6.420  12.092  1.8181 -1.2189  0.8106
18129TIP3    H275803   0.195   6.403  11.952  0.1789  1.3278  1.0949
18130TIP3   OH275804   1.553   5.751  13.625 -0.4509  0.2854  0.4080
18130TIP3    H175805   1.546   5.796  13.709  0.8274  0.9035  0.2027
18130TIP3    H275806   1.572   5.821  13.562 -0.1075 -0.3323 -0.1818
18131TIP3   OH275807   5.697   1.959   6.055 -0.2729 -0.2877  0.3297
18131TIP3    H175808   5.745   1.954   6.138  1.0081 -0.5133 -0.4115
18131TIP3    H275809   5.608   1.983   6.080  0.2511  0.2415  1.7234
18132TIP3   OH275810   1.662   6.420   2.193 -0.0916 -0.3914  0.3499
18132TIP3    H175811   1.613   6.502   2.188 -1.5731 -1.3529 -1.5988
18132TIP3    H275812   1.639   6.384   2.279 -3.6381 -1.2442 -0.8628
18133TIP3   OH275813   3.012   6.782  15.673 -0.6880  0.0612 -0.0995
18133TIP3    H175814   2.926   6.784  15.715 -0.9208  1.3885 -0.6346
18133TIP3    H275815   3.068   6.737  15.737 -1.6129 -0.2061  0.5392
18134TIP3   OH275816   3.883   2.704  16.119  0.1666  0.3299  0.1331
18134TIP3    H175817   3.852   2.681  16.031  0.6991  1.9790 -0.5082
18134TIP3    H275818   3.952   2.640  16.137  0.1486  0.0613 -0.7065
18135TIP3   OH275819   5.243   5.221   5.370  0.3176  0.4359 -0.7148
18135TIP3    H175820   5.154   5.246   5.344 -0.2734 -0.0766  0.8080
18135TIP3    H275821   5.273   5.293   5.424  0.2604 -0.1011  0.0339
18136TIP3   OH275822   5.174   1.238   5.144  0.3849  0.0225 -0.5008
18136TIP3    H175823   5.135   1.201   5.223  1.7236 -0.0571  0.1219
18136TIP3    H275824   5.263   1.262   5.169  1.6047 -2.1083 -2.5784
18137TIP3   OH275825   2.481   4.061   4.159  0.7080 -0.1562  0.0195
18137TIP3    H175826   2.409   4.123   4.149  0.9557  0.0015 -0.8106
18137TIP3    H275827   2.559   4.116   4.168  0.6954 -0.3252  1.1298
18138TIP3   OH275828   2.489   0.121   0.749  0.0614 -0.7813 -0.2588
18138TIP3    H175829   2.467   0.160   0.664 -1.0042 -2.7894 -0.9430
18138TIP3    H275830   2.407   0.126   0.798  0.7241  0.5298  0.7309
18139TIP3   OH275831   5.438   4.422   1.621 -0.5955 -0.1488 -0.7645
18139TIP3    H175832   5.364   4.380   1.665 -1.4207  0.7634 -1.2641
18139TIP3    H275833   5.431   4.395   1.530  0.4370 -1.0842 -0.5786
18140TIP3   OH275834   2.681   1.274  12.482 -0.1724  0.2206  0.0674
18140TIP3    H175835   2.776   1.275  12.488 -0.1475  0.2571 -0.3003
18140TIP3    H275836   2.651   1.248  12.569  0.2359 -2.7370 -0.6172
18141TIP3   OH275837   0.367   1.715   2.607 -0.5275 -0.0943 -0.4202
18141TIP3    H175838   0.286   1.760   2.584 -0.0934  1.9916  1.9377
18141TIP3    H275839   0.428   1.737   2.536 -1.6100 -0.6220 -1.5349
18142TIP3   OH275840   1.126   2.703  11.955 -0.0601  0.0282  0.4766
18142TIP3    H175841   1.114   2.642  12.027  0.5182  0.2479  0.7607
18142TIP3    H275842   1.037   2.721  11.923 -0.1071 -2.4972 -0.9263
18143TIP3   OH275843   1.411   2.810   3.124 -0.4826 -0.2376 -0.4994
18143TIP3    H175844   1.344   2.861   3.169  0.0004  0.4222 -0.5120
18143TIP3    H275845   1.418   2.852   3.038  0.9060  0.5655 -0.0125
18144TIP3   OH275846   5.460   5.955  10.761 -0.3642  0.2818  0.0717
18144TIP3    H175847   5.466   5.885  10.696  0.5999  0.2342  0.2146
18144TIP3    H275848   5.534   6.013  10.742  0.8350 -0.5462  2.0989
18145TIP3   OH275849   4.962   5.508   0.896  0.0602  0.0488  0.3746
18145TIP3    H175850   4.979   5.547   0.810  3.6669 -0.2222  0.9154
18145TIP3    H275851   5.026   5.548   0.954 -0.3428 -2.0111  2.3150
18146TIP3   OH275852   2.312   6.369   2.145 -0.0326 -0.5119  0.0168
18146TIP3    H175853   2.257   6.431   2.097  1.4106  0.5298 -0.3043
18146TIP3    H275854   2.364   6.325   2.078  0.6335 -0.4054  0.4556
18147TIP3   OH275855   0.053   5.547  15.198  1.0428  0.3208  0.3122
18147TIP3    H175856   0.083   5.476  15.142 -2.7092 -0.8880 -0.3310
18147TIP3    H275857   0.042   5.621  15.139 -1.2078 -0.4563 -0.3182
18148TIP3   OH275858   1.798   1.838  14.301  0.4581  0.3911 -0.2161
18148TIP3    H175859   1.758   1.826  14.387  0.6856 -1.2054 -0.3191
18148TIP3    H275860   1.734   1.890  14.252 -0.9062 -0.9992  0.0519
18149TIP3   OH275861   5.537   0.013   6.021  0.0980  0.0110 -0.0970
18149TIP3    H175862   5.518   0.107   6.012  2.6882  0.6872  1.0682
18149TIP3    H275863   5.493  -0.012   6.103 -0.1781  0.3208 -0.1490
18150TIP3   OH275864   1.583   3.212   3.052 -0.3054 -0.1047 -0.0099
18150TIP3    H175865   1.659   3.209   2.993  0.6505  0.4677  1.1662
18150TIP3    H275866   1.522   3.148   3.016  0.0487  0.6037 -1.9145
18151TIP3   OH275867   0.063   5.743  15.024  0.5824 -0.3060 -0.2116
18151TIP3    H175868  -0.009   5.730  14.962  0.0397 -1.1668  0.5868
18151TIP3    H275869   0.141   5.719  14.975  0.0679 -1.8659 -0.3027
18152TIP3   OH275870   3.478   1.920  10.834  0.5943  0.2240 -0.3699
18152TIP3    H175871   3.390   1.891  10.855  0.0026  1.6944 -0.7461
18152TIP3    H275872   3.471   1.960  10.748  1.8702 -0.6633 -0.9054
18153TIP3   OH275873   0.813   0.947  11.418 -0.3142  1.1443  0.3370
18153TIP3    H175874   0.725   0.970  11.447 -0.2225  0.4913  1.1615
18153TIP3    H275875   0.840   1.019  11.362 -1.9439  0.6518 -1.1206
18154TIP3   OH275876   3.830   3.880  13.111  0.0819 -0.5426 -0.1898
18154TIP3    H175877   3.916   3.882  13.152 -0.3566 -1.6324  0.8391
18154TIP3    H275878   3.788   3.961  13.140  0.3524 -0.5498  0.2367
18155TIP3   OH275879   3.600   5.073  12.159  0.3396  0.1118 -0.1346
18155TIP3    H175880   3.691   5.089  12.184  0.1954  1.1691 -0.2415
18155TIP3    H275881   3.549   5.096  12.237  0.1945 -0.9977  0.1025
18156TIP3   OH275882   6.109   3.083  17.158  0.6815  0.1551  1.0421
18156TIP3    H175883   6.176   3.068  17.091 -1.3896 -1.7062 -0.6614
18156TIP3    H275884   6.156   3.070  17.241  2.4338 -1.1409 -0.1131
18157TIP3   OH275885   0.206   1.937   5.244 -0.1378  0.3167 -0.1381
18157TIP3    H175886   0.258   1.878   5.190  0.1962 -0.4195  0.9583
18157TIP3    H275887   0.261   2.015   5.255  0.0710  0.1926 -0.3097
18158TIP3   OH275888   4.590   0.371  11.321 -0.4391  0.1152 -0.4329
18158TIP3    H175889   4.655   0.376  11.250 -0.5422 -0.3409 -0.5634
18158TIP3    H275890   4.506   0.386  11.277 -0.4576  0.3371 -0.3224
18159TIP3   OH275891   5.428   6.758   6.262  0.0382  0.4312 -0.1712
18159TIP3    H175892   5.382   6.839   6.241  1.4741  1.6753  1.2482
18159TIP3    H275893   5.378   6.720   6.335  0.7127  1.3096  0.7665
18160TIP3   OH275894   6.053   4.509   1.376 -0.0810 -0.1307  0.1052
18160TIP3    H175895   6.013   4.427   1.346  1.4525 -0.8907  0.0459
18160TIP3    H275896   6.069   4.494   1.470  0.8563 -0.2044 -0.0534
18161TIP3   OH275897   2.310   4.180  10.888  0.1278 -0.2579 -0.2250
18161TIP3    H175898   2.274   4.248  10.945 -1.5005 -1.4424  0.2221
18161TIP3    H275899   2.358   4.122  10.946 -1.0391 -1.1432 -0.1253
18162TIP3   OH275900   4.111   2.367   5.732 -0.5525  0.1927  0.1162
18162TIP3    H175901   4.083   2.288   5.686 -1.2157  0.1157  0.6455
18162TIP3    H275902   4.051   2.375   5.807 -0.1667  0.9070  0.3636
18163TIP3   OH275903   2.556   2.130   1.065  0.7222  0.2527  0.3813
18163TIP3    H175904   2.592   2.056   1.114 -0.2260 -0.2821  0.2670
18163TIP3    H275905   2.582   2.207   1.115  0.0279 -0.2675  1.5571
18164TIP3   OH275906   4.101   5.754   5.782 -0.1901 -0.2206  0.1962
18164TIP3    H175907   4.006   5.758   5.774 -0.0962  2.4417  0.1277
18164TIP3    H275908   4.119   5.662   5.803 -2.7121 -0.8745 -0.3134
18165TIP3   OH275909   2.728   5.255  11.375  0.5267 -0.6439 -0.3230
18165TIP3    H175910   2.732   5.253  11.279  1.7417  0.7388 -0.3162
18165TIP3    H275911   2.775   5.335  11.399  1.0544 -1.4777  1.4730
18166TIP3   OH275912   0.671   0.143   2.007 -0.0814 -0.0406  0.1405
18166TIP3    H175913   0.644   0.076   1.945 -0.0173 -1.7425  1.8880
18166TIP3    H275914   0.685   0.095   2.089 -1.2893  2.2876  1.7683
18167TIP3   OH275915   3.718   5.482   4.593 -1.0602  0.1434  0.0451
18167TIP3    H175916   3.759   5.425   4.527  0.7557  0.3999  0.9094
18167TIP3    H275917   3.700   5.563   4.546 -0.5475  0.0324 -0.3531
18168TIP3   OH275918   3.213   1.891   0.310 -0.0974  0.0390 -0.2317
18168TIP3    H175919   3.254   1.925   0.389 -0.4661 -0.9820  0.4148
18168TIP3    H275920   3.134   1.847   0.342 -1.3230  1.3693 -1.3779
18169TIP3   OH275921   1.104   5.649   0.680 -0.0768 -0.2733  0.7995
18169TIP3    H175922   1.055   5.687   0.753 -0.1890 -0.7668  0.9853
18169TIP3    H275923   1.194   5.642   0.713  0.4944  2.2715 -0.1634
18170TIP3   OH275924   0.305   5.890  12.113  0.7806  0.5201 -0.0648
18170TIP3    H175925   0.227   5.908  12.166  1.3308  1.1077  0.5602
18170TIP3    H275926   0.346   5.975  12.101  1.5444  0.1592 -0.0460
18171TIP3   OH275927   0.948   5.017   3.852 -0.4627  0.6493 -0.1263
18171TIP3    H175928   1.032   4.981   3.879 -1.1168 -0.5192  0.3727
18171TIP3    H275929   0.890   4.941   3.845 -0.8331  1.1460 -2.9057
18172TIP3   OH275930   5.601   6.608  14.729  0.3059  0.3713  0.2378
18172TIP3    H175931   5.569   6.636  14.815  1.7300  2.5133  0.0988
18172TIP3    H275932   5.593   6.685  14.673  1.4819 -0.3438 -0.9740
18173TIP3   OH275933   2.797   6.170  17.000 -0.4644  0.2898 -0.6840
18173TIP3    H175934   2.752   6.251  16.976  1.6717  1.6262 -0.3455
18173TIP3    H275935   2.797   6.171  17.096 -0.1299  0.0622 -0.6817
18174TIP3   OH275936   1.429   3.581   3.604  0.3392 -0.0931 -0.4793
18174TIP3    H175937   1.469   3.531   3.675 -0.5734  0.9359  0.7937
18174TIP3    H275938   1.342   3.541   3.594 -0.2763  0.9987  0.3382
18175TIP3   OH275939   5.626   3.281   1.863  0.0588 -0.0111  0.0975
18175TIP3    H175940   5.549   3.242   1.820  0.2657 -0.4018  0.0731
18175TIP3    H275941   5.700   3.243   1.817  0.2774 -0.1469  0.5589
18176TIP3   OH275942   5.252   1.755   0.803  0.1717 -0.2484 -0.0585
18176TIP3    H175943   5.254   1.807   0.883 -0.5572 -1.4861  0.7704
18176TIP3    H275944   5.280   1.668   0.830  0.2351 -0.5965 -1.2122
18177TIP3   OH275945   3.229   1.881   5.373 -0.6333 -0.3472  0.5257
18177TIP3    H175946   3.204   1.933   5.450 -0.4844  0.4392  0.0491
18177TIP3    H275947   3.309   1.836   5.400 -0.7581 -0.3233  0.9412
18178TIP3   OH275948   2.042   4.540   2.405  0.2526 -0.3834 -0.1824
18178TIP3    H175949   2.000   4.617   2.366  0.3550  0.8899  2.1577
18178TIP3    H275950   2.125   4.531   2.358  1.5227  2.6317  1.3545
18179TIP3   OH275951   4.742   3.735   2.758 -0.4851 -0.1460 -0.1454
18179TIP3    H175952   4.780   3.819   2.732  2.4575 -1.3328  0.0761
18179TIP3    H275953   4.762   3.727   2.851 -3.6047  0.3091  0.6242
18180TIP3   OH275954   5.608   6.063   5.845 -0.1542  0.0184  0.2300
18180TIP3    H175955   5.683   6.121   5.830  0.0466 -0.3485 -0.1847
18180TIP3    H275956   5.552   6.112   5.905  0.8066 -0.0357  1.1949
18181TIP3   OH275957   5.196   5.633  13.363  0.0953  0.0280 -0.1641
18181TIP3    H175958   5.112   5.662  13.326 -0.1960 -1.8592 -1.0866
18181TIP3    H275959   5.243   5.714  13.382 -0.6614  1.1114 -2.6222
18182TIP3   OH275960   4.522   3.290  14.071 -0.3151 -0.0519 -0.2089
18182TIP3    H175961   4.521   3.353  13.999 -2.3425  0.4526  0.2328
18182TIP3    H275962   4.533   3.205  14.028 -0.8910  0.3045 -1.0767
18183TIP3   OH275963   6.766   1.918   5.402 -0.0042 -0.6420  0.2408
18183TIP3    H175964   6.774   1.855   5.474  0.0770 -0.6468  0.2274
18183TIP3    H275965   6.834   1.893   5.340  1.4748  0.8066  1.2533
18184TIP3   OH275966   6.023   5.821   4.667  0.3364  0.4078 -0.4689
18184TIP3    H175967   6.090   5.759   4.696 -0.1996 -0.5318 -1.2116
18184TIP3    H275968   6.066   5.906   4.669  1.0084  0.0507  0.8081
18185TIP3   OH275969   4.538   2.897   3.887 -0.2103  0.1817 -0.4573
18185TIP3    H175970   4.624   2.855   3.886 -0.1915  0.2088  0.0306
18185TIP3    H275971   4.504   2.884   3.798 -0.0282 -0.5047 -0.4304
18186TIP3   OH275972   2.498   1.225  12.297 -0.0254  0.2337  0.3955
18186TIP3    H175973   2.572   1.226  12.357  0.4793 -0.7514 -0.1984
18186TIP3    H275974   2.505   1.308  12.249  1.2983 -0.3013 -0.3705
18187TIP3   OH275975   5.745   1.866  16.708 -0.3470  0.3363 -0.5907
18187TIP3    H175976   5.722   1.918  16.631 -1.3685 -0.1405 -0.6156
18187TIP3    H275977   5.828   1.902  16.737  0.0797  0.4760 -1.9580
18188TIP3   OH275978   4.567   5.438  12.392  0.0202 -0.4382 -0.1642
18188TIP3    H175979   4.523   5.505  12.444 -1.0420  1.4369 -3.3678
18188TIP3    H275980   4.500   5.373  12.374  0.3999 -1.1099  0.7981
18189TIP3   OH275981   2.655   4.721   0.687 -0.2043 -0.8031 -0.2169
18189TIP3    H175982   2.586   4.667   0.647 -0.3946 -1.0128  0.3880
18189TIP3    H275983   2.720   4.730   0.618  0.2499 -2.5810 -0.0534
18190TIP3   OH275984   0.675   5.557  16.282 -0.9167 -0.3086 -0.0875
18190TIP3    H175985   0.626   5.610  16.219 -0.1431  1.2654  0.6207
18190TIP3    H275986   0.764   5.554  16.247 -1.3300 -2.5879 -1.0099
18191TIP3   OH275987   1.027   1.429   3.535  0.6922  0.3714 -0.0846
18191TIP3    H175988   1.112   1.434   3.580  1.1234  0.1158 -0.8595
18191TIP3    H275989   0.973   1.495   3.578  1.0268 -0.0320  0.9737
18192TIP3   OH275990   2.944   4.650   5.741 -0.4749 -0.0729  0.0114
18192TIP3    H175991   3.019   4.703   5.714 -1.2999  0.7273 -0.7307
18192TIP3    H275992   2.868   4.696   5.706 -1.2214 -1.6309 -0.4605
18193TIP3   OH275993   0.704   2.939   0.471  0.3383  0.3042 -0.4315
18193TIP3    H175994   0.655   2.948   0.553 -0.3446 -0.8091 -0.7090
18193TIP3    H275995   0.642   2.966   0.403  0.2797 -0.5677 -0.7331
18194TIP3   OH275996   2.997   3.782  16.690 -0.3754  0.1190  0.2090
18194TIP3    H175997   2.966   3.755  16.776  2.0036 -2.6772  0.2768
18194TIP3    H275998   2.931   3.749  16.629 -2.6814  3.1438  0.9654
18195TIP3   OH275999   6.102   0.847   0.940 -0.3404 -0.0113  0.6444
18195TIP3    H176000   6.045   0.815   0.870 -0.2843 -0.4050  0.7772
18195TIP3    H276001   6.060   0.928   0.969  2.0262  2.6040 -2.8258
18196TIP3   OH276002   5.799   5.978  10.421  0.2324 -0.0987  0.1762
18196TIP3    H176003   5.884   6.023  10.413 -0.4835  1.2646  0.0501
18196TIP3    H276004   5.821   5.885  10.422  1.6286  0.1906 -1.2720
18197TIP3   OH276005   2.546   2.579   6.468  0.2379  0.7051  0.2823
18197TIP3    H176006   2.560   2.494   6.509 -0.3775  0.9951  1.1189
18197TIP3    H276007   2.628   2.627   6.484  0.1926  0.6359  0.7276
18198TIP3   OH276008   0.755   0.693   0.494 -0.8104 -0.2664 -0.1730
18198TIP3    H176009   0.703   0.613   0.488 -1.4942  0.0652  1.0265
18198TIP3    H276010   0.690   0.763   0.503 -0.2044  0.3545 -0.6171
18199TIP3   OH276011   2.836   2.163   2.526 -0.2028 -0.0604 -0.3383
18199TIP3    H176012   2.915   2.128   2.567  0.7117  0.2885 -1.7669
18199TIP3    H276013   2.855   2.162   2.432 -1.2849  1.5024 -0.5904
18200TIP3   OH276014   2.183   1.568   0.255 -0.1376 -0.1112  0.1062
18200TIP3    H176015   2.254   1.503   0.258  1.3535  1.5151  1.1154
18200TIP3    H276016   2.188   1.612   0.340 -2.7185 -0.3265  0.3969
18201TIP3   OH276017   4.433   6.747  12.630 -0.2420 -0.0459 -0.0211
18201TIP3    H176018   4.523   6.719  12.616 -0.6834 -1.2926 -0.4607
18201TIP3    H276019   4.439   6.842  12.644  0.9575  0.1563 -1.7147
18202TIP3   OH276020   5.374   5.875   5.525  0.3528 -0.1218  0.0380
18202TIP3    H176021   5.377   5.911   5.437  0.9612 -0.6550 -0.1584
18202TIP3    H276022   5.464   5.881   5.557  0.3718 -1.0508  0.1741
18203TIP3   OH276023   0.422   3.428   2.149 -0.4781  0.8234  0.3581
18203TIP3    H176024   0.413   3.414   2.055  0.5188  0.4882  0.3021
18203TIP3    H276025   0.500   3.482   2.158 -0.3240  0.5001  1.0172
18204TIP3   OH276026   4.675   6.246   3.530 -0.0846 -0.3006  0.2390
18204TIP3    H176027   4.725   6.327   3.530  1.7070 -1.3826  0.2019
18204TIP3    H276028   4.584   6.274   3.514  0.1160  1.8943  2.6080
18205TIP3   OH276029   6.601   6.145  16.646 -0.2176 -0.5758  0.1160
18205TIP3    H176030   6.518   6.142  16.694  0.7737  0.7124  2.0205
18205TIP3    H276031   6.646   6.064  16.669 -0.6680 -0.9661 -0.3851
18206TIP3   OH276032   1.032   2.233   2.122 -0.3700  0.6054  0.0989
18206TIP3    H176033   1.125   2.217   2.103 -0.2910 -0.2001  1.0870
18206TIP3    H276034   0.992   2.249   2.037 -0.0271 -2.8863 -0.8063
18207TIP3   OH276035   4.094   4.552   1.500  0.3667 -0.5340  0.0362
18207TIP3    H176036   4.055   4.563   1.586 -0.2608  1.4235 -0.4616
18207TIP3    H276037   4.050   4.477   1.462 -0.3253 -0.5631  0.8972
18208TIP3   OH276038   3.891   4.824   3.709  0.1169  0.4823 -0.2032
18208TIP3    H176039   3.881   4.738   3.669  0.1004  0.1062  0.5858
18208TIP3    H276040   3.981   4.825   3.743  0.3958  1.0994 -0.9501
18209TIP3   OH276041   4.185   0.933   0.460 -0.2555  0.1555 -0.0099
18209TIP3    H176042   4.242   0.873   0.508 -0.8531 -0.2451  0.2100
18209TIP3    H276043   4.227   1.019   0.469  0.0188 -0.0423  0.6080
18210TIP3   OH276044   3.385   4.279   2.140  0.2418  0.1717  0.3764
18210TIP3    H176045   3.367   4.321   2.056  1.2802 -0.1428 -0.0066
18210TIP3    H276046   3.305   4.231   2.160  0.4812 -0.8703 -1.1086
18211TIP3   OH276047   1.787   1.326   0.568  0.1838 -0.8066  0.0008
18211TIP3    H176048   1.836   1.258   0.615  2.9648  0.6292 -0.7387
18211TIP3    H276049   1.839   1.405   0.579 -1.5261  0.5741 -1.6146
18212TIP3   OH276050   2.937   2.379   6.105 -0.0420  0.7462 -0.8626
18212TIP3    H176051   2.897   2.292   6.096  0.0743  0.5892  0.1337
18212TIP3    H276052   3.021   2.362   6.147 -0.1584  1.3783 -0.3817
18213TIP3   OH276053   4.618   1.376   0.053  0.5181 -0.1277 -0.7307
18213TIP3    H176054   4.588   1.462   0.025 -4.7798 -0.9661  1.6965
18213TIP3    H276055   4.588   1.317  -0.016 -1.1072 -0.6794  0.4270
18214TIP3   OH276056   2.201   3.703  13.466 -0.0358 -0.7125 -0.1457
18214TIP3    H176057   2.267   3.634  13.471 -0.3792 -1.2243 -2.1070
18214TIP3    H276058   2.199   3.727  13.373  1.6809  3.5318  0.8092
18215TIP3   OH276059   1.353   3.226   4.413  0.0673  0.1427  0.0948
18215TIP3    H176060   1.295   3.210   4.338  0.3303 -0.8326  0.0860
18215TIP3    H276061   1.406   3.301   4.386 -0.3978  0.3157 -0.3661
18216TIP3   OH276062   5.611   2.007   0.229 -0.2533  0.0937 -0.3645
18216TIP3    H176063   5.516   2.013   0.230 -0.1790  1.0239  0.6667
18216TIP3    H276064   5.641   2.097   0.225  0.6034 -0.1867 -0.2974
18217TIP3   OH276065   2.497   5.869  12.385 -0.4084  0.1478 -0.1574
18217TIP3    H176066   2.571   5.867  12.323 -0.8988 -2.0290 -0.7149
18217TIP3    H276067   2.522   5.808  12.454 -1.4537 -0.2014 -0.0808
18218TIP3   OH276068   5.524   0.803  12.745  0.1731  0.0372 -0.2769
18218TIP3    H176069   5.439   0.766  12.723  0.3130 -0.0169 -0.7352
18218TIP3    H276070   5.565   0.737  12.801  0.5279 -0.6276 -1.3039
18219TIP3   OH276071   1.610   6.786   0.509  0.0184 -0.0411 -0.2735
18219TIP3    H176072   1.611   6.704   0.461  1.9320  2.1475 -4.2551
18219TIP3    H276073   1.703   6.809   0.520 -0.4830  1.7864  0.3571
18220TIP3   OH276074   5.569   0.659   1.108 -0.3211 -0.7904 -0.1403
18220TIP3    H176075   5.640   0.612   1.152  0.3754  0.3576 -0.0393
18220TIP3    H276076   5.491   0.604   1.124 -0.1141 -0.3569  2.6048
18221TIP3   OH276077   6.669   0.475   0.023  0.6288  0.6683  0.7119
18221TIP3    H176078   6.659   0.565  -0.008 -0.4545  0.6011  0.8275
18221TIP3    H276079   6.675   0.423  -0.057  1.1746  0.8350  0.6437
18222TIP3   OH276080   0.940   2.711  14.659 -0.0938 -0.4521 -0.3222
18222TIP3    H176081   0.852   2.681  14.638 -0.1073 -0.5501 -0.1284
18222TIP3    H276082   0.975   2.743  14.576 -0.5664  0.2340 -0.2662
18223TIP3   OH276083   2.161   0.801   3.193 -0.5737  0.0202  0.1027
18223TIP3    H176084   2.197   0.860   3.259 -0.0027  1.4479 -1.4433
18223TIP3    H276085   2.237   0.759   3.153 -0.8300  0.2223 -0.6089
18224TIP3   OH276086   6.059   0.231  15.756  0.1649  0.4057 -0.5232
18224TIP3    H176087   6.031   0.143  15.781 -0.3194  0.1129 -1.9955
18224TIP3    H276088   6.154   0.226  15.749  0.1988  0.1899  0.0904
18225TIP3   OH276089   5.901   0.112  14.163 -0.3413  0.0046 -0.0174
18225TIP3    H176090   5.956   0.134  14.238 -0.5154 -0.1681  0.1625
18225TIP3    H276091   5.830   0.060  14.200 -0.2425 -0.3697 -0.3552
18226TIP3   OH276092   6.659   1.227   4.046  0.6000  0.2306  0.8446
18226TIP3    H176093   6.754   1.224   4.055  0.9127 -0.6712 -2.2797
18226TIP3    H276094   6.639   1.320   4.034  0.7999  0.7002  3.8214
18227TIP3   OH276095   5.076   1.712   1.254  0.4693 -0.8981 -0.1879
18227TIP3    H176096   5.081   1.717   1.350  2.9706  0.3256 -0.3396
18227TIP3    H276097   4.999   1.765   1.232  0.6447 -0.0851  1.0784
18228TIP3   OH276098   6.488   4.739  14.090 -0.0813  0.3154  0.2089
18228TIP3    H176099   6.527   4.700  14.012  0.9030  2.1714 -0.2573
18228TIP3    H276100   6.425   4.802  14.055  1.0435  1.8427  0.8748
18229TIP3   OH276101   4.631   3.001  16.661  0.3477  0.1599 -0.1660
18229TIP3    H176102   4.607   3.087  16.628  0.5752  0.2866 -0.0043
18229TIP3    H276103   4.659   2.952  16.584 -0.5223 -0.0241 -0.3694
18230TIP3   OH276104   2.448   6.687   1.688  0.2728  0.8533  0.0174
18230TIP3    H176105   2.471   6.730   1.605 -0.0223 -0.5109 -0.7768
18230TIP3    H276106   2.356   6.710   1.703 -0.0566  0.0010 -0.7113
18231TIP3   OH276107   0.518   0.993  10.529 -0.1312 -0.3911  0.7022
18231TIP3    H176108   0.564   0.911  10.515  0.3844  0.0431 -0.1632
18231TIP3    H276109   0.566   1.037  10.600  0.9178  0.1491 -0.3285
18232TIP3   OH276110   3.726   4.994   3.532 -0.3120 -0.2833  0.4169
18232TIP3    H176111   3.795   4.951   3.581  0.0854  0.6074  0.6261
18232TIP3    H276112   3.662   5.020   3.598 -0.7295 -0.8585  0.2512
18233TIP3   OH276113   0.248   3.730  16.019  0.1730  0.3364 -0.1038
18233TIP3    H176114   0.273   3.822  16.018  1.9522 -0.1168 -1.4525
18233TIP3    H276115   0.172   3.725  15.961  1.2496  0.6951 -1.6020
18234TIP3   OH276116   0.247   0.670  13.151  0.7913  0.1694  0.2938
18234TIP3    H176117   0.272   0.761  13.133  2.4059  0.0941  2.0036
18234TIP3    H276118   0.330   0.625  13.167  0.0826 -1.8401 -1.4020
18235TIP3   OH276119   5.754   5.550  11.946 -0.4781  0.0539  0.3452
18235TIP3    H176120   5.843   5.548  11.910 -0.3964  1.8637  0.3945
18235TIP3    H276121   5.715   5.467  11.919  0.2992  0.4442 -2.0559
18236TIP3   OH276122   0.113   3.888  11.391  0.2130 -0.1383 -0.4260
18236TIP3    H176123   0.034   3.927  11.428 -0.2194 -1.4136  0.0158
18236TIP3    H276124   0.105   3.904  11.297 -2.5820 -3.6842 -0.9023
18237TIP3   OH276125   0.661   5.772  11.745  0.1265 -0.4143 -0.0115
18237TIP3    H176126   0.711   5.762  11.827  0.0956 -0.7404 -0.0352
18237TIP3    H276127   0.600   5.699  11.745  2.5250 -2.4923 -2.0384
18238TIP3   OH276128   4.021   6.511   1.178  0.1187  0.4317  0.1165
18238TIP3    H176129   3.978   6.439   1.132 -2.0455  0.1438  2.4632
18238TIP3    H276130   3.994   6.589   1.131 -1.4046  0.0838  0.3957
18239TIP3   OH276131   4.318   5.064   4.311 -0.5829  0.3413 -0.5854
18239TIP3    H176132   4.255   5.073   4.239  0.5189  0.3366 -1.5496
18239TIP3    H276133   4.396   5.027   4.270 -1.1867 -3.1643  1.2529
18240TIP3   OH276134   6.643   5.948  12.025  0.1813 -0.2772  0.4383
18240TIP3    H176135   6.700   6.021  12.050 -1.9147  0.9172  1.9501
18240TIP3    H276136   6.678   5.917  11.942  3.3442  0.0545  1.5785
18241TIP3   OH276137   2.068   0.612  12.353 -0.4173 -0.2350  0.1283
18241TIP3    H176138   2.097   0.622  12.262 -3.6024 -0.0873 -0.9303
18241TIP3    H276139   2.149   0.607  12.403  1.4115  0.4733 -2.6264
18242TIP3   OH276140   3.520   2.516  11.800  0.0832 -0.0492  0.2027
18242TIP3    H176141   3.547   2.427  11.822 -1.9344 -0.2760  2.0031
18242TIP3    H276142   3.505   2.514  11.706 -2.1239 -2.3067  0.5249
18243TIP3   OH276143   1.778   0.619   4.891  0.4934 -0.3524  0.0885
18243TIP3    H176144   1.725   0.540   4.877 -0.4336  0.5123 -1.3755
18243TIP3    H276145   1.716   0.683   4.926  0.6850  0.4909 -1.0907
18244TIP3   OH276146   1.721   6.685   3.785  0.0417  0.1029  0.2975
18244TIP3    H176147   1.752   6.739   3.713  0.1487 -0.2544  0.0724
18244TIP3    H276148   1.757   6.598   3.767 -1.2485 -0.3681 -0.0735
18245TIP3   OH276149   0.854   4.912  14.867 -0.0332 -0.3339 -0.4837
18245TIP3    H176150   0.811   4.864  14.938  1.9954  0.5545  1.3970
18245TIP3    H276151   0.815   4.999  14.868 -0.3383 -0.4665 -0.7753
18246TIP3   OH276152   5.907   0.251  14.979 -0.4722 -0.1993  0.1115
18246TIP3    H176153   5.955   0.217  14.904 -0.3377  0.4498 -0.0998
18246TIP3    H276154   5.969   0.308  15.023 -1.1245  0.8527 -0.3126
18247TIP3   OH276155   2.282   5.477  11.853 -0.3459 -0.0354  0.0371
18247TIP3    H176156   2.310   5.385  11.850  2.0616  0.6926 -1.7742
18247TIP3    H276157   2.223   5.486  11.778  0.5966  0.2417 -0.6773
18248TIP3   OH276158   1.672   5.816   4.020 -0.0102 -0.2629 -0.2639
18248TIP3    H176159   1.670   5.725   4.051  0.4241 -0.1632  0.0733
18248TIP3    H276160   1.765   5.832   4.002  0.1184  0.5516  1.0045
18249TIP3   OH276161   1.865   5.852   0.255 -0.1199  0.4740 -0.2666
18249TIP3    H176162   1.868   5.762   0.288  1.1145  0.8245  0.6368
18249TIP3    H276163   1.851   5.906   0.334 -0.3449  1.1073 -0.7347
18250TIP3   OH276164   2.471   4.202   4.633  0.0143 -0.1745  0.0524
18250TIP3    H176165   2.502   4.112   4.626 -0.3209 -0.3718  0.9105
18250TIP3    H276166   2.534   4.245   4.690  1.1678  0.6243 -1.8165
18251TIP3   OH276167   4.508   2.171   5.954 -0.1763 -0.2929 -0.0186
18251TIP3    H176168   4.476   2.122   5.879  0.8501  0.2890 -0.8557
18251TIP3    H276169   4.482   2.119   6.030 -0.5382 -1.2824 -0.8053
18252TIP3   OH276170   4.568   4.473   3.896  0.9775  0.0437  0.1180
18252TIP3    H176171   4.559   4.409   3.967  0.5358 -0.9385 -0.8107
18252TIP3    H276172   4.534   4.428   3.819 -0.0613  1.6782 -0.4005
18253TIP3   OH276173   0.569   1.306  17.104 -0.0402  0.8567 -0.3022
18253TIP3    H176174   0.564   1.321  17.010  0.9674 -1.3272 -0.7356
18253TIP3    H276175   0.640   1.363  17.134  0.8024  0.2621 -1.1549
18254TIP3   OH276176   6.612   5.685   1.817  0.1554  0.3504 -0.0920
18254TIP3    H176177   6.688   5.705   1.871 -0.5841 -0.3621  1.2508
18254TIP3    H276178   6.611   5.589   1.812 -2.1654  0.1667  2.2159
18255TIP3   OH276179   3.213   2.281   4.518 -0.0282  0.2391 -0.4131
18255TIP3    H176180   3.239   2.207   4.464  0.7668  0.3559 -0.2107
18255TIP3    H276181   3.166   2.243   4.591 -0.3184  0.0008 -0.7260
18256TIP3   OH276182   4.563   6.418   4.270 -1.0083  0.1134 -1.0128
18256TIP3    H176183   4.617   6.449   4.343 -2.5164 -0.3703  0.3326
18256TIP3    H276184   4.602   6.459   4.193 -1.3735  3.3038  0.4209
18257TIP3   OH276185   6.470   3.335  15.261  0.4683 -0.1918 -0.2392
18257TIP3    H176186   6.537   3.361  15.198 -0.7662  0.8914 -1.1117
18257TIP3    H276187   6.405   3.405  15.258  0.9196  0.4690  3.0362
18258TIP3   OH276188   5.996   0.537   4.178 -0.5867  0.0457  0.2197
18258TIP3    H176189   6.065   0.471   4.177 -0.2389  0.3932  1.0359
18258TIP3    H276190   5.958   0.533   4.090  0.0132 -0.6267 -0.0138
18259TIP3   OH276191   5.644   5.023   6.301  0.6727 -0.3834  0.2836
18259TIP3    H176192   5.647   5.058   6.390  1.2028  1.9192 -0.5966
18259TIP3    H276193   5.579   5.077   6.256 -0.1473 -2.0174 -0.5493
18260TIP3   OH276194   4.689   0.594  17.096  0.0551  0.5318  0.6604
18260TIP3    H176195   4.741   0.525  17.136 -1.6296 -1.2516 -0.1670
18260TIP3    H276196   4.703   0.584  17.002  1.0895  2.3880  0.5791
18261TIP3   OH276197   3.319   1.682   4.403  0.0451  0.0511 -0.0046
18261TIP3    H176198   3.367   1.691   4.485 -0.6658 -0.7501  0.5005
18261TIP3    H276199   3.249   1.747   4.409 -0.4730 -0.5383  0.3577
18262TIP3   OH276200   0.973   4.121  15.383 -0.0863 -0.0542 -0.1375
18262TIP3    H176201   1.009   4.197  15.428 -0.8591 -0.4517  1.1909
18262TIP3    H276202   0.887   4.150  15.352  1.3406  0.9295 -3.4034
18263TIP3   OH276203   2.491   2.571   5.629 -0.2303 -0.5413 -0.3812
18263TIP3    H176204   2.556   2.594   5.695 -1.0651 -0.8160  0.5528
18263TIP3    H276205   2.503   2.637   5.561  0.6079 -0.2183  0.0613
18264TIP3   OH276206   5.170   0.826  10.572 -0.4092 -0.3703 -0.4199
18264TIP3    H176207   5.222   0.771  10.514  1.2457  0.0781  0.5849
18264TIP3    H276208   5.113   0.765  10.620 -0.2700 -0.9516 -0.9975
18265TIP3   OH276209   6.775   4.401  14.177 -0.1258 -0.2855  0.1867
18265TIP3    H176210   6.710   4.335  14.154  0.7919 -1.8516  1.9554
18265TIP3    H276211   6.851   4.380  14.122 -0.5363  0.5876 -0.7400
18266TIP3   OH276212   0.928   0.181   4.459 -0.0195 -0.0985  0.1771
18266TIP3    H176213   0.923   0.214   4.369  0.7840 -0.0257  0.1547
18266TIP3    H276214   0.914   0.258   4.514  3.9714  0.7439  0.1534
18267TIP3   OH276215   1.247   4.478  14.547  0.0717  0.2519 -0.5264
18267TIP3    H176216   1.257   4.568  14.579  1.2997  0.5234 -1.6628
18267TIP3    H276217   1.325   4.461  14.495  0.0333 -1.6123 -0.0359
18268TIP3   OH276218   0.433   3.370   2.686 -0.4084  0.3202  0.1092
18268TIP3    H176219   0.404   3.381   2.777  1.5014  2.8035  0.4509
18268TIP3    H276220   0.360   3.324   2.644 -0.8605 -1.8461  3.1351
18269TIP3   OH276221   0.106   2.981  15.496  0.0440  0.5719  0.3732
18269TIP3    H176222   0.185   3.026  15.464  0.5579 -0.1132  0.6578
18269TIP3    H276223   0.098   3.008  15.587  0.7718 -0.4759  0.7557
18270TIP3   OH276224   6.470   0.648  12.293 -0.2296 -0.1505 -0.2179
18270TIP3    H176225   6.380   0.675  12.310 -0.2014  0.7085 -1.3742
18270TIP3    H276226   6.467   0.609  12.206  0.2229 -1.5715  0.3866
18271TIP3   OH276227   0.557   1.658  15.336 -0.3589  0.1630 -0.1843
18271TIP3    H176228   0.633   1.709  15.366 -0.5565 -0.8482  2.1205
18271TIP3    H276229   0.493   1.667  15.407 -2.2856  0.7487 -1.9730
18272TIP3   OH276230   1.136   5.468   6.294  0.5174 -0.1905  0.5779
18272TIP3    H176231   1.210   5.497   6.241  1.0089 -0.0266  1.3479
18272TIP3    H276232   1.127   5.534   6.363 -0.8300  0.1903  0.0470
18273TIP3   OH276233   4.890   5.057   0.530 -0.1386 -0.3826 -0.1968
18273TIP3    H176234   4.945   5.093   0.461 -0.2437  1.8115  0.7996
18273TIP3    H276235   4.802   5.054   0.493  0.1270 -0.9728 -0.7730
18274TIP3   OH276236   3.812   5.433   2.163 -0.2973 -0.6701 -0.1019
18274TIP3    H176237   3.826   5.352   2.115  0.8198 -0.0536 -0.8434
18274TIP3    H276238   3.898   5.474   2.166 -1.0720  1.0378 -0.7323
18275TIP3   OH276239   3.782   2.762  17.181  0.0140 -0.0062 -0.1577
18275TIP3    H176240   3.801   2.843  17.135  1.3732 -0.7201 -0.8462
18275TIP3    H276241   3.783   2.787  17.274  1.8910  0.4670 -0.2919
18276TIP3   OH276242   4.423   3.094   5.382  0.4865 -0.5426 -0.2070
18276TIP3    H176243   4.328   3.094   5.381  0.3993  2.6965 -3.6998
18276TIP3    H276244   4.446   3.151   5.455 -0.2866 -0.0261 -0.3665
18277TIP3   OH276245   2.934   0.116  15.284 -0.3001  0.4464 -0.2901
18277TIP3    H176246   2.995   0.121  15.358 -0.8539  0.8952  0.1371
18277TIP3    H276247   2.979   0.061  15.220  0.1718  0.0312  0.3920
18278TIP3   OH276248   3.377   0.028   2.947 -0.8818 -0.1215 -0.1651
18278TIP3    H176249   3.352   0.022   3.039 -0.2891  0.1733  0.0141
18278TIP3    H276250   3.432  -0.049   2.932 -1.7543 -0.6911 -0.5247
18279TIP3   OH276251   3.322   3.943  13.611 -0.2443 -0.3190  0.1640
18279TIP3    H176252   3.345   3.854  13.638  0.9485  0.1458  0.7341
18279TIP3    H276253   3.281   3.981  13.689  0.7351  0.1408  0.4750
18280TIP3   OH276254   1.350   6.757  17.210 -0.0822 -0.3416  0.3057
18280TIP3    H176255   1.306   6.677  17.180  2.5348 -1.7175  0.0365
18280TIP3    H276256   1.335   6.820  17.139 -1.4917 -0.8273  0.1565
18281TIP3   OH276257   5.293   1.750   0.251 -0.0831  0.4932 -0.0170
18281TIP3    H176258   5.283   1.814   0.322  1.8008  2.6414 -1.6326
18281TIP3    H276259   5.372   1.701   0.274 -0.0183  0.5347 -0.1525
18282TIP3   OH276260   1.339   6.506  16.276  0.3333 -0.4214 -0.3682
18282TIP3    H176261   1.249   6.533  16.297  1.2289  1.1460  1.6255
18282TIP3    H276262   1.335   6.480  16.184 -2.2542 -0.7813 -0.1917
18283TIP3   OH276263   2.840   6.055   2.845  0.3899 -0.0103  0.0429
18283TIP3    H176264   2.841   6.111   2.767  0.5435 -2.1525 -1.5272
18283TIP3    H276265   2.897   6.100   2.907 -1.4457  2.8458 -0.2661
18284TIP3   OH276266   5.927   4.122  11.722 -0.3950 -0.2478 -0.5612
18284TIP3    H176267   5.886   4.120  11.636  0.3879 -0.4907 -0.9372
18284TIP3    H276268   5.992   4.052  11.719  0.5446  0.5938 -0.2342
18285TIP3   OH276269   3.400   0.174  16.051 -0.1696  0.3565 -0.2788
18285TIP3    H176270   3.317   0.162  16.097  0.8459  0.1571  1.5532
18285TIP3    H276271   3.446   0.091  16.062  1.0292  1.0844  0.3276
18286TIP3   OH276272   2.551   0.058  16.181 -0.0328  0.2394 -0.1361
18286TIP3    H176273   2.496  -0.020  16.180  0.5900 -0.2205  0.4734
18286TIP3    H276274   2.635   0.029  16.145  0.1255  0.6958 -0.1500
18287TIP3   OH276275   1.674   2.723   2.965  0.3369 -0.1795  0.6545
18287TIP3    H176276   1.664   2.759   3.053  1.2359 -2.2620  1.6493
18287TIP3    H276277   1.636   2.789   2.907  0.4396  1.5683  2.5366
18288TIP3   OH276278   1.792   2.488   2.482 -0.8591 -0.0011  0.5746
18288TIP3    H176279   1.813   2.478   2.575 -0.6585 -0.4128  0.4824
18288TIP3    H276280   1.696   2.489   2.480 -0.8656  1.6472  0.9652
18289TIP3   OH276281   1.931   1.735   1.467 -0.5252  0.2689  0.6109
18289TIP3    H176282   1.934   1.656   1.522  1.3865  0.0604  0.2538
18289TIP3    H276283   2.022   1.763   1.462 -1.3824  3.5482  2.1869
18290TIP3   OH276284   6.661   0.290   0.672  0.0197 -0.3213  0.0403
18290TIP3    H176285   6.684   0.259   0.585 -0.4515  0.0149 -0.2089
18290TIP3    H276286   6.679   0.384   0.669  0.8742 -0.4587  0.5977
18291TIP3   OH276287   3.721   2.538  14.111 -0.2039  0.2449  0.4049
18291TIP3    H176288   3.635   2.572  14.085 -0.9844 -2.2709 -0.4924
18291TIP3    H276289   3.710   2.514  14.203  0.0451  1.4443  0.7545
18292TIP3   OH276290   0.766   1.903  15.689 -0.3535  0.0653 -0.1042
18292TIP3    H176291   0.819   1.879  15.764  1.8660 -0.0943 -1.6624
18292TIP3    H276292   0.702   1.833  15.680 -2.3182  1.3486  3.1119
18293TIP3   OH276293   3.032   6.531   3.297  0.1232  0.1261 -0.3831
18293TIP3    H176294   3.101   6.506   3.235 -1.4025 -1.3250 -1.5469
18293TIP3    H276295   2.963   6.567   3.242 -0.2093  1.1862  0.7343
18294TIP3   OH276296   3.342   1.151  14.041 -0.1790  0.6964  0.1525
18294TIP3    H176297   3.356   1.184  13.952 -0.7499 -0.8141 -0.5050
18294TIP3    H276298   3.374   1.222  14.097  1.0912  1.2676 -1.2457
18295TIP3   OH276299   0.552   5.445   3.281  0.6690 -0.6042 -0.5506
18295TIP3    H176300   0.526   5.536   3.268  0.7475 -0.6134 -0.7703
18295TIP3    H276301   0.473   5.395   3.264  1.2319 -0.7585 -2.9032
18296TIP3   OH276302   3.166   1.049  14.249  0.1735 -0.1023  0.0649
18296TIP3    H176303   3.156   0.956  14.230 -0.3481  0.2472 -1.3716
18296TIP3    H276304   3.226   1.081  14.182  1.3510  0.3596  1.3011
18297TIP3   OH276305   5.267   1.208   1.285 -0.0275  0.6447  0.4724
18297TIP3    H176306   5.246   1.124   1.326 -0.2088  0.6525  0.3941
18297TIP3    H276307   5.362   1.216   1.295  0.0912  0.0778 -0.1911
18298TIP3   OH276308   6.634   4.473  11.673 -0.7488 -0.2881  0.3085
18298TIP3    H176309   6.543   4.496  11.655 -0.9758  0.4952  2.3560
18298TIP3    H276310   6.674   4.554  11.705  0.4548 -0.8273  0.1953
18299TIP3   OH276311   6.447   6.162  14.473 -0.4868 -0.3367 -0.1064
18299TIP3    H176312   6.434   6.069  14.459 -0.3205 -0.1738 -1.3785
18299TIP3    H276313   6.428   6.202  14.388 -2.2350  0.9547  0.8556
18300TIP3   OH276314   0.729   1.740   3.794 -0.4919 -0.2782 -0.2887
18300TIP3    H176315   0.763   1.790   3.868  0.1053 -2.4714  0.9632
18300TIP3    H276316   0.655   1.691   3.829 -0.5461 -0.9249 -1.2763
18301TIP3   OH276317   5.340   3.126   5.682 -0.2202 -0.0672  0.0465
18301TIP3    H176318   5.400   3.083   5.742 -1.1757  1.6571  2.3187
18301TIP3    H276319   5.253   3.104   5.715 -0.7452  1.7171 -0.0746
18302TIP3   OH276320   0.100   3.397   5.206  0.2547  0.0486 -0.3055
18302TIP3    H176321   0.147   3.479   5.218  0.5322 -0.0613 -0.6381
18302TIP3    H276322   0.168   3.332   5.187 -0.0290 -0.1002 -0.8481
18303TIP3   OH276323   1.445   0.898  16.225 -0.4517 -0.1546  0.1710
18303TIP3    H176324   1.409   0.980  16.260 -0.6334  1.0159 -2.6123
18303TIP3    H276325   1.537   0.900  16.251 -0.8597  0.0829  1.6286
18304TIP3   OH276326   2.914   5.229   2.942  0.7052  0.1011  0.0781
18304TIP3    H176327   2.969   5.304   2.964  2.4522 -0.2188 -2.8836
18304TIP3    H276328   2.958   5.189   2.867 -2.4871 -1.4041 -1.0530
18305TIP3   OH276329   1.658   3.252  11.474  0.1489 -0.0949  1.0929
18305TIP3    H176330   1.713   3.308  11.420  1.0926 -0.2816  1.8509
18305TIP3    H276331   1.712   3.175  11.493 -1.6552 -2.0158 -1.2304
18306TIP3   OH276332   5.916   1.507  15.827 -0.0374  0.0644  0.1141
18306TIP3    H176333   5.873   1.577  15.776  0.0983  0.2706  0.2852
18306TIP3    H276334   5.950   1.448  15.760 -2.8064 -1.4590 -0.0313
18307TIP3   OH276335   3.004   1.223  13.188  0.0729  0.4372  0.3185
18307TIP3    H176336   2.978   1.132  13.178 -0.0155  0.5705 -0.7374
18307TIP3    H276337   2.962   1.251  13.270 -0.0694 -0.4021  0.5356
18308TIP3   OH276338   2.418   5.098   3.613  0.2386 -0.1317  0.3148
18308TIP3    H176339   2.390   5.162   3.678  0.4325 -0.0533  0.3218
18308TIP3    H276340   2.386   5.134   3.530 -0.6201 -0.5873  0.4512
18309TIP3   OH276341   4.824   6.062  14.388 -0.5283 -0.2833 -0.1380
18309TIP3    H176342   4.768   6.043  14.313  1.3443 -1.2748 -1.3300
18309TIP3    H276343   4.765   6.057  14.464 -1.6851 -3.2494 -1.1540
18310TIP3   OH276344   3.068   2.345  11.225  0.2112 -0.3353 -0.1256
18310TIP3    H176345   2.980   2.306  11.229 -0.4515  0.9661 -1.2916
18310TIP3    H276346   3.086   2.353  11.131  1.6844 -0.8009  0.1065
18311TIP3   OH276347   5.010   1.803  15.674 -0.0031 -0.5157 -0.5965
18311TIP3    H176348   4.969   1.881  15.637 -0.5609  0.5997  2.2411
18311TIP3    H276349   5.103   1.822  15.676 -0.2020  0.4006  0.7290
18312TIP3   OH276350   5.934   2.319   2.034 -0.5540  0.2421  0.1393
18312TIP3    H176351   5.854   2.324   2.085 -0.6304 -2.0915  0.3162
18312TIP3    H276352   5.982   2.399   2.055 -2.2205  1.0008  1.0710
18313TIP3   OH276353   0.031   3.968  15.843 -0.2316 -0.2425  0.3110
18313TIP3    H176354   0.093   3.983  15.771  0.1317 -1.1717  0.4170
18313TIP3    H276355  -0.029   3.902  15.808  0.1332 -0.9266  0.9690
18314TIP3   OH276356   1.039   5.829   3.074  0.0808 -0.0397 -0.3405
18314TIP3    H176357   1.054   5.776   2.995  0.7048 -1.0524  0.4461
18314TIP3    H276358   0.950   5.806   3.102  0.0714 -0.1105 -0.4276
18315TIP3   OH276359   4.800   4.737   2.160 -0.0769 -0.0514 -0.1228
18315TIP3    H176360   4.812   4.653   2.204 -0.1943  0.0124  0.0293
18315TIP3    H276361   4.755   4.792   2.224  0.2388  0.2132 -0.1241
18316TIP3   OH276362   5.117   2.832  16.990  0.0955 -0.9018  0.1432
18316TIP3    H176363   5.124   2.923  16.961 -0.1836 -0.7002  0.7073
18316TIP3    H276364   5.190   2.787  16.947 -1.2103 -0.9256 -2.1068
18317TIP3   OH276365   5.683   4.662  13.032  0.2551  0.7113  0.0075
18317TIP3    H176366   5.752   4.625  13.088 -1.6214 -0.7329  1.4378
18317TIP3    H276367   5.603   4.654  13.085 -0.8957  3.0491 -1.3120
18318TIP3   OH276368   0.287   4.916  13.569  0.1191  0.0409 -0.0209
18318TIP3    H176369   0.303   4.984  13.504 -0.1041  0.9433  0.8611
18318TIP3    H276370   0.192   4.901  13.564  0.4357 -1.7266 -1.6893
18319TIP3   OH276371   4.564   6.766   2.065  0.0427 -0.6605 -0.8918
18319TIP3    H176372   4.646   6.781   2.112 -0.0159 -0.8781 -0.7194
18319TIP3    H276373   4.504   6.833   2.099  1.4293  2.4737 -4.2314
18320TIP3   OH276374   0.712   6.355   3.332  0.5297  0.6052 -0.1085
18320TIP3    H176375   0.647   6.350   3.402  0.1254 -0.6226 -0.5624
18320TIP3    H276376   0.776   6.419   3.364  0.6207 -0.3001  1.6008
18321TIP3   OH276377   5.474   2.430   5.200  0.4721 -0.3639 -0.2538
18321TIP3    H176378   5.441   2.476   5.123 -1.1285 -1.3888 -0.2046
18321TIP3    H276379   5.568   2.421   5.184  0.3026  0.2187 -1.6580
18322TIP3   OH276380   5.641   6.727   4.539 -0.0770 -0.1463  0.3888
18322TIP3    H176381   5.575   6.664   4.568 -0.3472  0.2823  0.7075
18322TIP3    H276382   5.704   6.731   4.611 -0.1328  0.0532  0.4257
18323TIP3   OH276383   1.538   0.503   4.094 -0.5523  0.1791 -1.3353
18323TIP3    H176384   1.619   0.507   4.043  0.2065  2.9885 -0.0527
18323TIP3    H276385   1.548   0.427   4.151  0.6545 -0.1955 -2.0349
18324TIP3   OH276386   1.091   6.440   0.248 -0.1838 -0.3648  0.0467
18324TIP3    H176387   1.181   6.458   0.220 -0.3377 -0.2980 -0.4047
18324TIP3    H276388   1.084   6.484   0.333 -0.1850  0.7488 -0.5115
18325TIP3   OH276389   2.507   2.614  11.140 -0.7166  0.1350 -0.2083
18325TIP3    H176390   2.558   2.588  11.216 -0.0855  1.4764 -0.1618
18325TIP3    H276391   2.565   2.601  11.066 -1.2850 -1.0406 -0.4642
18326TIP3   OH276392   0.799   2.644   1.288 -0.5453 -0.1622  0.1469
18326TIP3    H176393   0.811   2.642   1.383  1.0983 -1.0838 -0.0701
18326TIP3    H276394   0.815   2.735   1.264 -0.0905 -0.1083  0.6451
18327TIP3   OH276395   4.791   1.038   2.049 -0.7290 -0.2097 -0.3437
18327TIP3    H176396   4.761   0.991   1.971 -1.2394  0.4202 -0.5341
18327TIP3    H276397   4.782   1.130   2.026  2.5509  0.0170 -0.8577
18328TIP3   OH276398   3.332   3.071  12.543 -0.3584  0.3641  0.7202
18328TIP3    H176399   3.340   3.153  12.592  0.6085 -0.1708  1.4676
18328TIP3    H276400   3.238   3.050  12.547 -0.5959  1.3808  0.5992
18329TIP3   OH276401   6.387   3.287  10.652  0.0219  0.0645  0.0947
18329TIP3    H176402   6.436   3.266  10.731 -0.8886 -1.0485  0.3745
18329TIP3    H276403   6.333   3.363  10.676  0.8000  0.6204  0.1034
18330TIP3   OH276404   2.579   1.039  14.310  0.6758 -0.0691 -0.1011
18330TIP3    H176405   2.506   1.075  14.260 -0.2989 -2.0582 -0.1619
18330TIP3    H276406   2.637   1.114  14.326 -0.7885  1.2942 -1.0683
18331TIP3   OH276407   4.560   5.297   2.554 -0.3253 -0.0321 -0.0812
18331TIP3    H176408   4.572   5.370   2.494  1.5898 -0.7984 -0.6549
18331TIP3    H276409   4.529   5.225   2.499  0.5277 -0.4649  0.0015
18332TIP3   OH276410   5.881   6.674  11.626  0.0889  0.0921  0.1027
18332TIP3    H176411   5.837   6.755  11.601 -1.6157 -0.5484  0.9191
18332TIP3    H276412   5.950   6.663  11.562 -0.1902  1.7688 -0.5012
18333TIP3   OH276413   4.514   4.847  11.791 -0.1662 -0.3698  0.1479
18333TIP3    H176414   4.530   4.921  11.732  3.1432 -0.8442  0.3321
18333TIP3    H276415   4.549   4.772  11.743 -3.1640 -1.7902  0.1279
18334TIP3   OH276416   6.622   2.458   3.209  0.6826  0.3625 -0.4822
18334TIP3    H176417   6.585   2.519   3.146 -0.9192 -1.4582 -1.3655
18334TIP3    H276418   6.598   2.371   3.176  1.5883 -0.7015  1.5293
18335TIP3   OH276419   6.780   4.826  12.307 -0.6675 -0.1301  0.1483
18335TIP3    H176420   6.820   4.739  12.312  0.8875  0.6826  4.6714
18335TIP3    H276421   6.688   4.808  12.291 -0.0733 -2.4882 -1.0223
18336TIP3   OH276422   5.482   0.887  12.452 -0.2957 -0.2064  0.1110
18336TIP3    H176423   5.574   0.897  12.428 -0.1626 -0.8462  0.3501
18336TIP3    H276424   5.483   0.877  12.547 -0.8051  2.0804  0.3802
18337TIP3   OH276425   0.474   5.380  13.179  0.0095 -0.9133  0.7964
18337TIP3    H176426   0.386   5.408  13.153 -0.9370 -2.5652  2.1220
18337TIP3    H276427   0.515   5.459  13.215 -0.3619  0.2305 -1.2178
18338TIP3   OH276428   3.293   3.611   6.208  0.1514  0.1577  0.0709
18338TIP3    H176429   3.269   3.519   6.208  0.7232  0.0112  1.0507
18338TIP3    H276430   3.374   3.615   6.156 -0.5557  0.2987 -1.0531
18339TIP3   OH276431   1.277   5.108   4.732  0.7089  0.2944  0.3729
18339TIP3    H176432   1.225   5.141   4.659 -0.4870  1.7714  1.8575
18339TIP3    H276433   1.310   5.023   4.702 -1.7380 -0.2198 -0.9709
18340TIP3   OH276434   4.848   2.768  14.647 -0.2100  0.1356 -0.4733
18340TIP3    H176435   4.802   2.852  14.654  0.4958  0.6631 -1.9426
18340TIP3    H276436   4.940   2.791  14.638  0.3339 -0.9170  2.0814
18341TIP3   OH276437   2.901   5.064   3.738  0.1625  0.5052 -0.5064
18341TIP3    H176438   2.887   5.120   3.662 -2.2014  0.5617 -0.0823
18341TIP3    H276439   2.851   4.985   3.719  3.9576 -1.7841 -1.3612
18342TIP3   OH276440   2.130   4.129   1.629  0.2797  0.3465  0.2676
18342TIP3    H176441   2.088   4.209   1.600 -0.0347 -0.0199 -0.2843
18342TIP3    H276442   2.066   4.088   1.688  0.0824  0.0649 -0.1395
18343TIP3   OH276443   2.558   0.975  13.856 -0.2532 -0.2896  1.0007
18343TIP3    H176444   2.483   0.949  13.802  0.4801  0.3550 -0.3757
18343TIP3    H276445   2.539   0.938  13.942 -1.3268 -1.6091  0.2420
18344TIP3   OH276446   4.665   4.908  15.454  0.0109  0.0008 -0.3038
18344TIP3    H176447   4.704   4.828  15.417 -0.0077 -0.8638  1.5087
18344TIP3    H276448   4.739   4.952  15.497 -0.3722  0.0088  0.3369
18345TIP3   OH276449   6.660   4.068   3.122 -0.2924 -0.0014  0.2845
18345TIP3    H176450   6.722   4.097   3.055 -0.0310 -1.1247  0.0225
18345TIP3    H276451   6.610   3.998   3.080  0.2331 -1.0885  1.4176
18346TIP3   OH276452   0.201   3.448   6.044 -0.1467  0.0502 -0.0308
18346TIP3    H176453   0.117   3.432   6.001  0.2173  1.3427 -1.2705
18346TIP3    H276454   0.179   3.456   6.137 -0.8102 -3.7022  0.2125
18347TIP3   OH276455   6.027   0.789   3.687 -0.2479 -0.2753 -0.7656
18347TIP3    H176456   6.004   0.870   3.641 -0.8138  0.1232  0.1804
18347TIP3    H276457   6.106   0.811   3.736 -0.4813 -0.2370 -0.3965
18348TIP3   OH276458   1.421   0.113  11.056  0.1295 -0.2439 -0.4220
18348TIP3    H176459   1.504   0.080  11.021  0.1743  0.2261 -0.7570
18348TIP3    H276460   1.361   0.112  10.982 -1.0679 -3.5356  0.4923
18349TIP3   OH276461   2.171   1.171   0.257 -0.4753 -0.4374 -0.2097
18349TIP3    H176462   2.187   1.092   0.205 -0.4103  0.0140 -0.8850
18349TIP3    H276463   2.256   1.214   0.263  0.1895 -2.0977  2.9873
18350TIP3   OH276464   2.378   0.182  15.814  0.0136 -0.1449  0.0922
18350TIP3    H176465   2.366   0.274  15.838  0.8043  0.1580 -0.6529
18350TIP3    H276466   2.330   0.133  15.881 -1.2747  0.8442 -0.0939
18351TIP3   OH276467   5.800   6.468  16.580  0.4495  0.2719  0.4480
18351TIP3    H176468   5.771   6.381  16.608 -0.3235  0.6045  0.6982
18351TIP3    H276469   5.727   6.526  16.602  0.4598  0.7902 -0.8317
18352TIP3   OH276470   2.471   0.600  16.779  0.5985 -0.2955 -0.2767
18352TIP3    H176471   2.502   0.595  16.869  0.1082 -1.7900 -0.1748
18352TIP3    H276472   2.377   0.612  16.786  0.6074 -0.0483 -0.5825
18353TIP3   OH276473   1.386   6.036   5.326  0.2329  0.0770  0.4190
18353TIP3    H176474   1.425   5.951   5.344 -1.1602 -0.4213  1.1654
18353TIP3    H276475   1.348   6.027   5.238 -1.6841 -0.7499  1.3108
18354TIP3   OH276476   2.794   0.167   0.151 -0.3195 -0.0902 -0.2890
18354TIP3    H176477   2.824   0.256   0.172 -0.2391 -0.2472  0.2585
18354TIP3    H276478   2.828   0.151   0.063  0.0219  0.2613 -0.2235
18355TIP3   OH276479   1.413   0.358  13.448  0.2148 -0.2794  0.3360
18355TIP3    H176480   1.371   0.410  13.380  0.8835  1.0165  0.8908
18355TIP3    H276481   1.394   0.267  13.425 -0.7050  0.2000 -0.8202
18356TIP3   OH276482   0.460   2.437  11.048  0.1232  0.2906 -0.0844
18356TIP3    H176483   0.509   2.512  11.016 -1.5172  0.9238 -1.1582
18356TIP3    H276484   0.373   2.446  11.010 -0.2695 -1.8637  0.2061
18357TIP3   OH276485   0.132   2.615   1.760  0.0049  0.4363  0.1786
18357TIP3    H176486   0.203   2.635   1.822  0.5005 -0.9480  0.0908
18357TIP3    H276487   0.056   2.660   1.795  1.2936  3.4831 -0.6846
18358TIP3   OH276488   6.571   5.143  14.940 -0.0439 -0.4925 -0.0458
18358TIP3    H176489   6.480   5.118  14.954 -0.1355  0.3111  0.8016
18358TIP3    H276490   6.594   5.102  14.857 -1.2429 -0.5103 -0.3775
18359TIP3   OH276491   2.241   3.947   0.108  0.1989  0.0822  0.3839
18359TIP3    H176492   2.292   3.937   0.028  0.7722 -1.1293  0.8786
18359TIP3    H276493   2.258   3.866   0.157 -2.0825 -0.2951  0.6302
18360TIP3   OH276494   6.160   4.084  13.073  0.4061  0.0754  0.7176
18360TIP3    H176495   6.164   4.036  13.156 -2.6252 -0.2068  0.7798
18360TIP3    H276496   6.235   4.052  13.023  1.7734 -0.4233  2.9793
18361TIP3   OH276497   5.715   1.380   1.751  0.0125 -0.5009 -0.2536
18361TIP3    H176498   5.696   1.338   1.835 -2.8268 -0.4969 -0.8710
18361TIP3    H276499   5.676   1.467   1.758  0.5532 -0.1749 -1.2588
18362TIP3   OH276500   5.449   5.708  13.150 -0.0551  0.3997 -0.0578
18362TIP3    H176501   5.529   5.743  13.190  2.3135 -1.3202 -3.0985
18362TIP3    H276502   5.412   5.783  13.103  0.8281  0.7130 -0.2700
18363TIP3   OH276503   5.465   1.567   4.131  0.4154 -0.1242 -0.1189
18363TIP3    H176504   5.402   1.496   4.150 -0.0062  0.3821  0.4038
18363TIP3    H276505   5.549   1.532   4.160  0.2599 -0.5190 -0.1274
18364TIP3   OH276506   5.638   4.112  16.410 -0.1570 -0.1598  0.1526
18364TIP3    H176507   5.564   4.079  16.461  1.0864 -1.2274  1.3240
18364TIP3    H276508   5.675   4.033  16.368 -0.1453  0.4673 -1.0439
18365TIP3   OH276509   1.194   5.566   2.448 -0.1852  0.1067  0.1360
18365TIP3    H176510   1.241   5.514   2.384 -2.3707  0.4373 -1.7936
18365TIP3    H276511   1.189   5.511   2.526  1.3779 -0.7930 -0.3869
18366TIP3   OH276512   5.049   1.870  11.252  0.0111 -0.2842 -0.2459
18366TIP3    H176513   5.141   1.848  11.268  0.4460  0.9966 -0.8871
18366TIP3    H276514   5.024   1.817  11.176  0.5245  0.1231 -0.7024
18367TIP3   OH276515   6.073   2.396   5.829 -0.1256 -0.1427  0.0705
18367TIP3    H176516   6.164   2.370   5.840 -0.2719  0.3509  2.7087
18367TIP3    H276517   6.074   2.491   5.827 -0.5595 -0.1385 -0.1725
18368TIP3   OH276518   3.238   4.106   5.979  0.0263  0.1113  0.0573
18368TIP3    H176519   3.190   4.114   5.897  0.0736  0.2887  0.0470
18368TIP3    H276520   3.289   4.025   5.970 -0.6548 -0.3412  0.2662
18369TIP3   OH276521   5.630   0.632  15.501 -0.1336  0.0736 -0.2616
18369TIP3    H176522   5.557   0.638  15.563  0.2988 -1.0608  0.3716
18369TIP3    H276523   5.706   0.662  15.550 -0.1703  1.2929 -0.9334
18370TIP3   OH276524   2.259   6.252  16.987  0.1777 -0.2843 -0.3790
18370TIP3    H176525   2.289   6.198  17.060  1.1342 -0.6059 -0.9987
18370TIP3    H276526   2.197   6.196  16.940 -0.5823 -0.0094  0.2807
18371TIP3   OH276527   5.224   2.218   2.617 -0.6592 -0.5088  0.1894
18371TIP3    H176528   5.233   2.280   2.545  0.2635 -1.8308 -0.8742
18371TIP3    H276529   5.176   2.265   2.684 -1.0713  0.9310 -1.0918
18372TIP3   OH276530   3.291   1.163   5.561 -0.1322  0.0391 -0.5249
18372TIP3    H176531   3.197   1.147   5.550 -0.1220  0.1722 -0.8023
18372TIP3    H276532   3.331   1.079   5.537 -0.1847 -0.0407 -0.3342
18373TIP3   OH276533   4.257   1.173  13.285  0.0875 -0.3268  1.0360
18373TIP3    H176534   4.218   1.086  13.292 -0.2252 -0.1163  2.0227
18373TIP3    H276535   4.294   1.189  13.371 -0.5249  0.8309  1.0889
18374TIP3   OH276536   5.613   5.116  13.674  0.0531 -0.1252 -0.4733
18374TIP3    H176537   5.623   5.038  13.620  0.9401 -0.5245  0.2774
18374TIP3    H276538   5.689   5.116  13.732 -1.2990 -0.1558  1.3597
18375TIP3   OH276539   4.335   2.466  14.336  0.1983  0.0401 -0.1085
18375TIP3    H176540   4.337   2.494  14.428  0.4950  2.4393 -0.8079
18375TIP3    H276541   4.245   2.482  14.308 -0.5287 -2.8944  0.3696
18376TIP3   OH276542   5.365   2.973  13.221  0.0364 -0.6431  0.0607
18376TIP3    H176543   5.364   2.910  13.293 -1.4650 -1.3112 -0.5365
18376TIP3    H276544   5.376   2.920  13.142 -1.4165 -0.1812 -0.4610
18377TIP3   OH276545   0.370   1.782  16.916  0.3120 -0.0861  0.1872
18377TIP3    H176546   0.313   1.708  16.890  0.4214 -0.4376  0.9473
18377TIP3    H276547   0.427   1.746  16.984 -1.6075  1.4658  2.7033
18378TIP3   OH276548   6.382   4.618  11.629  0.4340 -0.3981 -0.0042
18378TIP3    H176549   6.387   4.656  11.542  2.1072 -0.9736 -0.1795
18378TIP3    H276550   6.316   4.548  11.621 -1.0891  1.0342 -0.2023
18379TIP3   OH276551   0.081   6.326   2.105 -0.4898 -0.0223  0.0029
18379TIP3    H176552   0.077   6.422   2.111  0.1019 -0.0578  1.1451
18379TIP3    H276553   0.168   6.303   2.136 -0.9121 -0.9798  0.5312
18380TIP3   OH276554   0.504   5.052  16.195  0.0539 -0.0592 -0.6466
18380TIP3    H176555   0.580   4.994  16.194 -1.4729 -2.1191 -0.0801
18380TIP3    H276556   0.446   5.016  16.262 -1.8866  0.8796 -1.7595
18381TIP3   OH276557   5.661   4.683  16.708  0.0263 -0.4859  0.3278
18381TIP3    H176558   5.718   4.721  16.775 -0.6985 -1.1784  1.3420
18381TIP3    H276559   5.572   4.702  16.738 -0.3057  0.7525 -1.3402
18382TIP3   OH276560   2.707   4.729  14.232 -0.1019  0.0908 -0.0759
18382TIP3    H176561   2.725   4.786  14.306 -1.5736 -0.1178  0.4570
18382TIP3    H276562   2.691   4.789  14.159  0.3920  0.3065 -0.0132
18383TIP3   OH276563   1.121   6.656   3.232  0.0234 -0.6893 -0.2638
18383TIP3    H176564   1.127   6.702   3.148  0.2600  0.3261  0.2886
18383TIP3    H276565   1.196   6.597   3.233  0.7872  0.2665 -0.2087
18384TIP3   OH276566   0.495   0.350   4.470 -0.4879 -0.8846 -0.0931
18384TIP3    H176567   0.487   0.411   4.543 -0.0651 -0.2721 -0.5518
18384TIP3    H276568   0.523   0.267   4.510  1.5481 -0.0648  0.2327
18385TIP3   OH276569   5.561   5.867   3.904  0.0080  0.2448  0.2795
18385TIP3    H176570   5.546   5.821   3.986 -0.8402  0.0693  0.0395
18385TIP3    H276571   5.630   5.930   3.923  0.7255 -0.6887  0.7822
18386TIP3   OH276572   4.653   1.932  16.337 -0.1840 -0.1788  0.8610
18386TIP3    H176573   4.616   1.920  16.425  1.9111 -0.2628  1.7643
18386TIP3    H276574   4.711   1.857  16.326  1.3166  1.0399  0.3327
18387TIP3   OH276575   2.406   2.984   2.500  0.0027  0.6706  0.1157
18387TIP3    H176576   2.410   3.006   2.593  1.3610  0.3662  0.1341
18387TIP3    H276577   2.391   3.067   2.456  3.6221  1.5022  0.2941
18388TIP3   OH276578   2.400   1.842  15.200 -0.2475  0.2307 -0.0607
18388TIP3    H176579   2.345   1.856  15.277  0.8738 -0.8397  0.9525
18388TIP3    H276580   2.461   1.916  15.201  0.0844 -0.0432  0.3767
18389TIP3   OH276581   4.018   0.819  11.358 -0.5561  0.2511  0.0777
18389TIP3    H176582   4.055   0.758  11.294 -1.9661  1.2337 -1.7307
18389TIP3    H276583   4.032   0.776  11.443  2.8619 -0.3013 -0.6934
18390TIP3   OH276584   5.955   4.246  16.274  0.8934  0.2629 -0.1067
18390TIP3    H176585   5.939   4.310  16.204  1.0493  0.6977  0.2505
18390TIP3    H276586   5.915   4.285  16.351 -1.0050 -1.1167 -0.3611
18391TIP3   OH276587   1.388   2.362   4.574  0.3102  0.3793 -0.7378
18391TIP3    H176588   1.307   2.373   4.624  0.4499 -0.8791 -0.2161
18391TIP3    H276589   1.378   2.420   4.499 -1.0026  0.3810 -0.5709
18392TIP3   OH276590   1.548   6.665  16.403  0.3141 -0.2016  0.2747
18392TIP3    H176591   1.513   6.694  16.487  1.9524 -1.0783  1.2890
18392TIP3    H276592   1.477   6.614  16.364 -0.4604  0.2150  1.1117
18393TIP3   OH276593   2.792   0.632   4.257  0.3848 -0.1154  0.1147
18393TIP3    H176594   2.830   0.545   4.266  2.4768  0.6904 -0.6432
18393TIP3    H276595   2.860   0.684   4.215 -2.0587  1.0434 -2.6036
18394TIP3   OH276596   3.246   2.636   4.669 -0.4421 -0.7838 -0.4378
18394TIP3    H176597   3.266   2.558   4.721 -1.4856 -0.2839  0.7213
18394TIP3    H276598   3.259   2.607   4.578  2.8861 -1.2237  0.1110
18395TIP3   OH276599   0.533   0.337  11.440 -0.5870  0.2122 -0.1054
18395TIP3    H176600   0.583   0.282  11.499 -0.5933  1.2651  0.9069
18395TIP3    H276601   0.594   0.406  11.413 -0.1294 -1.0895 -2.5380
18396TIP3   OH276602   5.912   6.494   0.018 -0.6005  0.1887  0.2837
18396TIP3    H176603   5.887   6.401   0.015  0.4928 -0.1888  1.7948
18396TIP3    H276604   5.910   6.522  -0.073 -2.0429 -1.0189 -0.0832
18397TIP3   OH276605   2.587   1.636  12.097 -0.2662 -0.1043 -0.4379
18397TIP3    H176606   2.606   1.616  12.005  0.6540  0.3082 -0.3448
18397TIP3    H276607   2.596   1.552  12.143 -0.1933 -0.2039 -0.6364
18398TIP3   OH276608   5.910   3.132   1.292  0.4667 -0.3470 -0.2008
18398TIP3    H176609   5.826   3.133   1.336  0.4689  2.1562 -0.2126
18398TIP3    H276610   5.890   3.151   1.200  1.0329  0.0901 -0.2358
18399TIP3   OH276611   2.836   3.523  12.342  0.0653  0.0658 -0.1566
18399TIP3    H176612   2.781   3.547  12.417  1.5599 -0.0685  1.0229
18399TIP3    H276613   2.833   3.428  12.339  1.4928 -0.0238  0.9083
18400TIP3   OH276614   3.990   3.531   2.189  0.3059 -0.3648  0.6051
18400TIP3    H176615   3.896   3.513   2.186  0.4109 -0.9286  0.7309
18400TIP3    H276616   4.025   3.487   2.112  0.4584 -0.0916  0.5183
18401TIP3   OH276617   3.378   3.626   3.072  0.5424  0.5693 -0.0502
18401TIP3    H176618   3.413   3.611   3.160 -1.2740  1.2308  0.8170
18401TIP3    H276619   3.367   3.539   3.035 -2.0212  0.0747  1.7531
18402TIP3   OH276620   0.088   4.074  15.551  0.2196 -0.1615 -0.1561
18402TIP3    H176621   0.020   4.012  15.525  0.8237 -0.6429 -0.5915
18402TIP3    H276622   0.165   4.049  15.500  0.5373  0.7948 -0.1617
18403TIP3   OH276623   3.547   0.441   0.032 -0.4243  0.1447  0.4247
18403TIP3    H176624   3.597   0.391   0.096  1.0825  2.3340  1.0037
18403TIP3    H276625   3.533   0.527   0.073 -0.1304  1.3164 -1.8058
18404TIP3   OH276626   4.012   5.655   4.738  0.3689  0.6584  0.6229
18404TIP3    H176627   3.930   5.636   4.784  0.3560 -0.7022  0.0636
18404TIP3    H276628   4.077   5.602   4.784  0.7727  1.0354  0.4877
18405TIP3   OH276629   4.013   2.191   0.221 -0.1215 -0.0891 -0.2111
18405TIP3    H176630   3.997   2.271   0.270 -0.6636  1.2828 -2.5396
18405TIP3    H276631   3.932   2.141   0.227 -0.1201 -0.0078  0.4346
18406TIP3   OH276632   0.405   5.596   6.579 -0.2735 -0.0879 -0.5781
18406TIP3    H176633   0.432   5.676   6.624 -0.8819  0.0800 -0.5099
18406TIP3    H276634   0.446   5.525   6.629 -1.7146  0.0409  0.8138
18407TIP3   OH276635   6.785   0.303   1.236 -0.6954  0.0557  0.1163
18407TIP3    H176636   6.698   0.335   1.263 -1.2199 -1.2777  0.0616
18407TIP3    H276637   6.794   0.333   1.145  0.0590  2.5007  0.9614
18408TIP3   OH276638   4.899   1.961  17.057  0.0586  0.5777  0.1944
18408TIP3    H176639   4.876   2.013  16.979  0.5005 -0.3563 -0.5604
18408TIP3    H276640   4.927   1.876  17.022  5.4350  1.8314  0.9422
18409TIP3   OH276641   3.926   4.437  13.553  0.2018  0.4574  0.5871
18409TIP3    H176642   3.950   4.415  13.642  0.2282  0.8251  0.6701
18409TIP3    H276643   4.000   4.487  13.519  2.2134 -3.5061 -1.1455
18410TIP3   OH276644   3.490   6.389  16.280 -0.4349  0.3524  0.4615
18410TIP3    H176645   3.486   6.336  16.360 -0.7227  0.7279  0.7001
18410TIP3    H276646   3.536   6.334  16.217 -1.2422 -0.4139  0.5261
18411TIP3   OH276647   1.369   3.408   2.399  0.0096 -0.8275 -0.0353
18411TIP3    H176648   1.442   3.347   2.407  0.5296 -0.7472 -3.4216
18411TIP3    H276649   1.409   3.492   2.375 -0.9586  0.0692  1.3647
18412TIP3   OH276650   6.771   2.869   2.334 -0.9769  0.6162 -0.5608
18412TIP3    H176651   6.676   2.868   2.338 -1.0196 -0.8044 -1.7731
18412TIP3    H276652   6.799   2.849   2.424 -1.8067  0.4211 -0.3417
18413TIP3   OH276653   1.919   2.755  15.041  0.2187  0.3900 -0.5770
18413TIP3    H176654   1.945   2.720  14.956  0.3933  0.8650 -0.7231
18413TIP3    H276655   1.990   2.815  15.065 -0.0641  0.6277 -0.3218
18414TIP3   OH276656   0.182   0.371   5.849 -0.3554  0.1512 -0.4034
18414TIP3    H176657   0.178   0.367   5.754  0.7561  1.1496 -0.5001
18414TIP3    H276658   0.099   0.412   5.875 -2.4549 -3.6795 -0.6638
18415TIP3   OH276659   5.845   4.355   2.998  0.0863 -0.0414  0.1103
18415TIP3    H176660   5.798   4.438   2.992 -0.1665 -0.1247  0.9059
18415TIP3    H276661   5.937   4.379   2.999 -0.0273  0.4274  3.1819
18416TIP3   OH276662   5.051   1.190  16.242  0.4424  0.2809 -0.6926
18416TIP3    H176663   4.995   1.121  16.276  1.2859 -0.2205 -0.2925
18416TIP3    H276664   4.991   1.253  16.202 -0.3633 -0.4407 -0.6309
18417TIP3   OH276665   5.531   4.278   6.438  0.5998  0.1440  0.0670
18417TIP3    H176666   5.508   4.226   6.361  0.9667  1.1581 -0.7356
18417TIP3    H276667   5.616   4.317   6.417  0.9589 -0.0070  1.2068
18418TIP3   OH276668   5.091   0.393   6.471 -0.3375 -0.3087  0.2021
18418TIP3    H176669   5.177   0.426   6.499 -1.2382  1.5117  0.9359
18418TIP3    H276670   5.111   0.323   6.409  1.6764 -1.3358  1.9745
18419TIP3   OH276671   1.828   4.090  14.473  0.0656  0.5475  0.6300
18419TIP3    H176672   1.865   4.055  14.554  1.5726  2.5743  0.8681
18419TIP3    H276673   1.873   4.174  14.461 -2.0512  1.4962 -0.9004
18420TIP3   OH276674   6.412   6.626  12.605  0.4688  0.1824 -0.2711
18420TIP3    H176675   6.395   6.622  12.699  1.3288 -0.2026 -0.1303
18420TIP3    H276676   6.327   6.606  12.565  0.1319  0.2148  0.4243
18421TIP3   OH276677   4.445   3.178   5.655  0.3691 -0.3611 -0.4433
18421TIP3    H176678   4.370   3.237   5.661  0.4044 -0.1561 -1.8531
18421TIP3    H276679   4.449   3.135   5.741 -2.6829 -1.9858 -1.0606
18422TIP3   OH276680   6.402   3.193   6.910  0.3027  0.0697 -0.1125
18422TIP3    H176681   6.322   3.145   6.931 -0.1392  1.0374  0.4263
18422TIP3    H276682   6.454   3.130   6.859 -0.3411 -0.9171  0.4175
18423TIP3   OH276683   2.429   2.474   0.579 -0.0911 -0.4201 -0.0265
18423TIP3    H176684   2.456   2.429   0.499 -0.9341 -1.1617  0.0956
18423TIP3    H276685   2.476   2.429   0.649 -1.0595 -1.2087  0.1114
18424TIP3   OH276686   5.774   1.379   2.549  0.1614 -0.1783  0.4654
18424TIP3    H176687   5.741   1.295   2.583  0.0051  0.2284  1.3393
18424TIP3    H276688   5.853   1.355   2.500  0.3668 -0.8033  1.0822
18425TIP3   OH276689   1.088   4.353  13.445 -0.3152 -0.0861  0.4214
18425TIP3    H176690   1.032   4.294  13.395 -1.6878  0.7213  0.9571
18425TIP3    H276691   1.123   4.299  13.515 -0.6284 -0.5477  0.2271
18426TIP3   OH276692   5.405   5.935   2.582 -0.4124 -0.1275  0.6003
18426TIP3    H176693   5.386   5.940   2.676 -0.5849 -1.3410  0.6406
18426TIP3    H276694   5.442   5.847   2.570 -2.4320 -0.8167 -0.8146
18427TIP3   OH276695   1.675   0.040  10.955 -0.6775  0.5175 -0.1523
18427TIP3    H176696   1.676   0.111  10.890 -1.9827  0.7431  0.0495
18427TIP3    H276697   1.732   0.072  11.025  0.3443  0.4857 -0.9505
18428TIP3   OH276698   3.326   5.111  14.472 -0.1189 -0.2256  0.3747
18428TIP3    H176699   3.270   5.050  14.519 -0.4206  0.8883  1.4790
18428TIP3    H276700   3.378   5.154  14.540 -0.8006  1.6445 -0.2616
18429TIP3   OH276701   4.903   1.265  14.430 -0.3443  0.1535  0.2884
18429TIP3    H176702   4.845   1.222  14.368  0.5123  0.0575 -0.4611
18429TIP3    H276703   4.845   1.308  14.493 -1.2428  1.2598 -1.2709
18430TIP3   OH276704   0.743   0.441  11.321 -0.0006  0.6608 -0.2824
18430TIP3    H176705   0.826   0.488  11.308  0.1209  0.2291 -1.1712
18430TIP3    H276706   0.770   0.350  11.338 -0.3205  0.1184 -2.4962
18431TIP3   OH276707   0.958   4.972  15.580  0.0601 -0.0882 -0.0834
18431TIP3    H176708   0.970   5.027  15.503  1.3725 -1.2478 -0.7281
18431TIP3    H276709   0.863   4.962  15.588 -0.0632 -0.8631 -2.2114
18432TIP3   OH276710   5.969   6.003   0.369 -0.0132  0.6948 -0.0362
18432TIP3    H176711   5.888   6.021   0.322 -0.7464  0.0341  0.9423
18432TIP3    H276712   6.034   5.989   0.301 -0.8393  0.7013 -0.8353
18433TIP3   OH276713   5.969   1.724  10.938 -0.2185 -0.0618 -0.0918
18433TIP3    H176714   5.915   1.803  10.933 -2.0599 -1.3596 -1.5147
18433TIP3    H276715   5.964   1.686  10.850  2.1914 -0.7791  0.0426
18434TIP3   OH276716   1.257   5.244  11.541 -0.5314 -0.0511  0.4533
18434TIP3    H176717   1.215   5.320  11.502  1.2075 -0.6400 -2.8039
18434TIP3    H276718   1.210   5.169  11.505  0.1533 -0.5725  0.6265
18435TIP3   OH276719   1.903   1.568  16.351 -0.3151  0.1930  0.3797
18435TIP3    H176720   1.911   1.636  16.284  2.3576 -1.4325 -1.0178
18435TIP3    H276721   1.980   1.579  16.407 -0.0957 -1.3269  0.4177
18436TIP3   OH276722   0.047   4.943  14.606 -0.0191 -0.4400  0.2605
18436TIP3    H176723   0.132   4.932  14.649  1.4595 -1.9402 -2.8669
18436TIP3    H276724   0.004   4.858  14.615 -0.0341 -0.5169 -0.4711
18437TIP3   OH276725   2.924   2.994  16.405 -0.3729  0.3128  0.0391
18437TIP3    H176726   2.961   2.914  16.369  0.2249 -0.3639  2.1274
18437TIP3    H276727   2.835   2.969  16.430 -0.3281  0.4291  0.3046
18438TIP3   OH276728   3.229   3.549   3.812  0.2368 -0.7330  0.0641
18438TIP3    H176729   3.256   3.550   3.904 -0.1259 -3.1806  0.2304
18438TIP3    H276730   3.151   3.604   3.810  0.9351  0.3407  0.9631
18439TIP3   OH276731   5.887   0.672  15.709  0.3881  0.5515  0.2366
18439TIP3    H176732   5.853   0.668  15.798 -1.3997  0.1323 -0.4331
18439TIP3    H276733   5.939   0.752  15.706  2.3156 -0.5748  2.2575
18440TIP3   OH276734   3.864   1.008  16.287 -0.1952  0.1071  0.3136
18440TIP3    H176735   3.821   0.988  16.369 -1.2884  1.5966  0.1199
18440TIP3    H276736   3.796   1.049  16.233  0.5455 -0.6886 -1.2625
18441TIP3   OH276737   1.152   4.401  12.257 -0.1369  0.1434  0.2490
18441TIP3    H176738   1.147   4.494  12.236 -1.3662  0.6727  2.6914
18441TIP3    H276739   1.121   4.357  12.178  0.5771  1.7852 -0.9825
18442TIP3   OH276740   3.821   1.594  13.151 -0.3262 -0.3357  0.4936
18442TIP3    H176741   3.728   1.577  13.168 -0.8899  0.4952 -1.5960
18442TIP3    H276742   3.824   1.687  13.128  0.7784 -0.7081 -0.9326
18443TIP3   OH276743   1.559   2.406   0.257  0.5614 -0.0750  0.7415
18443TIP3    H176744   1.649   2.409   0.223  0.5838  2.4659  0.8667
18443TIP3    H276745   1.528   2.318   0.237  1.6983  0.2778 -2.9421
18444TIP3   OH276746   0.380   1.044   4.470  0.3968  0.3371  0.5629
18444TIP3    H176747   0.343   0.984   4.406  1.8382  0.2152 -0.1591
18444TIP3    H276748   0.328   1.124   4.460  0.7527  0.3951 -0.9106
18445TIP3   OH276749   6.057   0.222   5.080 -0.9388 -0.4373  0.1233
18445TIP3    H176750   6.087   0.298   5.030  1.2736 -0.7452  0.9545
18445TIP3    H276751   6.078   0.242   5.171  0.5170 -2.4249  0.2503
18446TIP3   OH276752   3.788   4.623   2.131 -0.1321  0.1518 -0.4046
18446TIP3    H176753   3.808   4.709   2.096 -0.2681  0.2707 -0.1961
18446TIP3    H276754   3.856   4.566   2.097 -0.7139  0.1019 -1.5067
18447TIP3   OH276755   0.426   2.569   0.249 -0.2415 -0.2530 -0.4949
18447TIP3    H176756   0.386   2.620   0.319 -0.7616 -0.4377 -0.6579
18447TIP3    H276757   0.400   2.614   0.169 -0.5219 -0.6518 -0.6273
18448TIP3   OH276758   5.413   0.854  13.040 -0.0839 -0.0888 -0.4368
18448TIP3    H176759   5.381   0.909  12.968  0.2329  0.3143 -0.2766
18448TIP3    H276760   5.508   0.862  13.035 -0.0959  1.8847  1.4939
18449TIP3   OH276761   2.589   4.809  11.228  0.0518 -0.5374  0.4448
18449TIP3    H176762   2.578   4.804  11.323 -0.0422 -1.2160  0.4015
18449TIP3    H276763   2.664   4.868  11.216  0.4596 -0.9436  0.9623
18450TIP3   OH276764   6.177   6.328  17.225 -0.6152  0.1495  0.2579
18450TIP3    H176765   6.171   6.414  17.184  0.7248  0.0245 -0.2295
18450TIP3    H276766   6.137   6.340  17.311 -1.5137  0.9513 -0.2627
18451TIP3   OH276767   1.369   6.154   3.382  0.0997  0.1560 -0.3203
18451TIP3    H176768   1.310   6.224   3.410  0.4994  0.8259 -1.1247
18451TIP3    H276769   1.457   6.187   3.405  0.4108  0.5984 -2.1151
18452TIP3   OH276770   6.342   2.126  13.488  0.7768 -0.2723  0.0657
18452TIP3    H176771   6.403   2.200  13.493 -2.3004  2.2321  2.9957
18452TIP3    H276772   6.305   2.131  13.400  3.1748 -0.5015 -0.9852
18453TIP3   OH276773   0.551   0.802  16.074  0.2320 -0.9746 -0.0019
18453TIP3    H176774   0.551   0.885  16.121  1.4949 -1.3894  0.7471
18453TIP3    H276775   0.574   0.825  15.984 -0.4131 -0.3953 -0.0208
18454TIP3   OH276776   2.240   3.559  16.690 -0.2964  0.5117 -0.3942
18454TIP3    H176777   2.200   3.644  16.706  1.6798  1.2794  0.6202
18454TIP3    H276778   2.192   3.499  16.748 -1.0192  1.1057 -0.3670
18455TIP3   OH276779   2.562   0.493   3.883  0.0835  0.6526  0.6602
18455TIP3    H176780   2.595   0.404   3.899  1.2689  1.3233  2.0001
18455TIP3    H276781   2.467   0.485   3.890  0.1109 -0.6982 -0.2278
18456TIP3   OH276782   4.934   0.657   1.925 -1.4209  0.3971  0.6575
18456TIP3    H176783   4.989   0.722   1.969 -0.1988 -0.2713  0.1497
18456TIP3    H276784   4.893   0.608   1.996  1.7845 -1.7449  1.1694
18457TIP3   OH276785   2.590   6.131   2.432 -0.0308 -0.1694 -0.0432
18457TIP3    H176786   2.607   6.038   2.446 -1.6347 -0.6268 -0.9647
18457TIP3    H276787   2.644   6.175   2.497  1.4519 -1.6971 -0.1905
18458TIP3   OH276788   4.393   0.982   0.800 -0.5611 -0.1958  0.0680
18458TIP3    H176789   4.411   0.896   0.762 -0.0219  0.5854 -1.4993
18458TIP3    H276790   4.475   1.030   0.792 -0.6511  0.2321  1.6014
18459TIP3   OH276791   1.110   2.536   2.970 -0.2592  0.1952 -0.4969
18459TIP3    H176792   1.142   2.606   3.028 -3.9049 -0.0100  1.9842
18459TIP3    H276793   1.118   2.573   2.882  0.1452  2.8376  0.5813
18460TIP3   OH276794   0.591   5.320   2.891 -0.2029  0.0331  0.2020
18460TIP3    H176795   0.613   5.413   2.898  0.3552 -0.0309 -0.6437
18460TIP3    H276796   0.617   5.296   2.802  0.0105 -1.0202  0.5432
18461TIP3   OH276797   0.654   2.126   6.625  0.0973 -0.2672 -0.3200
18461TIP3    H176798   0.575   2.074   6.610 -0.2425  0.1952 -0.1486
18461TIP3    H276799   0.626   2.217   6.614  0.1878  0.0003  1.5651
18462TIP3   OH276800   5.188   3.693   5.287 -0.2824 -0.2927 -0.6304
18462TIP3    H176801   5.173   3.632   5.216  1.6918  0.5503 -1.8094
18462TIP3    H276802   5.175   3.642   5.367  0.6179 -2.0519 -1.5959
18463TIP3   OH276803   0.529   2.649  16.995  0.2211 -0.3990  0.1207
18463TIP3    H176804   0.592   2.622  17.063 -1.0611  0.3006  1.6204
18463TIP3    H276805   0.504   2.738  17.019 -3.2216 -1.5241  1.0281
18464TIP3   OH276806   1.986   1.504  11.429  0.3676 -0.0372 -0.3902
18464TIP3    H176807   2.025   1.541  11.507 -0.7018  0.1984  0.0398
18464TIP3    H276808   1.964   1.414  11.453 -0.8949  0.3372 -0.0720
18465TIP3   OH276809   0.864   5.226   0.406 -0.1937  0.1808  0.6583
18465TIP3    H176810   0.785   5.227   0.460 -0.6189 -1.8736  0.1137
18465TIP3    H276811   0.924   5.168   0.452  0.4878  0.6131  0.3318
18466TIP3   OH276812   4.890   1.873   0.127 -0.0852 -0.3572  0.1425
18466TIP3    H176813   4.866   1.815   0.055  0.4504 -0.6669  0.2162
18466TIP3    H276814   4.888   1.961   0.089 -0.0163 -0.5005 -0.1888
18467TIP3   OH276815   4.040   5.843  13.386  0.4677 -0.3186 -0.1346
18467TIP3    H176816   4.100   5.822  13.458 -1.9128 -0.3426  1.9045
18467TIP3    H276817   4.056   5.774  13.321  3.2658  0.2047 -0.0712
18468TIP3   OH276818   0.403   1.620  11.814 -0.5968  0.1046  0.0631
18468TIP3    H176819   0.403   1.568  11.895  0.5239  0.1249  0.0799
18468TIP3    H276820   0.347   1.695  11.834  0.2756  0.5007  1.0726
18469TIP3   OH276821   5.767   0.055  15.154 -0.4827  0.0281  0.4615
18469TIP3    H176822   5.782   0.114  15.080 -1.1735  0.8255  0.9443
18469TIP3    H276823   5.831   0.081  15.219 -0.5009 -0.0444  0.5082
18470TIP3   OH276824   4.417   6.341  15.933  0.3776  0.0669 -0.2940
18470TIP3    H176825   4.401   6.344  15.838  3.3526  1.8000 -0.8067
18470TIP3    H276826   4.513   6.337  15.941  0.1070 -3.2066  2.6275
18471TIP3   OH276827   2.728   6.156  14.738  0.3382  0.4878 -0.1566
18471TIP3    H176828   2.795   6.139  14.672  0.4299  0.4748 -0.0601
18471TIP3    H276829   2.673   6.224  14.700  0.2413  0.3004 -0.3520
18472TIP3   OH276830   1.466   0.326   1.986 -0.1623  0.0265  0.4706
18472TIP3    H176831   1.379   0.333   2.024  0.4723  1.1197  1.7864
18472TIP3    H276832   1.518   0.282   2.053 -0.0797 -2.1763 -0.9900
18473TIP3   OH276833   0.323   3.657  12.244 -0.0756  0.2012 -0.7226
18473TIP3    H176834   0.309   3.663  12.338  1.6929  0.2477 -0.4474
18473TIP3    H276835   0.281   3.575  12.219 -1.5928  0.7644 -0.1203
18474TIP3   OH276836   5.897   1.456  11.873  0.4416  0.4451  0.1184
18474TIP3    H176837   5.893   1.415  11.959  0.6664 -2.7510 -1.3110
18474TIP3    H276838   5.990   1.451  11.849  0.2145  0.3404 -0.7548
18475TIP3   OH276839   1.207   4.842  11.784  0.1366 -0.6780 -0.0031
18475TIP3    H176840   1.292   4.802  11.770  1.2384  2.0002 -1.3814
18475TIP3    H276841   1.147   4.769  11.794  2.0564 -2.6573 -2.3637
18476TIP3   OH276842   1.909   6.276  13.943  0.2198 -0.6665  0.4424
18476TIP3    H176843   1.831   6.324  13.915  0.4609 -0.1744  0.6033
18476TIP3    H276844   1.875   6.195  13.981 -0.1106 -1.4531 -1.4456
18477TIP3   OH276845   3.333   3.960   3.391  0.0223  0.6972 -0.0388
18477TIP3    H176846   3.354   3.947   3.483 -0.8241 -4.0963 -0.4012
18477TIP3    H276847   3.418   3.973   3.349  0.6762  0.0270  1.0466
18478TIP3   OH276848   5.919   5.273  12.261 -0.5371 -0.0153  0.0137
18478TIP3    H176849   5.959   5.359  12.248  0.3070  0.0782  2.7330
18478TIP3    H276850   5.987   5.211  12.236 -0.9739  0.0908 -1.4786
18479TIP3   OH276851   3.328   1.099  11.897 -0.5559 -0.0884 -0.1917
18479TIP3    H176852   3.354   1.054  11.978 -1.3826  0.3970  0.3516
18479TIP3    H276853   3.233   1.089  11.894 -0.4994 -0.3378 -1.2579
18480TIP3   OH276854   1.504   4.767   5.574  0.0858 -0.0036 -0.4558
18480TIP3    H176855   1.565   4.760   5.647  0.6233  1.6904 -0.7397
18480TIP3    H276856   1.516   4.685   5.525  1.4272 -0.0880  0.0098
18481TIP3   OH276857   3.602   3.967   3.263  0.7135  0.2743  0.2085
18481TIP3    H176858   3.646   4.010   3.336  3.6333  0.2932 -1.4631
18481TIP3    H276859   3.642   3.880   3.258  0.4391  0.2115 -1.2098
18482TIP3   OH276860   2.202   1.358   0.633 -0.1919 -0.7068 -0.0695
18482TIP3    H176861   2.286   1.312   0.632  0.2201  0.0106  0.6050
18482TIP3    H276862   2.137   1.288   0.637  0.4310 -1.2344  1.2562
18483TIP3   OH276863   0.314   2.464   1.940  0.0919  0.4843 -0.0224
18483TIP3    H176864   0.256   2.507   2.004 -1.3074 -0.5871 -0.5439
18483TIP3    H276865   0.254   2.422   1.879  1.4188  1.4982 -2.0671
18484TIP3   OH276866   1.095   4.470   0.759 -0.4951  0.1406  0.2575
18484TIP3    H176867   1.144   4.490   0.839  0.2656 -0.7948  0.0410
18484TIP3    H276868   1.004   4.465   0.788 -0.4561  1.7361  0.6968
18485TIP3   OH276869   5.081   4.659  15.053 -0.8525 -0.6093 -0.1521
18485TIP3    H176870   5.000   4.631  15.096 -0.2809  0.4344  1.6607
18485TIP3    H276871   5.067   4.751  15.031 -0.3822 -0.5915 -0.3893
18486TIP3   OH276872   5.231   5.934   3.697  0.2166 -0.0213 -0.3094
18486TIP3    H176873   5.211   5.890   3.780  1.8252  2.0236  1.2352
18486TIP3    H276874   5.301   5.882   3.658 -0.1497 -0.6688 -0.1049
18487TIP3   OH276875   2.678   5.447   2.035  1.1929 -0.1123  0.7898
18487TIP3    H176876   2.633   5.385   2.092 -2.6039 -0.5017 -2.3764
18487TIP3    H276877   2.659   5.532   2.072 -0.9764 -0.3838  0.4120
18488TIP3   OH276878   6.076   4.314   0.421 -0.0765 -0.4180 -0.0345
18488TIP3    H176879   6.161   4.353   0.439  0.0716 -0.5404 -0.4603
18488TIP3    H276880   6.018   4.388   0.405  0.0247 -0.3447 -0.0619
18489TIP3   OH276881   3.264   2.957   2.571 -0.0226 -0.2487 -0.0879
18489TIP3    H176882   3.265   3.037   2.518  0.2708 -0.3679 -0.2635
18489TIP3    H276883   3.194   2.903   2.532  0.2024 -0.3418 -0.3635
18490TIP3   OH276884   4.458   4.457  14.974 -0.4160 -0.2050 -0.2714
18490TIP3    H176885   4.541   4.475  15.018  0.3523 -2.3994 -0.7355
18490TIP3    H276886   4.402   4.421  15.042 -1.8315  3.3992  0.5770
18491TIP3   OH276887   3.566   0.326   2.500 -0.1709  0.0090  0.3260
18491TIP3    H176888   3.542   0.417   2.521  0.1171 -0.1132  1.2151
18491TIP3    H276889   3.572   0.283   2.586 -3.1740 -1.6025 -0.2059
18492TIP3   OH276890   4.098   4.829   0.005 -0.1025 -0.1624 -0.4021
18492TIP3    H176891   4.072   4.766  -0.061 -1.4358 -0.6037  0.5197
18492TIP3    H276892   4.126   4.776   0.080 -1.6065  0.3231  0.5213
18493TIP3   OH276893   0.846   2.032   3.832  0.4921  0.8820  0.4224
18493TIP3    H176894   0.851   2.127   3.824 -0.1580  0.8603 -0.2472
18493TIP3    H276895   0.778   2.005   3.770  0.1043  0.0555  1.1806
18494TIP3   OH276896   2.857   1.797  16.996 -0.1188 -0.3007 -0.1607
18494TIP3    H176897   2.832   1.705  16.990 -0.1338 -0.1573 -3.2348
18494TIP3    H276898   2.780   1.841  17.033 -0.4284 -1.3892  0.4996
18495TIP3   OH276899   6.380   2.431  14.993  0.2916  0.5170 -0.2711
18495TIP3    H176900   6.447   2.398  14.933  0.9357 -0.1209  0.7869
18495TIP3    H276901   6.297   2.400  14.956  0.7829 -1.1454 -0.0238
18496TIP3   OH276902   3.446   6.426  11.549  0.1120 -0.1236  0.0490
18496TIP3    H176903   3.354   6.402  11.541  0.0227 -0.1822  1.1657
18496TIP3    H276904   3.445   6.508  11.598  0.8069 -1.6762  2.7307
18497TIP3   OH276905   3.828   3.314  13.146  0.2162  0.5196 -0.0247
18497TIP3    H176906   3.833   3.385  13.081  0.5980  0.4950 -0.0185
18497TIP3    H276907   3.735   3.309  13.168 -0.0945 -0.2793 -1.4676
18498TIP3   OH276908   6.145   2.612   1.428  0.4702 -0.4426 -0.5335
18498TIP3    H176909   6.124   2.667   1.504  0.7699  0.2867 -0.9748
18498TIP3    H276910   6.096   2.531   1.443  1.6750 -0.8828  1.1709
18499TIP3   OH276911   0.394   2.360  13.170  0.4189  0.1306  0.1355
18499TIP3    H176912   0.322   2.388  13.114 -0.5725  1.3536  1.9650
18499TIP3    H276913   0.373   2.269  13.193 -0.4691  0.4370  0.5371
18500TIP3   OH276914   1.373   4.754   2.248 -0.1289  0.0803  0.1117
18500TIP3    H176915   1.294   4.701   2.252  0.4986 -1.0034 -1.3509
18500TIP3    H276916   1.348   4.831   2.197  0.1914 -1.1270 -1.9533
18501TIP3   OH276917   3.666   6.258   1.113  0.3578 -0.5060 -0.1474
18501TIP3    H176918   3.581   6.279   1.073  0.7323  1.3306 -0.0192
18501TIP3    H276919   3.644   6.219   1.198 -0.3866 -2.0074 -1.0085
18502TIP3   OH276920   0.617   1.213  15.004 -1.0852  0.4140 -0.0152
18502TIP3    H176921   0.603   1.281  15.069 -1.2437 -1.2893  1.7898
18502TIP3    H276922   0.606   1.131  15.053 -1.2326 -0.8993 -2.1933
18503TIP3   OH276923   2.813   2.951  14.322 -0.2282  0.4566  0.0014
18503TIP3    H176924   2.857   2.980  14.402  0.7588 -1.0860  0.0335
18503TIP3    H276925   2.720   2.947  14.345 -0.1996  2.0159  0.4521
18504TIP3   OH276926   0.488   1.022  14.858 -0.5911  0.1902  0.0891
18504TIP3    H176927   0.511   1.006  14.766  2.0797  0.2366  0.7087
18504TIP3    H276928   0.540   1.099  14.882 -0.6501 -0.3139  1.8713
18505TIP3   OH276929   0.008   2.540   4.874 -0.4165 -0.1088  0.1783
18505TIP3    H176930   0.029   2.555   4.966  0.2591 -0.6765  0.1219
18505TIP3    H276931  -0.074   2.490   4.876 -1.8974  2.2577  0.3971
18506TIP3   OH276932   2.713   1.625   5.202 -0.0796  0.3484 -0.7716
18506TIP3    H176933   2.713   1.668   5.288 -0.9702  1.0913 -1.1347
18506TIP3    H276934   2.623   1.594   5.191 -0.0794  0.6299 -1.6183
18507TIP3   OH276935   0.016   4.019   1.869  0.7067  0.0778 -0.1057
18507TIP3    H176936  -0.001   3.999   1.777  0.7828 -0.0062 -0.1010
18507TIP3    H276937  -0.071   4.028   1.908  0.6592 -1.2051  0.1078
18508TIP3   OH276938   5.155   3.377  15.545  0.0257 -0.4552  0.0301
18508TIP3    H176939   5.140   3.378  15.451  0.7925 -0.0021 -0.0910
18508TIP3    H276940   5.114   3.295  15.575 -1.2808 -0.0093 -0.5024
18509TIP3   OH276941   5.439   5.320   5.127 -0.3064 -0.6689 -0.5926
18509TIP3    H176942   5.440   5.288   5.217  1.2665 -1.3001 -0.8075
18509TIP3    H276943   5.518   5.375   5.121 -0.7983 -0.0377 -1.3784
18510TIP3   OH276944   6.246   2.881  11.368  0.0714  0.2435 -0.4216
18510TIP3    H176945   6.161   2.894  11.411  0.2473 -0.3576  0.1175
18510TIP3    H276946   6.242   2.791  11.335 -0.3477  0.9452 -2.3135
18511TIP3   OH276947   5.445   2.939  13.641  0.0400 -0.2736 -0.5438
18511TIP3    H176948   5.448   2.892  13.558  1.0490 -0.2769 -0.5180
18511TIP3    H276949   5.519   2.903  13.691 -0.7060 -0.4645  0.4579
18512TIP3   OH276950   0.861   1.357   0.902  0.1473  0.2840  0.2437
18512TIP3    H176951   0.925   1.296   0.937 -1.1243 -1.8192 -0.9912
18512TIP3    H276952   0.906   1.401   0.829  1.1030  0.9455  1.2242
18513TIP3   OH276953   4.910   5.923  16.357  0.1006 -0.2341 -0.3318
18513TIP3    H176954   4.816   5.912  16.342  0.4006 -0.1380 -2.3896
18513TIP3    H276955   4.943   5.963  16.277  1.7880  0.4423  0.6742
18514TIP3   OH276956   5.119   3.042   3.132 -0.0382 -0.2024  0.2672
18514TIP3    H176957   5.082   2.980   3.070 -1.2719 -1.0655  1.8050
18514TIP3    H276958   5.176   3.098   3.080 -0.7288 -1.1516 -1.5495
18515TIP3   OH276959   0.124   2.130  16.123  0.1366 -0.4052  0.0125
18515TIP3    H176960   0.035   2.106  16.099 -0.7480  1.1337  1.6656
18515TIP3    H276961   0.142   2.210  16.073  0.0774  0.0785  0.7686
18516TIP3   OH276962   1.792   5.564   3.745  0.1167  0.2258 -0.5849
18516TIP3    H176963   1.844   5.643   3.756  0.9770 -0.1475 -1.8042
18516TIP3    H276964   1.848   5.507   3.692 -0.5738 -1.1151  0.1193
18517TIP3   OH276965   3.493   1.699  13.727 -0.1057 -0.9080  0.1679
18517TIP3    H176966   3.556   1.638  13.765 -1.2452 -3.1196 -1.4300
18517TIP3    H276967   3.530   1.720  13.641  0.9269  1.7142  1.1892
18518TIP3   OH276968   4.047   5.003  12.355  0.4260  0.7070 -0.4725
18518TIP3    H176969   4.095   5.015  12.273 -1.2623  0.9760 -1.4436
18518TIP3    H276970   3.984   5.075  12.357 -0.0222  0.2992  0.7435
18519TIP3   OH276971   1.269   0.440  13.246 -0.5047  0.2495 -0.5043
18519TIP3    H176972   1.226   0.426  13.161  2.2071  0.2223 -1.9291
18519TIP3    H276973   1.286   0.534  13.248  2.1905 -0.1861 -1.4098
18520TIP3   OH276974   4.935   3.073   1.515  0.1494  0.6230  0.0732
18520TIP3    H176975   4.986   2.999   1.484 -1.3247 -0.4853  0.2507
18520TIP3    H276976   4.865   3.083   1.452 -0.1221  1.3701  0.4807
18521TIP3   OH276977   3.630   5.623  13.485  0.0035  0.0719 -0.4537
18521TIP3    H176978   3.663   5.710  13.506 -1.3867  0.0421  1.9408
18521TIP3    H276979   3.709   5.573  13.464  1.1383  1.0604  1.3146
18522TIP3   OH276980   4.155   1.294  15.009  0.2368  0.2645 -0.4824
18522TIP3    H176981   4.216   1.225  14.983 -1.6940 -1.9697  0.6913
18522TIP3    H276982   4.094   1.250  15.069 -1.4815  2.8378 -0.2866
18523TIP3   OH276983   0.747   0.405  10.894 -0.0690 -0.3367 -0.0557
18523TIP3    H176984   0.725   0.449  10.812 -1.9150 -2.0890 -0.5439
18523TIP3    H276985   0.797   0.327  10.867  0.7010 -0.0772  0.5966
18524TIP3   OH276986   6.015   0.084   4.839 -0.5856  0.2186 -0.4145
18524TIP3    H176987   5.997   0.165   4.790  1.7174  0.7109 -0.5226
18524TIP3    H276988   6.016   0.111   4.930  0.1777  0.3220 -0.4505
18525TIP3   OH276989   0.306   2.854   3.375  0.1657 -0.4633 -0.1278
18525TIP3    H176990   0.331   2.907   3.299  1.2508 -0.3653  0.2777
18525TIP3    H276991   0.340   2.767   3.356 -1.6037 -1.0127 -0.7823
18526TIP3   OH276992   3.178   4.354   4.331 -0.0201  0.5795  0.0053
18526TIP3    H176993   3.149   4.365   4.422 -0.1326 -0.3396  0.0843
18526TIP3    H276994   3.101   4.321   4.285  0.9233 -2.0571  0.2612
18527TIP3   OH276995   3.819   6.426   3.824 -0.2144 -0.2579 -0.0676
18527TIP3    H176996   3.884   6.474   3.774 -1.3186  0.7785 -0.5364
18527TIP3    H276997   3.735   6.458   3.791 -0.9565 -1.1175  0.9566
18528TIP3   OH276998   0.260   2.807   3.970 -0.5193 -0.2606  0.4384
18528TIP3    H176999   0.276   2.856   3.890  1.1466  0.3757  1.1463
18528TIP3    H277000   0.284   2.717   3.948  3.0283  0.4550  1.1084
18529TIP3   OH277001   5.158   6.149   5.056 -0.7697  0.2982  0.1488
18529TIP3    H177002   5.131   6.182   4.970 -2.9673  0.8510  1.0127
18529TIP3    H277003   5.162   6.228   5.111  0.0774 -0.1196  0.6950
18530TIP3   OH277004   2.312   4.785   5.668 -0.5977  0.1433 -0.5578
18530TIP3    H177005   2.238   4.844   5.683  0.6470  1.4994  0.3208
18530TIP3    H277006   2.370   4.799   5.743 -0.1414 -1.9869 -0.4834
18531TIP3   OH277007   0.800   5.095  15.928 -0.6473  0.7717  0.0009
18531TIP3    H177008   0.787   5.141  16.011  0.4636  0.4770  0.3503
18531TIP3    H277009   0.771   5.156  15.861  0.0969  1.6886  0.5057
18532TIP3   OH277010   1.404   5.659  10.879 -0.4239  0.0167 -0.0366
18532TIP3    H177011   1.415   5.581  10.825 -0.5118  0.3192 -0.4961
18532TIP3    H277012   1.313   5.685  10.865  0.0611  1.1852 -1.2339
18533TIP3   OH277013   2.522   4.285   2.398 -0.0161 -0.1706  0.1847
18533TIP3    H177014   2.438   4.251   2.367 -0.1954  0.5031 -0.0588
18533TIP3    H277015   2.501   4.328   2.481 -0.0057  0.5261 -0.1786
18534TIP3   OH277016   6.395   1.822   2.335 -0.4257 -0.1208 -0.0620
18534TIP3    H177017   6.319   1.809   2.279  0.0386  1.0913 -0.9875
18534TIP3    H277018   6.362   1.873   2.409 -0.5523  0.2709 -0.3871
18535TIP3   OH277019   2.885   2.242   3.677  0.4433 -0.1191 -0.8932
18535TIP3    H177020   2.813   2.300   3.702  0.6542  0.3654 -1.4217
18535TIP3    H277021   2.900   2.189   3.755  0.3947  0.6820 -0.3359
18536TIP3   OH277022   1.943   4.216  13.474  0.1232  0.3172  0.1614
18536TIP3    H177023   1.945   4.128  13.438 -0.4045 -0.3177  1.6773
18536TIP3    H277024   2.033   4.232  13.503 -0.1762 -0.4199  1.5298
18537TIP3   OH277025   0.018   0.884  11.246  0.3361  0.2923  0.3166
18537TIP3    H177026  -0.051   0.880  11.180  0.9924  1.7592 -0.4758
18537TIP3    H277027  -0.017   0.940  11.315 -0.1997 -0.9311  1.0559
18538TIP3   OH277028   0.639   2.871  13.872  0.5329 -0.0097  0.2070
18538TIP3    H177029   0.579   2.922  13.927 -1.4059 -1.4873 -0.4586
18538TIP3    H277030   0.638   2.916  13.788 -1.0455 -0.9778 -0.3296
18539TIP3   OH277031   5.612   5.316  16.031 -0.2533 -0.1576  0.0735
18539TIP3    H177032   5.590   5.265  15.953 -0.2382 -0.0263 -0.0156
18539TIP3    H277033   5.708   5.322  16.030 -0.3539  1.5589 -0.9892
18540TIP3   OH277034   5.810   0.356  15.710  0.0144  0.2068  0.3522
18540TIP3    H177035   5.823   0.451  15.713 -2.5652  0.5750  1.3324
18540TIP3    H277036   5.896   0.320  15.730  1.0904  2.3271 -0.2427
18541TIP3   OH277037   0.731   3.459   0.086  0.3990  0.5174 -1.2733
18541TIP3    H177038   0.757   3.372   0.117 -2.3837 -0.7900 -2.4779
18541TIP3    H277039   0.814   3.505   0.075  1.8715 -1.5162  0.6731
18542TIP3   OH277040   1.979   0.372  11.346 -0.0530 -0.0427 -0.4488
18542TIP3    H177041   2.029   0.299  11.310  0.7062 -0.5780  1.6207
18542TIP3    H277042   1.890   0.338  11.354  0.5245 -1.1952  1.6072
18543TIP3   OH277043   4.753   1.306   4.991 -0.0182  0.0297  0.5112
18543TIP3    H177044   4.691   1.324   4.921 -0.7287  0.8261  1.3230
18543TIP3    H277045   4.823   1.256   4.950 -1.1312 -0.7520 -0.4504
18544TIP3   OH277046   3.648   4.530  17.172 -0.4156 -0.6807 -0.2785
18544TIP3    H177047   3.730   4.540  17.221 -0.1749  0.9881 -0.9977
18544TIP3    H277048   3.580   4.558  17.233 -0.3434 -0.8519 -0.1168
18545TIP3   OH277049   0.652   5.136  11.145 -0.3456 -0.0958  1.1253
18545TIP3    H177050   0.582   5.177  11.094 -0.8817 -0.5629  1.4857
18545TIP3    H277051   0.717   5.205  11.157  0.2419 -0.2196 -1.0306
18546TIP3   OH277052   5.479   3.923  11.063  0.3652 -0.2525 -0.2276
18546TIP3    H177053   5.398   3.911  11.113 -0.5838 -1.6069 -2.0421
18546TIP3    H277054   5.484   4.018  11.049 -1.1053 -0.1903 -0.3991
18547TIP3   OH277055   6.061   6.554   3.490 -0.1277 -0.1298 -0.0705
18547TIP3    H177056   5.992   6.617   3.510  0.2440  1.1365 -2.5166
18547TIP3    H277057   6.016   6.483   3.444 -0.1370 -0.2899  0.1906
18548TIP3   OH277058   4.550   4.336  12.030  0.1153  0.7050  0.1701
18548TIP3    H177059   4.579   4.292  12.109  1.0290  1.6259  0.3599
18548TIP3    H277060   4.610   4.307  11.962 -0.6681 -0.0857 -0.1922
18549TIP3   OH277061   6.736   4.872   0.993 -0.0551 -0.3556  0.2715
18549TIP3    H177062   6.786   4.798   0.958 -0.1629 -0.1715 -0.2664
18549TIP3    H277063   6.742   4.939   0.925 -0.0502  0.0923  0.7157
18550TIP3   OH277064   0.590   0.419  14.988 -0.0525  0.0294  0.3612
18550TIP3    H177065   0.541   0.500  14.974 -1.7381 -0.7508  1.6083
18550TIP3    H277066   0.577   0.369  14.907 -1.0351 -0.0211  0.5432
18551TIP3   OH277067   3.871   4.513   0.951  0.3062  0.1387 -0.9020
18551TIP3    H177068   3.869   4.602   0.915 -0.7282  1.0269  1.2744
18551TIP3    H277069   3.795   4.470   0.913 -1.4269  1.4206  1.0261
18552TIP3   OH277070   4.913   2.854  11.960  0.3653 -0.1328  0.1690
18552TIP3    H177071   4.830   2.867  11.915  0.0131 -0.5086  0.6982
18552TIP3    H277072   4.890   2.858  12.053  1.4647  3.0043  0.3443
18553TIP3   OH277073   6.577   5.090   5.119 -0.1324  0.1972  0.1197
18553TIP3    H177074   6.528   5.165   5.085 -0.8552 -1.0396 -1.6372
18553TIP3    H277075   6.661   5.093   5.072 -1.2788 -1.7375 -2.1577
18554TIP3   OH277076   2.322   6.442  15.551 -0.2519  0.5330 -0.1614
18554TIP3    H177077   2.245   6.387  15.535  0.3864 -0.3604 -0.1783
18554TIP3    H277078   2.397   6.385  15.533  0.5233 -0.0048  4.0816
18555TIP3   OH277079   5.331   0.672   5.162 -0.2869  0.1022 -0.2638
18555TIP3    H177080   5.425   0.665   5.150 -0.0070 -0.4907  2.1137
18555TIP3    H277081   5.317   0.763   5.191 -0.3443 -0.0595  0.2227
18556TIP3   OH277082   1.364   6.101   4.814  0.2349 -0.0540 -0.0158
18556TIP3    H177083   1.383   6.085   4.721  0.9911 -0.9033  0.2834
18556TIP3    H277084   1.445   6.140   4.848 -0.4400  1.3279  0.0239
18557TIP3   OH277085   0.243   3.553  12.502 -0.5963  0.4514 -0.0379
18557TIP3    H177086   0.314   3.516  12.553 -1.0848  2.4485  2.1468
18557TIP3    H277087   0.192   3.476  12.473  1.3554 -0.8577 -0.0794
18558TIP3   OH277088   3.481   1.056   2.254  0.0736 -0.8371 -1.0843
18558TIP3    H177089   3.529   1.138   2.268 -1.5310  0.0679 -0.7123
18558TIP3    H277090   3.430   1.044   2.334  0.8094 -2.5706 -0.8665
18559TIP3   OH277091   1.734   3.250   3.627 -0.1586 -0.4557 -0.8433
18559TIP3    H177092   1.730   3.345   3.637  2.4326 -0.3560 -0.3617
18559TIP3    H277093   1.643   3.221   3.629 -0.8924  1.8673  0.4346
18560TIP3   OH277094   2.332   1.333   4.647  0.5757 -0.2535  0.5269
18560TIP3    H177095   2.396   1.404   4.645  0.5300 -0.2090  0.6750
18560TIP3    H277096   2.271   1.357   4.716 -0.5785  0.5517 -0.7564
18561TIP3   OH277097   5.032   4.023  14.461 -0.0200  0.5191 -0.3290
18561TIP3    H177098   5.067   4.067  14.538  1.2870 -1.4442  0.2287
18561TIP3    H277099   4.956   3.975  14.493  0.5901 -0.3873 -0.2311
18562TIP3   OH277100   5.504   3.621   4.729  0.1967  0.2096 -0.3962
18562TIP3    H177101   5.470   3.642   4.816  1.4425 -1.8531  0.6186
18562TIP3    H277102   5.465   3.537   4.708  2.3641 -0.7972 -0.4585
18563TIP3   OH277103   2.491   1.111  14.683  0.4630  0.8728  0.1165
18563TIP3    H177104   2.465   1.200  14.705 -0.1555  0.5754  0.5908
18563TIP3    H277105   2.586   1.116  14.670  0.2986  1.7792 -0.7668
18564TIP3   OH277106   5.462   0.999   0.588 -0.1307 -0.2225  0.3497
18564TIP3    H177107   5.430   1.083   0.557  0.9904  0.0402 -0.1357
18564TIP3    H277108   5.486   0.951   0.509  1.0908 -0.2288  0.6990
18565TIP3   OH277109   4.618   0.602  12.838 -0.8711  0.4521 -0.1222
18565TIP3    H177110   4.557   0.675  12.847  0.3544  1.3379  1.3419
18565TIP3    H277111   4.698   0.632  12.881 -0.4953 -1.9380  0.9428
18566TIP3   OH277112   3.665   4.664   4.715  0.4918  0.3650  0.1757
18566TIP3    H177113   3.679   4.672   4.810  2.6433  0.4391 -0.1161
18566TIP3    H277114   3.727   4.727   4.677  0.8404 -0.8762 -1.3416
18567TIP3   OH277115   3.089   1.132  14.869 -0.0834  0.1528  0.1160
18567TIP3    H177116   3.071   1.051  14.917 -0.9352  0.7808  0.8887
18567TIP3    H277117   3.081   1.108  14.777  0.2091 -0.7651  0.3290
18568TIP3   OH277118   6.459   1.627   4.684  0.0235 -0.0009  0.7001
18568TIP3    H177119   6.482   1.535   4.693  0.7667  0.3101  2.2240
18568TIP3    H277120   6.499   1.669   4.760 -1.5334  1.3359  0.8144
18569TIP3   OH277121   2.779   4.485   1.200  0.5834 -0.2588 -0.1205
18569TIP3    H177122   2.729   4.468   1.120  2.0402 -0.9997 -0.9014
18569TIP3    H277123   2.831   4.562   1.179  2.2638 -1.4735 -0.5306
18570TIP3   OH277124   3.348   5.447  16.350 -0.0770 -0.5504 -1.0490
18570TIP3    H177125   3.405   5.397  16.409  0.1354  2.0690  1.0733
18570TIP3    H277126   3.404   5.517  16.316 -1.4910  0.9528 -0.3710
18571TIP3   OH277127   2.830   4.460   0.807 -0.4038 -0.2739 -0.1036
18571TIP3    H177128   2.855   4.400   0.877  0.0773  0.4914  0.3901
18571TIP3    H277129   2.759   4.415   0.761 -0.0998 -1.1823  0.3032
18572TIP3   OH277130   1.645   2.724   1.476 -0.0560  0.4121 -0.2646
18572TIP3    H177131   1.673   2.648   1.425 -0.6248 -1.6681  2.3637
18572TIP3    H277132   1.601   2.781   1.413  1.4323 -0.8730 -2.5242
18573TIP3   OH277133   3.300   0.942   2.078 -0.2030  0.1756  0.0710
18573TIP3    H177134   3.336   1.019   2.123 -0.7315  0.9461 -0.7984
18573TIP3    H277135   3.376   0.900   2.038 -0.2206  1.6733 -1.5790
18574TIP3   OH277136   1.166   6.350   5.639  0.0374  1.0767 -0.1247
18574TIP3    H177137   1.195   6.438   5.662  0.6506  1.1688 -1.1925
18574TIP3    H277138   1.163   6.350   5.543 -1.4435  0.3955 -0.0927
18575TIP3   OH277139   1.740   5.573  12.067  0.0739  0.0609  0.0300
18575TIP3    H177140   1.696   5.488  12.063 -0.0975  0.1005  0.9170
18575TIP3    H277141   1.694   5.627  12.003 -0.3905 -0.2566  0.0926
18576TIP3   OH277142   3.478   4.835  16.028 -0.0475  0.2844 -0.1475
18576TIP3    H177143   3.494   4.778  16.104 -2.1838  0.2015  0.2828
18576TIP3    H277144   3.460   4.775  15.956  2.4630  0.3530 -0.8802
18577TIP3   OH277145   0.907   4.600  11.242  0.8554  0.1853 -0.3462
18577TIP3    H177146   0.887   4.597  11.149 -1.3441  0.2459  0.1135
18577TIP3    H277147   0.998   4.570  11.248  0.9207 -0.0646 -2.4792
18578TIP3   OH277148   6.303   4.928  16.797  0.2665  0.4208  0.6307
18578TIP3    H177149   6.300   5.024  16.802  1.3611  0.5025 -0.1403
18578TIP3    H277150   6.294   4.909  16.703 -2.4642 -0.3459  1.0056
18579TIP3   OH277151   1.031   1.072  16.531  0.2386 -0.3540 -0.1642
18579TIP3    H177152   1.059   1.044  16.444  0.8079  0.2884 -0.1943
18579TIP3    H277153   0.993   0.993  16.570 -0.3995 -0.5358 -1.1430
18580TIP3   OH277154   2.088   6.143  12.887 -0.8648 -0.0257 -0.5413
18580TIP3    H177155   2.080   6.228  12.931 -0.6677 -0.5838  0.5907
18580TIP3    H277156   2.155   6.097  12.937 -0.6171 -0.6668 -1.4533
18581TIP3   OH277157   4.490   6.219  13.462 -0.2595  0.0249  0.8874
18581TIP3    H177158   4.416   6.215  13.400  0.0058 -3.5508  0.6926
18581TIP3    H277159   4.450   6.245  13.545 -1.8548 -2.0579  0.8344
18582TIP3   OH277160   4.923   6.256  13.039 -0.2016 -0.5327  0.2350
18582TIP3    H177161   4.930   6.195  12.965  1.2294 -0.7711  0.5501
18582TIP3    H277162   4.994   6.319  13.025 -0.2163 -0.3116  1.1482
18583TIP3   OH277163   2.444   3.064   4.724  0.1386 -0.0752 -0.3678
18583TIP3    H177164   2.385   3.073   4.649  1.0098  1.0935 -0.9354
18583TIP3    H277165   2.530   3.049   4.685  0.5374  0.1701  0.4083
18584TIP3   OH277166   4.162   1.969   4.046  0.4141  0.1573 -0.6583
18584TIP3    H177167   4.195   1.928   4.127  1.5416 -0.1058 -1.2430
18584TIP3    H277168   4.071   1.940   4.041  0.2492  0.3891  0.6583
18585TIP3   OH277169   2.197   5.283  10.977 -0.0873  0.0476 -0.4329
18585TIP3    H177170   2.168   5.215  10.916 -2.5853  0.7829 -0.1143
18585TIP3    H277171   2.127   5.288  11.043  2.5751 -0.7932  2.6000
18586TIP3   OH277172   0.274   4.376   0.136  0.1498  0.1642 -0.8764
18586TIP3    H177173   0.310   4.465   0.139  0.4749  0.1186 -2.8025
18586TIP3    H277174   0.351   4.320   0.129 -0.0062 -0.3599  1.1444
18587TIP3   OH277175   6.521   2.401  11.342 -0.1520 -0.1923  0.5038
18587TIP3    H177176   6.482   2.377  11.426 -0.4623 -0.7201  0.2114
18587TIP3    H277177   6.511   2.496  11.337 -0.9089 -0.2618  0.6776
18588TIP3   OH277178   3.562   5.545  15.773  0.2172 -0.2188 -0.0696
18588TIP3    H177179   3.539   5.520  15.683 -0.4663  1.7182 -0.4679
18588TIP3    H277180   3.611   5.471  15.807  0.2791 -1.0812 -1.9766
18589TIP3   OH277181   3.178   3.736   4.923  0.5238 -0.0597 -0.4352
18589TIP3    H177182   3.166   3.691   5.007 -1.1281  0.1637 -0.5458
18589TIP3    H277183   3.256   3.790   4.937  0.8431 -0.7699  0.6287
18590TIP3   OH277184   6.167   0.660  11.532  0.3679  0.0190 -0.4335
18590TIP3    H177185   6.108   0.639  11.459  1.6409  0.3911 -1.5849
18590TIP3    H277186   6.157   0.754  11.545  2.2641  0.4648 -2.0358
18591TIP3   OH277187   6.362   3.865  12.332  0.2443 -0.3488  0.7729
18591TIP3    H177188   6.427   3.801  12.304 -0.4038 -0.9450  0.6136
18591TIP3    H277189   6.412   3.929  12.382  0.9699 -0.7513  0.5742
18592TIP3   OH277190   2.799   5.587  16.123 -0.0776 -0.2967 -0.3026
18592TIP3    H177191   2.888   5.578  16.155 -0.0270  1.4146  0.0787
18592TIP3    H277192   2.744   5.579  16.201 -0.1329  0.5567 -0.2406
18593TIP3   OH277193   0.432   4.068   1.031  0.4568 -0.1025  0.1908
18593TIP3    H177194   0.492   4.004   0.993 -0.1227  0.0764 -1.0387
18593TIP3    H277195   0.352   4.019   1.047 -0.3713  0.5523 -1.8033
18594TIP3   OH277196   5.786   4.455   4.861  0.1628 -0.6066  0.0284
18594TIP3    H177197   5.692   4.442   4.845 -0.3686  2.1534  0.6193
18594TIP3    H277198   5.790   4.509   4.939  2.2619 -0.5504 -0.0882
18595TIP3   OH277199   2.272   1.101  16.253  0.6011 -0.7041 -0.2546
18595TIP3    H177200   2.194   1.145  16.286  1.5567  0.8619 -0.0354
18595TIP3    H277201   2.252   1.008  16.260 -1.2856 -0.3166 -0.3074
18596TIP3   OH277202   5.961   3.729   3.012  0.3897 -0.5058  0.2973
18596TIP3    H177203   5.977   3.664   2.943  1.7059 -1.8265  1.8201
18596TIP3    H277204   6.032   3.716   3.074 -1.2390  0.0965  2.3328
18597TIP3   OH277205   5.966   6.389  12.556 -0.5172  0.7797  0.5479
18597TIP3    H177206   5.888   6.422  12.600 -1.1267  0.1607 -0.0393
18597TIP3    H277207   6.013   6.341  12.624 -0.5180  1.3658  0.9682
18598TIP3   OH277208   4.155   3.108   5.450 -0.3708 -0.0167  0.4010
18598TIP3    H177209   4.174   3.197   5.481  0.3621  0.0928 -0.3303
18598TIP3    H277210   4.076   3.118   5.397  0.8016  0.5694 -1.2964
18599TIP3   OH277211   4.180   2.744   3.015  0.1861  0.0098  0.4822
18599TIP3    H177212   4.128   2.666   3.032  0.0010  0.0715  0.1955
18599TIP3    H277213   4.164   2.800   3.091 -0.9426  0.4445 -0.0674
18600TIP3   OH277214   3.977   0.270  13.327  0.1802 -0.2192  0.0619
18600TIP3    H177215   3.899   0.217  13.315 -0.7842  0.8256  1.5216
18600TIP3    H277216   3.960   0.350  13.278 -0.0058  0.3270  0.9983
18601TIP3   OH277217   3.508   4.928   4.778  0.6509 -0.3217 -0.6051
18601TIP3    H177218   3.549   4.915   4.693  2.4830  0.5842  0.1186
18601TIP3    H277219   3.532   4.850   4.829  1.4634  0.1773 -0.2045
18602TIP3   OH277220   3.108   4.986  12.786  0.4419 -0.0540  0.3896
18602TIP3    H177221   3.034   5.025  12.831  3.0388  3.8727  1.5101
18602TIP3    H277222   3.093   5.005  12.693  0.6506  1.8107  0.7325
18603TIP3   OH277223   1.198   2.167   6.929 -0.0195  0.1366 -0.5473
18603TIP3    H177224   1.192   2.125   7.015  1.5422  0.7595 -0.1175
18603TIP3    H277225   1.207   2.094   6.868  0.1014 -0.2655 -0.0580
18604TIP3   OH277226   0.453   4.751  12.210  0.1816  0.0620  0.0017
18604TIP3    H177227   0.496   4.793  12.135  0.4318 -2.8146 -1.5390
18604TIP3    H277228   0.525   4.715  12.261 -0.0246  1.5716  1.4053
18605TIP3   OH277229   4.435   1.446  14.198 -0.1142 -0.1407  0.0540
18605TIP3    H177230   4.401   1.373  14.250  0.0533 -1.6714 -1.9238
18605TIP3    H277231   4.383   1.521  14.225 -0.5488 -1.0698  1.8618
18606TIP3   OH277232   0.887   2.223  13.675 -0.0348 -0.0830  0.0946
18606TIP3    H177233   0.907   2.133  13.646 -1.0900 -0.1652 -0.4065
18606TIP3    H277234   0.929   2.230  13.761  1.3356 -0.5530 -0.5218
18607TIP3   OH277235   1.296   3.503  11.959 -0.0012 -0.6577 -0.4106
18607TIP3    H177236   1.363   3.455  12.007  1.3114  1.2779 -0.2634
18607TIP3    H277237   1.345   3.556  11.896 -1.3081  1.4744  0.3053
18608TIP3   OH277238   3.617   6.525  15.914  0.4894  0.0591 -0.1826
18608TIP3    H177239   3.568   6.443  15.909 -0.6207  0.7387 -0.5823
18608TIP3    H277240   3.642   6.543  15.824 -2.1576  1.8784 -0.5994
18609TIP3   OH277241   2.122   1.482   3.462 -0.3297 -0.0142  0.5966
18609TIP3    H177242   2.039   1.530   3.459 -1.8286 -2.5897  0.2100
18609TIP3    H277243   2.130   1.444   3.374  0.9653 -0.3055  0.8422
18610TIP3   OH277244   1.060   2.004   2.532  0.2896  0.0726  0.8246
18610TIP3    H177245   0.986   1.959   2.571 -0.4650  0.0868 -0.5763
18610TIP3    H277246   1.124   1.935   2.515  0.1818 -0.0831  1.0437
18611TIP3   OH277247   3.245   0.229  14.959  0.2345 -0.6263 -0.4515
18611TIP3    H177248   3.235   0.297  15.025  0.3345  0.3070 -1.3765
18611TIP3    H277249   3.336   0.201  14.966  0.3559 -0.2360 -0.4713
18612TIP3   OH277250   2.130   1.933   5.105  0.3974 -0.3307  0.2876
18612TIP3    H177251   2.039   1.924   5.078 -0.6783 -1.0431  3.8326
18612TIP3    H277252   2.176   1.863   5.059 -1.1457 -0.9924 -0.2854
18613TIP3   OH277253   5.059   3.102  12.660  0.0766 -0.1611  0.5293
18613TIP3    H177254   5.073   3.159  12.585  1.5937  0.7826  1.4996
18613TIP3    H277255   5.097   3.018  12.634  0.1743  0.0219  0.0795
18614TIP3   OH277256   4.192   3.828   4.504  0.6462 -0.1393  0.2033
18614TIP3    H177257   4.135   3.753   4.489 -2.1924  1.2390  3.5015
18614TIP3    H277258   4.271   3.791   4.544 -0.3709 -1.4831  0.9948
18615TIP3   OH277259   4.125   2.956   0.392 -0.1690 -0.2480  0.0472
18615TIP3    H177260   4.043   2.990   0.356  0.2264  0.2958 -0.3498
18615TIP3    H277261   4.189   2.969   0.322  0.5601  0.6343  0.8615
18616TIP3   OH277262   3.948   5.234  15.441  0.5393 -0.1908 -0.6817
18616TIP3    H177263   3.909   5.224  15.528 -0.8249 -0.3982 -1.3070
18616TIP3    H277264   4.041   5.221  15.455  0.6965  2.5253  1.2349
18617TIP3   OH277265   6.410   1.848   0.895  0.2237  0.3611  0.0735
18617TIP3    H177266   6.390   1.755   0.888  0.2159  0.3465  0.2840
18617TIP3    H277267   6.483   1.852   0.957  2.4082  0.2149 -2.3714
18618TIP3   OH277268   2.407   5.888  16.802  0.0903  0.1049  0.1928
18618TIP3    H177269   2.439   5.968  16.843 -0.5683  0.0112  0.8895
18618TIP3    H277270   2.460   5.879  16.722  0.7216  0.7891  0.5317
18619TIP3   OH277271   1.208   4.697  13.006  0.7025 -0.3550 -0.7184
18619TIP3    H177272   1.139   4.634  12.986 -1.0768  0.8798  1.2918
18619TIP3    H277273   1.199   4.765  12.939 -1.0225  0.5334  0.3723
18620TIP3   OH277274   6.761   2.525  10.633  0.4642  0.0892  0.5412
18620TIP3    H177275   6.782   2.511  10.541 -0.0205  1.0171  0.2882
18620TIP3    H277276   6.843   2.557  10.672  1.1953 -2.0763  0.8394
18621TIP3   OH277277   0.460   3.937   0.039  0.2470  0.6338 -0.3230
18621TIP3    H177278   0.403   3.882  -0.014  0.8687  1.4744 -1.9000
18621TIP3    H277279   0.549   3.910   0.015  0.5270  0.6462  0.6909
18622TIP3   OH277280   3.908   1.001   2.506  0.2059 -0.1026  0.0794
18622TIP3    H177281   3.974   1.050   2.555  0.7255 -0.5461 -0.1793
18622TIP3    H277282   3.852   0.962   2.574 -0.2219  0.8576  0.2854
18623TIP3   OH277283   6.711   4.064   6.560 -0.0467 -0.2491  0.1825
18623TIP3    H177284   6.687   4.081   6.469  0.5320 -2.1358 -0.3447
18623TIP3    H277285   6.806   4.073   6.562  0.2291 -2.7096  0.0003
18624TIP3   OH277286   1.858   2.477  17.098 -0.8158  0.2679 -0.4834
18624TIP3    H177287   1.926   2.423  17.059  2.7429  5.1394 -1.5257
18624TIP3    H277288   1.812   2.516  17.024  0.6778  3.2440  0.0455
18625TIP3   OH277289   5.660   5.262  16.752 -0.0351 -0.4190 -0.2733
18625TIP3    H177290   5.604   5.340  16.749  0.3818 -0.1617 -2.2997
18625TIP3    H277291   5.748   5.295  16.738  0.1065 -1.2789 -1.5144
18626TIP3   OH277292   0.893   1.798  17.188 -0.2299  0.1220 -0.3249
18626TIP3    H177293   0.910   1.772  17.279 -0.7525 -1.3663 -0.6375
18626TIP3    H277294   0.959   1.751  17.137 -0.9566 -0.3353 -0.8656
18627TIP3   OH277295   5.208   0.452   3.777 -0.2235 -0.6245 -0.0780
18627TIP3    H177296   5.298   0.419   3.780 -0.0222 -0.0763 -0.0298
18627TIP3    H277297   5.209   0.520   3.710  0.1808  1.6581  2.1504
18628TIP3   OH277298   3.555   1.250   5.824  0.2089  1.0255 -0.1342
18628TIP3    H177299   3.507   1.304   5.761 -1.3610  0.7149  0.7609
18628TIP3    H277300   3.620   1.205   5.771 -2.1130 -0.4515 -1.8602
18629TIP3   OH277301   6.536   3.882   2.962  0.4615  0.0499  0.7690
18629TIP3    H177302   6.572   3.807   2.915  0.5773  2.0654 -2.5619
18629TIP3    H277303   6.445   3.858   2.980  1.0177 -1.6217  1.4121
18630TIP3   OH277304   6.350   1.095  14.508 -0.1476  0.1257 -0.6789
18630TIP3    H177305   6.275   1.036  14.515  0.4608 -0.6980 -1.0915
18630TIP3    H277306   6.420   1.051  14.556  0.1022  0.8579 -0.3603
18631TIP3   OH277307   3.417   3.285   4.179 -0.1151 -0.0132  0.0535
18631TIP3    H177308   3.381   3.242   4.101  1.3421  1.0291 -1.2225
18631TIP3    H277309   3.492   3.231   4.203 -0.4491 -0.2244  0.6509
18632TIP3   OH277310   5.134   0.045   2.062  0.4750  0.1600 -0.1619
18632TIP3    H177311   5.052   0.092   2.078  1.0685  1.6670 -1.4070
18632TIP3    H277312   5.107  -0.041   2.030 -0.6092  0.2466  0.4897
18633TIP3   OH277313   2.072   0.406   5.869  0.0824 -0.5232  0.6046
18633TIP3    H177314   2.069   0.310   5.867  2.1192 -0.6247  1.2524
18633TIP3    H277315   2.152   0.429   5.822 -0.4481  0.8649  0.3703
18634TIP3   OH277316   2.558   6.637  16.792 -0.3784  0.3267  0.2647
18634TIP3    H177317   2.614   6.667  16.863  1.4280  0.1686 -1.0584
18634TIP3    H277318   2.476   6.686  16.803  0.8501  2.2863  0.8578
18635TIP3   OH277319   2.494   4.611   1.471  0.0083  0.3273 -0.1780
18635TIP3    H177320   2.516   4.660   1.392 -0.5248  1.2736  0.2380
18635TIP3    H277321   2.565   4.549   1.483  0.9244  1.3110 -0.4824
18636TIP3   OH277322   1.939   4.655  12.037 -0.3374  0.3809  0.3387
18636TIP3    H177323   1.954   4.658  11.943 -1.9330 -0.2432  0.0498
18636TIP3    H277324   2.026   4.637  12.075  0.1459 -0.2928 -1.0603
18637TIP3   OH277325   1.815   5.031   0.597 -0.5067  0.4270 -0.2679
18637TIP3    H177326   1.734   5.028   0.548 -1.1336  0.7321  0.7411
18637TIP3    H277327   1.823   4.944   0.636  0.1358  0.0918 -1.1260
18638TIP3   OH277328   1.886   4.111  15.763 -0.0474  0.5529  0.0210
18638TIP3    H177329   1.889   4.015  15.759 -0.1577  0.5655 -0.3501
18638TIP3    H277330   1.978   4.137  15.774 -0.1289  0.3565  1.2173
18639TIP3   OH277331   3.237   4.762   0.663  0.6091 -0.2684  0.3402
18639TIP3    H177332   3.161   4.750   0.606  0.6540  1.9530 -0.2185
18639TIP3    H277333   3.200   4.800   0.743  1.4123  3.1295 -0.8600
18640TIP3   OH277334   2.897   1.036  11.599 -0.3495 -1.1498 -0.0619
18640TIP3    H177335   2.967   0.979  11.570  0.8189  0.2363 -0.0387
18640TIP3    H277336   2.937   1.093  11.664 -1.5543 -0.5010  0.1388
18641TIP3   OH277337   2.970   3.841   3.524 -0.7832  0.2834 -0.2131
18641TIP3    H177338   3.000   3.930   3.505 -0.1000  0.3922  1.2422
18641TIP3    H277339   3.012   3.786   3.458  1.4631  0.6387  0.8708
18642TIP3   OH277340   0.390   6.407   5.343  0.2928 -0.3630  0.5353
18642TIP3    H177341   0.365   6.315   5.330 -1.0169  0.3025 -2.0343
18642TIP3    H277342   0.465   6.420   5.285  1.2258 -0.1022  1.7878
18643TIP3   OH277343   6.761   5.141  12.143 -0.3433  0.2843  0.2087
18643TIP3    H177344   6.799   5.054  12.136 -1.4684 -0.2770  0.8918
18643TIP3    H277345   6.786   5.185  12.061 -0.6235 -1.0350 -0.6052
18644TIP3   OH277346   3.265   4.629   0.301 -0.3864 -0.2039  0.2885
18644TIP3    H177347   3.227   4.571   0.366 -1.9498  1.6329  1.0432
18644TIP3    H277348   3.330   4.681   0.350  1.8277 -2.0307 -0.6088
18645TIP3   OH277349   0.590   3.428   5.231  0.0999  0.4641 -0.5341
18645TIP3    H177350   0.684   3.435   5.246  0.1791 -1.8654  0.3414
18645TIP3    H277351   0.574   3.334   5.222 -2.5848  0.5182  2.4729
18646TIP3   OH277352   2.169   1.658  16.487  0.3256  0.1466  0.2446
18646TIP3    H177353   2.205   1.699  16.566 -1.4678  1.4269  0.4277
18646TIP3    H277354   2.210   1.707  16.415 -0.0458  0.7399  0.4286
18647TIP3   OH277355   0.613   5.090   6.414 -0.4202 -0.0846 -0.6626
18647TIP3    H177356   0.622   5.044   6.497 -2.0814  0.4532 -0.1773
18647TIP3    H277357   0.643   5.027   6.348 -0.3356 -0.9741  0.2226
18648TIP3   OH277358   0.798   5.423   2.705 -0.5337 -0.2000  0.7476
18648TIP3    H177359   0.878   5.375   2.725  1.2281  1.7939 -1.3119
18648TIP3    H277360   0.782   5.476   2.783 -0.0478 -0.8538  1.3001
18649TIP3   OH277361   6.161   1.532  11.666 -0.8620 -0.4146  0.3732
18649TIP3    H177362   6.205   1.557  11.747 -0.0128 -1.4443  0.2514
18649TIP3    H277363   6.102   1.604  11.646  2.8915  2.4407 -0.9813
18650TIP3   OH277364   0.692   1.541   3.091  0.3069 -0.5414 -0.5574
18650TIP3    H177365   0.727   1.619   3.135 -0.7432  0.8388 -2.0756
18650TIP3    H277366   0.755   1.523   3.021  0.9444 -1.5235  0.2685
18651TIP3   OH277367   6.360   0.770  13.903 -0.2357 -0.5918  0.0420
18651TIP3    H177368   6.450   0.769  13.934 -0.4452  0.0554  0.7116
18651TIP3    H277369   6.352   0.852  13.854 -0.3839 -0.7821 -0.2577
18652TIP3   OH277370   3.443   4.314   3.949 -0.5227  0.1129  0.0484
18652TIP3    H177371   3.516   4.316   4.011 -0.3228  0.6755 -0.2034
18652TIP3    H277372   3.405   4.402   3.953  0.0544  0.4311 -1.2966
18653TIP3   OH277373   1.131   5.355  15.302  0.3809  0.5010 -0.1309
18653TIP3    H177374   1.103   5.432  15.353  2.5068  1.2666 -0.0700
18653TIP3    H277375   1.150   5.390  15.215  2.4782  0.2631  0.2173
18654TIP3   OH277376   4.020   3.482   5.345  0.3620  0.6691 -0.6826
18654TIP3    H177377   3.971   3.544   5.291  0.5589  0.6716 -0.8637
18654TIP3    H277378   4.112   3.497   5.320  0.5961  1.6776  0.6912
18655TIP3   OH277379   6.482   3.335   2.140  0.4960  0.3628  0.1644
18655TIP3    H177380   6.387   3.348   2.136  0.2990 -0.6727  1.1751
18655TIP3    H277381   6.500   3.277   2.066  0.5012  1.3745 -0.6441
18656TIP3   OH277382   3.544   5.856   1.796 -0.1530 -0.0598  0.1069
18656TIP3    H177383   3.468   5.809   1.830  1.9386 -2.6264  1.4003
18656TIP3    H277384   3.618   5.822   1.846  2.2026  0.6098 -2.7870
18657TIP3   OH277385   4.556   4.251   0.950 -0.2525 -0.6507 -0.0436
18657TIP3    H177386   4.558   4.344   0.972 -2.5630 -0.7883  0.8985
18657TIP3    H277387   4.482   4.242   0.889 -2.0050 -2.2971  2.1994
18658TIP3   OH277388   1.242   3.989  13.152 -0.1630  0.7570  0.3327
18658TIP3    H177389   1.290   3.951  13.226 -1.6540  0.9475  1.4314
18658TIP3    H277390   1.301   3.978  13.077  1.2667  0.3083  1.4866
18659TIP3   OH277391   0.242   3.449  12.015 -0.0575  0.3733  0.4377
18659TIP3    H177392   0.324   3.418  11.975 -1.5475 -1.1968 -1.5501
18659TIP3    H277393   0.225   3.533  11.972 -1.2641 -0.9562 -1.7865
18660TIP3   OH277394   4.962   2.982   5.995 -0.1281  0.1111  0.2721
18660TIP3    H177395   4.909   3.054   6.028 -2.1391 -0.7564 -0.9697
18660TIP3    H277396   4.931   2.905   6.041  1.6631 -0.0856  1.2142
18661TIP3   OH277397   4.790   3.192   0.953 -0.3320 -0.0724 -0.5334
18661TIP3    H177398   4.738   3.270   0.933  2.1512  2.0470  0.8445
18661TIP3    H277399   4.746   3.154   1.030 -0.4729  1.0930 -0.0181
18662TIP3   OH277400   2.638   1.036  13.552 -0.2895 -0.2050 -0.3609
18662TIP3    H177401   2.615   1.016  13.643  1.4133 -0.6022 -0.0143
18662TIP3    H277402   2.630   0.952  13.506 -0.7288 -0.0894 -0.5033
18663TIP3   OH277403   1.014   5.466  10.697  0.2766 -0.1285 -0.3486
18663TIP3    H177404   0.927   5.494  10.667 -0.1045 -0.0774  0.7822
18663TIP3    H277405   0.996   5.396  10.760  1.0384  0.1238  0.1565
18664TIP3   OH277406   1.570   0.368  14.363 -0.0113 -0.5487 -0.3677
18664TIP3    H177407   1.612   0.360  14.449  0.3024  1.1261 -0.3445
18664TIP3    H277408   1.626   0.318  14.304  1.8322  1.3503 -0.2715
18665TIP3   OH277409   0.045   0.547  11.053  0.3208 -0.6447 -0.7059
18665TIP3    H177410   0.128   0.501  11.061 -0.0137 -1.2773 -0.8829
18665TIP3    H277411   0.004   0.538  11.139 -0.3223 -1.7881 -1.1269
18666TIP3   OH277412   6.759   5.823   4.887  0.0363  0.4187 -0.1511
18666TIP3    H177413   6.758   5.882   4.962  1.5515  1.4722 -0.9289
18666TIP3    H277414   6.850   5.823   4.857  0.2778 -3.0247  0.3610
18667TIP3   OH277415   5.484   0.071   4.094  0.5269  0.2077  0.5433
18667TIP3    H177416   5.569   0.094   4.133  0.1536  1.8527  0.4348
18667TIP3    H277417   5.438   0.155   4.088 -0.8794 -0.5961  0.0542
18668TIP3   OH277418   6.459   0.064   2.558  0.2051 -0.1150 -0.0542
18668TIP3    H177419   6.428  -0.026   2.561  0.8162 -0.3067  0.7167
18668TIP3    H277420   6.397   0.113   2.611 -0.4677  0.0272 -0.9627
18669TIP3   OH277421   4.595   1.922  12.585 -0.1497  0.5308  0.0894
18669TIP3    H177422   4.679   1.936  12.541  0.1107  1.3093  0.8144
18669TIP3    H277423   4.558   1.844  12.544 -0.5252  1.9987 -2.4204
18670TIP3   OH277424   6.672   5.000   4.157 -0.3158 -0.0900  0.0704
18670TIP3    H177425   6.681   4.951   4.238  0.3218  0.8482  0.5780
18670TIP3    H277426   6.641   5.086   4.185  0.5973  0.4648 -0.6102
18671TIP3   OH277427   4.882   4.266   2.266 -0.4838 -0.9643 -0.1959
18671TIP3    H177428   4.847   4.247   2.354  0.9631 -0.5762  0.4760
18671TIP3    H277429   4.952   4.202   2.254 -0.9802 -1.3174 -1.2784
18672TIP3   OH277430   3.661   3.133   4.260 -0.1749  0.3966 -0.3330
18672TIP3    H177431   3.752   3.137   4.230  0.0861 -1.8675  0.1033
18672TIP3    H277432   3.665   3.085   4.342 -1.8641 -0.4294 -0.7223
18673TIP3   OH277433   3.181   4.695  14.813  0.3369  0.5492  0.2224
18673TIP3    H177434   3.223   4.613  14.837  2.4706  1.1700 -1.2993
18673TIP3    H277435   3.088   4.679  14.827  0.9693 -1.1143  2.8987
18674TIP3   OH277436   0.271   3.071   4.137  0.3659  0.4066 -0.0199
18674TIP3    H177437   0.190   3.053   4.091 -0.5290  0.0887  1.6415
18674TIP3    H277438   0.279   3.167   4.135 -0.0630  0.4390 -0.1646
18675TIP3   OH277439   0.084   4.962   6.205  0.3227  0.3115  0.3951
18675TIP3    H177440   0.005   4.998   6.245 -0.3647 -1.2771  0.5282
18675TIP3    H277441   0.074   4.867   6.215  2.3208  0.0953  0.5462
18676TIP3   OH277442   1.548   5.426   3.129  0.0700 -0.1707 -0.2803
18676TIP3    H177443   1.615   5.358   3.122 -0.9942 -1.1399 -1.3008
18676TIP3    H277444   1.559   5.479   3.051  0.0359  0.0375 -0.1437
18677TIP3   OH277445   6.662   3.754  15.762 -0.0027  0.6395 -0.2939
18677TIP3    H177446   6.673   3.662  15.782  1.5102  0.9917  0.5427
18677TIP3    H277447   6.573   3.774  15.791  0.6867  0.1300  2.2638
18678TIP3   OH277448   4.911   4.049  13.120 -0.3183 -0.3835 -1.1185
18678TIP3    H177449   4.841   3.991  13.150  0.7058 -1.7266 -1.3180
18678TIP3    H277450   4.990   4.015  13.162  0.1756  1.3731 -0.5534
18679TIP3   OH277451   6.081   6.744  16.286 -0.0493  0.0078  0.3575
18679TIP3    H177452   6.090   6.651  16.308 -0.9163 -0.4038 -0.9835
18679TIP3    H277453   5.996   6.769  16.323 -0.0733  0.1256  0.2200
18680TIP3   OH277454   3.121   6.206   0.893 -0.2316  0.3039 -0.0849
18680TIP3    H177455   3.079   6.225   0.977 -0.1128  1.5366 -0.2960
18680TIP3    H277456   3.128   6.110   0.890 -0.0380  0.2652  1.4081
18681TIP3   OH277457   5.914   1.380  14.471 -0.2812  0.2115  0.1048
18681TIP3    H177458   5.857   1.432  14.414  1.1821  1.4790 -0.2457
18681TIP3    H277459   5.896   1.289  14.447 -2.2873  0.5697  0.1530
18682TIP3   OH277460   5.715   6.016   0.833 -0.7637  0.2647  0.7602
18682TIP3    H177461   5.788   5.956   0.815 -0.3269  0.3155  2.2521
18682TIP3    H277462   5.758   6.098   0.861 -1.3532  1.2486 -1.1405
18683TIP3   OH277463   1.697   0.504  16.567 -0.1703  0.0670 -0.1317
18683TIP3    H177464   1.792   0.494  16.576  0.1817  0.1882 -3.1316
18683TIP3    H277465   1.662   0.475  16.651  2.4849 -0.5291  0.8388
18684TIP3   OH277466   6.778   4.576   3.348  0.2296 -0.4688  0.1356
18684TIP3    H177467   6.701   4.595   3.294  0.7130 -2.0425 -1.1404
18684TIP3    H277468   6.773   4.482   3.365  0.5232 -0.1442  2.1942
18685TIP3   OH277469   4.509   1.525   5.779  0.5546  0.2140 -0.0018
18685TIP3    H177470   4.522   1.430   5.780 -0.9014 -0.0122 -1.1232
18685TIP3    H277471   4.597   1.561   5.768  1.6771 -0.8339  4.5273
18686TIP3   OH277472   5.411   1.364  15.044  0.9744  0.4201  0.5641
18686TIP3    H177473   5.354   1.441  15.050  3.5886  2.2983  2.3258
18686TIP3    H277474   5.476   1.387  14.977  0.2077 -1.3675 -0.8317
18687TIP3   OH277475   1.917   1.871  16.479  0.3965 -0.7503 -0.1538
18687TIP3    H177476   1.881   1.825  16.555  1.8393  0.4531  1.3159
18687TIP3    H277477   1.968   1.805  16.432  1.1221 -1.0483  1.0388
18688TIP3   OH277478   2.720   6.725  17.008 -0.2729 -0.3769  0.0639
18688TIP3    H177479   2.709   6.648  17.064 -0.8952 -0.6434 -0.4207
18688TIP3    H277480   2.806   6.760  17.032 -0.4855 -0.5396  1.1297
18689TIP3   OH277481   1.222   2.649   1.399  0.0477 -0.1583  0.2334
18689TIP3    H177482   1.249   2.616   1.313 -4.9156 -1.1838 -1.0828
18689TIP3    H277483   1.201   2.741   1.384  0.4786  0.0199  0.6954
18690TIP3   OH277484   4.869   3.829   2.244  0.3815  0.1800 -0.5474
18690TIP3    H177485   4.799   3.888   2.273  0.7086  0.6931 -0.7814
18690TIP3    H277486   4.824   3.755   2.205 -0.0757 -0.5360  1.2547
18691TIP3   OH277487   0.266   3.783  13.168  0.3453 -0.3217  0.1768
18691TIP3    H177488   0.218   3.815  13.092  1.4510 -0.5718 -0.6467
18691TIP3    H277489   0.206   3.721  13.210 -0.4161  0.1060 -0.2721
18692TIP3   OH277490   6.049   6.739   4.554 -0.1570 -0.0919 -0.1000
18692TIP3    H177491   6.038   6.830   4.579  1.3759 -0.0750  0.5717
18692TIP3    H277492   6.034   6.690   4.635 -0.3633 -0.3951 -0.3204
18693TIP3   OH277493   2.759   6.641  13.010 -0.1846 -0.1860 -0.2353
18693TIP3    H177494   2.748   6.705  12.940  2.9978  0.2037 -0.4534
18693TIP3    H277495   2.763   6.694  13.090 -1.3411 -0.4392 -0.0009
18694TIP3   OH277496   3.034   1.106  16.407  0.1996  0.4927  0.1697
18694TIP3    H177497   3.076   1.033  16.361 -1.8609 -0.5536 -0.1106
18694TIP3    H277498   2.983   1.151  16.340 -0.8689  0.4360  0.9382
18695TIP3   OH277499   6.752   2.595   2.146  0.8855  0.0487  0.1120
18695TIP3    H177500   6.693   2.634   2.211  0.4137  1.1019 -0.9205
18695TIP3    H277501   6.831   2.572   2.195  0.6756  1.1633  0.9848
18696TIP3   OH277502   4.612   0.167   4.240 -0.5833 -0.2934 -0.3775
18696TIP3    H177503   4.615   0.221   4.319 -2.8451  1.1779 -1.2453
18696TIP3    H277504   4.585   0.081   4.270 -1.1028  0.1719  0.4860
18697TIP3   OH277505   4.071   6.744  14.183 -0.5798 -0.0664 -0.5865
18697TIP3    H177506   3.986   6.708  14.210 -1.2926  0.9673 -1.4025
18697TIP3    H277507   4.078   6.723  14.090  0.9626 -1.8680 -0.0760
18698TIP3   OH277508   6.742   4.273   2.551  0.0427 -0.0543  0.4493
18698TIP3    H177509   6.727   4.253   2.458 -2.7749 -0.5946  0.9768
18698TIP3    H277510   6.742   4.369   2.555 -1.0531 -0.0286  0.0448
18699TIP3   OH277511   4.453   3.817   1.053  0.1212 -0.0439 -0.3203
18699TIP3    H177512   4.467   3.864   1.135  1.9236 -2.5128  0.8606
18699TIP3    H277513   4.534   3.830   1.004  0.1044 -0.7910 -0.5537
18700TIP3   OH277514   2.622   6.411   3.707  0.7572  0.2146 -0.5840
18700TIP3    H177515   2.703   6.361   3.714  0.1761 -0.5518  0.8427
18700TIP3    H277516   2.638   6.490   3.759  0.4666 -0.1104  0.0054
18701TIP3   OH277517   6.088   1.708   2.373  0.5487 -0.1866  0.1481
18701TIP3    H177518   6.128   1.757   2.446 -0.2065 -0.1092  0.5199
18701TIP3    H277519   6.116   1.755   2.295  1.4995 -0.3641  0.3842
18702TIP3   OH277520   6.567   6.516  14.764 -0.5744 -0.1607  0.3765
18702TIP3    H177521   6.519   6.563  14.697 -0.9254 -2.1287 -0.8000
18702TIP3    H277522   6.532   6.549  14.847  0.6025  3.0534 -0.3315
18703TIP3   OH277523   3.225   1.819   5.930  0.0900  0.4007  0.7156
18703TIP3    H177524   3.193   1.904   5.958  1.0754  0.4290  1.8399
18703TIP3    H277525   3.189   1.806   5.842 -1.9175  0.9655  1.4343
18704TIP3   OH277526   3.720   3.429   1.599  0.4706 -0.4017 -0.0382
18704TIP3    H177527   3.704   3.478   1.680 -1.0448  0.0953 -0.6163
18704TIP3    H277528   3.646   3.368   1.594  1.2424 -1.3069 -0.3880
18705TIP3   OH277529   5.706   2.575  12.350 -0.5211 -0.0193 -0.3004
18705TIP3    H177530   5.655   2.519  12.409 -2.3463  0.6058 -1.2210
18705TIP3    H277531   5.751   2.514  12.292 -1.2906 -0.5768 -0.3166
18706TIP3   OH277532   5.108   4.513   4.675  0.4477 -0.0362 -0.0825
18706TIP3    H177533   5.139   4.596   4.639 -1.9186 -0.1886 -2.5824
18706TIP3    H277534   5.025   4.496   4.630 -0.4089 -2.4633  2.2884
18707TIP3   OH277535   4.141   6.261   3.888  0.4223 -0.3955 -0.3012
18707TIP3    H177536   4.140   6.355   3.908  1.0163 -0.1491 -1.4304
18707TIP3    H277537   4.224   6.230   3.923  1.4976  0.0502 -2.3734
18708TIP3   OH277538   3.647   1.283   2.230  0.3457 -0.4074 -0.4106
18708TIP3    H177539   3.669   1.366   2.188 -0.1445 -0.0196  0.0780
18708TIP3    H277540   3.728   1.232   2.228  0.8114  0.3190 -0.1677
18709TIP3   OH277541   1.703   6.180  12.762 -0.0089 -0.3095 -0.6979
18709TIP3    H177542   1.626   6.160  12.816 -0.6541 -1.3568 -1.9717
18709TIP3    H277543   1.670   6.179  12.672  1.6542 -1.5585 -1.3240
18710TIP3   OH277544   6.042   3.097   0.603  0.3796 -0.0262  0.3741
18710TIP3    H177545   6.091   3.163   0.554  0.1342  0.0254  0.1982
18710TIP3    H277546   6.104   3.025   0.615  0.9191  0.5715  1.2844
18711TIP3   OH277547   3.787   1.369  14.977  0.0308 -0.5157 -0.6178
18711TIP3    H177548   3.709   1.334  14.935 -0.0774  1.3839 -2.0692
18711TIP3    H277549   3.830   1.293  15.016 -2.1604 -1.6762 -0.4290
18712TIP3   OH277550   3.546   4.140  10.665 -0.3473  0.1859  0.2709
18712TIP3    H177551   3.609   4.188  10.719  0.4020  0.3784 -0.7513
18712TIP3    H277552   3.593   4.062  10.637 -1.5418 -1.1194  1.8563
18713TIP3   OH277553   4.720   1.264   4.407 -0.4530 -0.3532  0.0597
18713TIP3    H177554   4.783   1.289   4.475  1.9666 -0.0934 -2.2229
18713TIP3    H277555   4.740   1.173   4.388 -1.3692 -0.5308 -0.0910
18714TIP3   OH277556   1.621   0.671  13.299 -0.4410  0.5237  0.1929
18714TIP3    H177557   1.584   0.758  13.286  1.7234  1.5522  0.6884
18714TIP3    H277558   1.586   0.643  13.384 -1.3531  0.7703 -0.0920
18715TIP3   OH277559   5.004   3.547  16.497  0.4947 -0.3333  0.5412
18715TIP3    H177560   4.960   3.624  16.461  1.6330 -0.4650 -1.1830
18715TIP3    H277561   4.932   3.489  16.522 -0.3717 -0.4644 -2.0836
18716TIP3   OH277562   3.910   0.588  14.179  0.1283  0.0606  0.2966
18716TIP3    H177563   3.851   0.514  14.163  0.4864 -0.2452  0.3880
18716TIP3    H277564   3.964   0.592  14.100 -1.0227  1.2903 -0.4417
18717TIP3   OH277565   6.553   4.964  16.534 -0.1761 -0.3729  0.3987
18717TIP3    H177566   6.463   4.934  16.524 -0.7347  0.1755  3.4462
18717TIP3    H277567   6.548   5.037  16.595  2.1273  1.0035 -0.9709
18718TIP3   OH277568   0.146   4.543  13.595 -0.0191  0.1015 -0.1418
18718TIP3    H177569   0.168   4.624  13.642  1.4330 -0.1470 -0.3892
18718TIP3    H277570   0.207   4.478  13.629 -2.0902 -1.2875  1.0953
18719TIP3   OH277571   0.541   3.547   4.830  0.3678  0.0883  0.0246
18719TIP3    H177572   0.464   3.493   4.845 -0.3331  1.7185  2.7784
18719TIP3    H277573   0.506   3.632   4.803  1.3561 -0.0689 -1.8434
18720TIP3   OH277574   5.837   4.555  11.897  0.6346  0.1567  0.1000
18720TIP3    H177575   5.807   4.491  11.832  0.1368 -2.0211  2.3691
18720TIP3    H277576   5.929   4.535  11.910  0.7541  0.6412  0.0083
18721TIP3   OH277577   5.755   4.578   2.308  0.1039 -0.4293 -0.4452
18721TIP3    H177578   5.675   4.571   2.360  0.2918 -0.6861 -0.1937
18721TIP3    H277579   5.754   4.668   2.275  0.1503 -0.1623  0.2688
18722TIP3   OH277580   0.522   5.092  10.762 -0.2274  0.2794 -0.2459
18722TIP3    H177581   0.439   5.043  10.762 -0.9740  1.5141 -0.0206
18722TIP3    H277582   0.514   5.152  10.836  0.1846  1.5621 -1.2281
18723TIP3   OH277583   4.944   2.222   2.023 -0.1294 -0.4657 -0.2820
18723TIP3    H177584   4.937   2.137   1.980  0.9772 -1.2773  1.1196
18723TIP3    H277585   5.035   2.248   2.010  0.4749 -1.1485  2.3078
18724TIP3   OH277586   5.938   3.486   0.542  0.0462 -0.2806  0.3868
18724TIP3    H177587   5.978   3.465   0.457 -0.0648 -0.2518  0.3272
18724TIP3    H277588   5.852   3.521   0.520  0.2279  0.2221  0.4881
18725TIP3   OH277589   6.382   1.352  15.136 -0.3969  0.0976  0.5872
18725TIP3    H177590   6.378   1.324  15.045  0.1166  3.1235 -0.4105
18725TIP3    H277591   6.303   1.317  15.176  0.0388 -2.4131 -0.6399
18726TIP3   OH277592   2.458   1.643  13.081 -0.5569  0.0830 -0.4870
18726TIP3    H177593   2.423   1.653  12.992 -2.5500  0.7575  0.3430
18726TIP3    H277594   2.404   1.575  13.121 -0.2660  0.4046  0.4768
18727TIP3   OH277595   1.896   2.196  16.281  0.5828 -0.2574 -0.0958
18727TIP3    H177596   1.947   2.115  16.269 -1.8683 -2.2144  2.0474
18727TIP3    H277597   1.823   2.187  16.220 -0.0917  0.0052  0.6771
18728TIP3   OH277598   2.155   0.627  13.651  0.3948 -0.3568  0.4780
18728TIP3    H177599   2.211   0.704  13.641  2.3217 -1.8349 -0.4125
18728TIP3    H277600   2.169   0.599  13.742  0.1516 -0.0214  0.6200
18729TIP3   OH277601   2.177   6.548  11.182  0.0534 -0.4529  0.4489
18729TIP3    H177602   2.215   6.627  11.144  0.3838 -1.3077 -1.0653
18729TIP3    H277603   2.252   6.499  11.216 -0.0354 -0.6138  0.4136
18730TIP3   OH277604   3.905   6.745  15.184  0.8343 -0.5082 -0.3927
18730TIP3    H177605   3.879   6.821  15.132  0.0110 -0.9310 -0.6032
18730TIP3    H277606   3.836   6.680  15.168 -0.0110 -0.2602  2.0849
18731TIP3   OH277607   5.138   3.541  12.411  0.7305 -0.5635  0.4489
18731TIP3    H177608   5.044   3.529  12.396  0.8749 -1.0600 -0.0607
18731TIP3    H277609   5.163   3.611  12.351  0.7899 -0.7823  0.2185
18732TIP3   OH277610   1.632   6.206  11.386  0.1708  0.3228  0.1000
18732TIP3    H177611   1.580   6.139  11.343  0.7157 -0.0402  0.0035
18732TIP3    H277612   1.571   6.248  11.447 -0.0721 -0.5167  0.4422
18733TIP3   OH277613   4.916   5.016  12.127 -0.7225 -0.4726  0.5728
18733TIP3    H177614   4.923   4.937  12.073 -1.0239  0.9136 -1.5695
18733TIP3    H277615   4.841   4.998  12.185 -1.5412 -1.2891 -0.7002
18734TIP3   OH277616   4.691   5.768  15.456  0.6642 -0.4154 -0.0884
18734TIP3    H177617   4.677   5.730  15.543 -2.1056  1.5587  0.3942
18734TIP3    H277618   4.672   5.697  15.396 -0.1702 -1.0266  0.8824
18735TIP3   OH277619   6.160   2.309  15.928  0.7272  0.0016  0.6214
18735TIP3    H177620   6.065   2.311  15.934  0.6750 -0.0606 -0.2186
18735TIP3    H277621   6.190   2.335  16.016 -0.0616 -0.7936  1.1333
18736TIP3   OH277622   1.506   2.650  12.854 -1.0514 -0.2996  0.0360
18736TIP3    H177623   1.593   2.638  12.817 -2.5369  1.1326 -4.2584
18736TIP3    H277624   1.468   2.562  12.856 -0.4378 -0.5806 -0.5114
18737TIP3   OH277625   0.160   6.073  11.861  0.6497  0.4413  0.2458
18737TIP3    H177626   0.193   6.153  11.822 -0.5007 -0.2684 -2.2920
18737TIP3    H277627   0.113   6.101  11.939 -0.1756  2.2958 -0.8891
18738TIP3   OH277628   5.007   3.821  11.322  0.4717 -0.1299  0.4607
18738TIP3    H177629   5.018   3.811  11.227 -0.8153 -1.4231  0.4270
18738TIP3    H277630   4.965   3.906  11.332  0.2505 -0.1609 -0.1582
18739TIP3   OH277631   5.066   5.427   1.652  0.3397 -0.4193 -0.3854
18739TIP3    H177632   5.028   5.340   1.637  0.9818 -0.2896 -3.0317
18739TIP3    H277633   5.002   5.488   1.615  1.1818  0.0436 -1.1189
18740TIP3   OH277634   5.510   5.528   1.005 -0.1417  0.4722  0.3088
18740TIP3    H177635   5.484   5.616   0.977  1.2057  0.5368 -0.7816
18740TIP3    H277636   5.505   5.475   0.925  1.5332  0.1525  0.3887
18741TIP3   OH277637   2.561   3.685  15.645  0.0121  0.0000 -0.2763
18741TIP3    H177638   2.608   3.639  15.576 -0.2931 -1.2249  0.3211
18741TIP3    H277639   2.472   3.650  15.640  0.1075 -0.4498  1.0448
18742TIP3   OH277640   5.798   5.555   4.860  0.5174  0.4080 -0.4336
18742TIP3    H177641   5.876   5.576   4.912  0.0203 -0.4823  0.6971
18742TIP3    H277642   5.814   5.466   4.828 -1.4189 -1.0774  2.5038
18743TIP3   OH277643   2.993   4.800   4.875  0.0137 -0.5692  0.1422
18743TIP3    H177644   3.025   4.891   4.870  1.0983 -0.9369  0.2174
18743TIP3    H277645   2.951   4.794   4.960  0.0614 -0.1760  0.1962
18744TIP3   OH277646   6.017   4.731  12.456  0.1916 -0.4411 -0.0240
18744TIP3    H177647   6.082   4.682  12.506 -0.4524 -0.1392  1.1150
18744TIP3    H277648   6.044   4.823  12.465 -1.7256 -0.0694  2.4768
18745TIP3   OH277649   1.507   4.467   0.549 -0.2721  0.0300  0.3519
18745TIP3    H177650   1.559   4.541   0.518  1.1769 -1.1143 -0.0034
18745TIP3    H277651   1.463   4.434   0.470 -0.0227 -0.1879  0.3038
18746TIP3   OH277652   4.591   4.196   5.116 -0.0386 -0.2601  0.3092
18746TIP3    H177653   4.642   4.207   5.036  0.2920  0.2558  0.5832
18746TIP3    H277654   4.607   4.277   5.166 -0.7336 -0.3088  0.6157
18747TIP3   OH277655   5.541   1.402  13.908 -0.2430 -0.0029 -0.1509
18747TIP3    H177656   5.455   1.406  13.866 -0.5098 -1.6560  0.2112
18747TIP3    H277657   5.592   1.343  13.853 -0.0549 -0.8186  0.8875
18748TIP3   OH277658   3.994   4.787  13.847  0.1690 -0.2935  0.0671
18748TIP3    H177659   4.001   4.833  13.763 -1.0346 -0.5079 -0.1660
18748TIP3    H277660   3.959   4.852  13.907 -1.6533 -0.9296 -0.2913
18749TIP3   OH277661   1.896   5.281  12.868  0.1299 -0.6065  0.1114
18749TIP3    H177662   1.910   5.376  12.874  0.7864 -0.5746 -1.7235
18749TIP3    H277663   1.814   5.272  12.820  1.1714 -0.9783 -1.6297
18750TIP3   OH277664   5.555   0.822  15.862  0.4841 -0.5881  0.6450
18750TIP3    H177665   5.495   0.763  15.818  1.5970 -0.9764 -0.3944
18750TIP3    H277666   5.629   0.766  15.887  1.6048  0.3705 -0.4551
18751TIP3   OH277667   2.727   1.279  11.235 -0.2245 -0.0108  0.6868
18751TIP3    H177668   2.653   1.318  11.188  0.4199 -0.0350 -0.3777
18751TIP3    H277669   2.754   1.204  11.180  0.3565 -0.2209  1.2437
18752TIP3   OH277670   5.705   2.419  11.704 -0.1372  0.4204  0.1538
18752TIP3    H177671   5.664   2.503  11.687  2.6885  1.4308 -2.0940
18752TIP3    H277672   5.709   2.376  11.619  2.2325 -0.1858  0.5275
18753TIP3   OH277673   5.806   5.450   0.989 -0.2270  0.5390 -0.3121
18753TIP3    H177674   5.785   5.529   0.939  2.0167  0.9006 -0.7556
18753TIP3    H277675   5.897   5.462   1.016  0.5143 -2.3516 -1.3009
18754TIP3   OH277676   1.670   1.752   3.792  0.1324 -0.0522 -0.3889
18754TIP3    H177677   1.761   1.733   3.811 -0.6459 -1.6920  1.8979
18754TIP3    H277678   1.646   1.821   3.854  0.0623  1.0741 -1.6401
18755TIP3   OH277679   0.879   2.124   3.288 -0.2978  0.3442  0.2581
18755TIP3    H177680   0.854   2.199   3.234 -0.7344  0.1121  0.1444
18755TIP3    H277681   0.828   2.051   3.254 -0.5667  0.1969  0.9747
18756TIP3   OH277682   5.577   3.960   0.435  0.1643  0.7482 -0.4446
18756TIP3    H177683   5.617   4.030   0.486 -0.0654  1.0926 -0.7279
18756TIP3    H277684   5.650   3.905   0.408  0.7700  2.7034 -3.0162
18757TIP3   OH277685   6.680   0.330  14.771  0.3389 -0.1907  0.3990
18757TIP3    H177686   6.731   0.285  14.838  0.6352  1.7869  1.5100
18757TIP3    H277687   6.712   0.293  14.688  1.4494 -1.1077  1.2224
18758TIP3   OH277688   2.977   5.122   4.584 -0.4191 -0.5003 -0.2382
18758TIP3    H177689   2.985   5.046   4.527  0.7301 -0.0290 -0.7248
18758TIP3    H277690   2.939   5.190   4.530  0.9345  0.0323 -0.5443
18759TIP3   OH277691   1.083   3.864  14.446  0.1921  0.0733  0.1620
18759TIP3    H177692   1.119   3.859  14.535  0.1746  0.2453  0.1796
18759TIP3    H277693   1.019   3.792  14.442 -1.1179  1.1702  0.8899
18760TIP3   OH277694   5.720   2.261   0.193  0.1925  0.3868 -0.2012
18760TIP3    H177695   5.760   2.332   0.144 -1.7789  1.0970 -0.8339
18760TIP3    H277696   5.781   2.244   0.265  1.1394  2.0581 -0.5785
18761TIP3   OH277697   2.945   2.891   4.270 -0.3684 -0.5649 -0.0048
18761TIP3    H177698   2.869   2.867   4.324  0.3546  1.5499  2.0428
18761TIP3    H277699   2.923   2.976   4.234  0.6320 -0.3911 -0.2154
18762TIP3   OH277700   6.738   6.415  13.943  0.2016 -0.2569 -0.1381
18762TIP3    H177701   6.804   6.361  13.986  1.8701  1.1098 -0.9179
18762TIP3    H277702   6.746   6.395  13.850 -0.2391  0.1856 -0.2772
18763TIP3   OH277703   2.698   5.433  13.976 -0.4522  0.3392 -0.2436
18763TIP3    H177704   2.618   5.471  13.940 -1.2294 -0.8591  0.1724
18763TIP3    H277705   2.667   5.369  14.040  0.8783  2.2243  2.3858
18764TIP3   OH277706   4.843   4.544  15.109 -0.2584  0.1302  0.0861
18764TIP3    H177707   4.864   4.450  15.110 -0.1688  0.1540  0.9993
18764TIP3    H277708   4.823   4.563  15.017 -0.4163 -0.8139 -0.0804
18765TIP3   OH277709   2.665   0.121   1.798  0.0692  0.0638  0.1606
18765TIP3    H177710   2.655   0.026   1.786  1.3139 -0.4069  2.4537
18765TIP3    H277711   2.729   0.146   1.731 -0.9136 -0.5213 -1.0408
18766TIP3   OH277712   5.408   4.088   6.711  0.2886  0.0074 -0.2115
18766TIP3    H177713   5.494   4.054   6.687  1.5192  2.5585  0.4910
18766TIP3    H277714   5.352   4.064   6.637  1.5758 -1.6431 -0.7006
18767TIP3   OH277715   5.431   0.240  13.733  0.0480  0.2798 -0.0188
18767TIP3    H177716   5.440   0.218  13.640 -1.2986 -1.0637  0.1560
18767TIP3    H277717   5.437   0.156  13.779  1.3234  0.9935  1.1786
18768TIP3   OH277718   2.286   4.721  14.974 -0.0373 -0.1804  0.4280
18768TIP3    H177719   2.320   4.753  15.058 -0.0467 -0.6522  0.6114
18768TIP3    H277720   2.323   4.633  14.965 -0.4005 -0.3049  0.1543
18769TIP3   OH277721   1.924   0.353  17.179  0.1080 -0.2553  0.3809
18769TIP3    H177722   2.012   0.362  17.216 -0.1030  1.0145  0.6020
18769TIP3    H277723   1.886   0.441  17.186 -1.0929 -0.7398  0.0748
18770TIP3   OH277724   0.877   3.864   0.587  0.3312 -0.2081 -0.0890
18770TIP3    H177725   0.864   3.848   0.681  1.2121 -1.0948 -0.1184
18770TIP3    H277726   0.792   3.896   0.557 -0.8356 -2.7379  0.4085
18771TIP3   OH277727   3.790   2.218   2.501  1.0621 -0.6088 -0.4574
18771TIP3    H177728   3.823   2.260   2.422 -0.3652  1.0010 -0.2357
18771TIP3    H277729   3.826   2.129   2.498 -0.6292 -1.2634 -3.9968
18772TIP3   OH277730   5.705   5.706  16.692  0.5421 -0.5870  0.2784
18772TIP3    H177731   5.769   5.766  16.651 -0.3986 -0.6911 -1.3997
18772TIP3    H277732   5.699   5.633  16.631 -4.6429  1.5410 -2.1186
18773TIP3   OH277733   1.271   5.189  15.945 -0.4052  0.2311  0.0484
18773TIP3    H177734   1.213   5.261  15.919 -0.7407  0.1011  0.4420
18773TIP3    H277735   1.227   5.110  15.914 -1.4552 -0.0371  2.1443
18774TIP3   OH277736   2.502   6.676  15.709 -0.3404  0.0081 -0.3996
18774TIP3    H177737   2.556   6.598  15.708  1.9129  1.5022  0.4216
18774TIP3    H277738   2.438   6.660  15.779 -0.3853 -1.3978 -0.7519
18775TIP3   OH277739   1.371   1.067  12.596 -0.1026 -0.0732  0.6031
18775TIP3    H177740   1.391   0.995  12.537 -0.3562  0.2313  0.1388
18775TIP3    H277741   1.295   1.110  12.557  1.2412  1.6534 -0.1975
18776TIP3   OH277742   4.354   6.601   2.295 -0.1430  0.0799 -0.5280
18776TIP3    H177743   4.363   6.613   2.200 -0.3070 -0.2748 -0.5897
18776TIP3    H277744   4.444   6.589   2.325  0.1922  2.9029 -0.2473
18777TIP3   OH277745   3.206   4.515   4.890 -0.0848 -0.7919 -0.0239
18777TIP3    H177746   3.126   4.563   4.869 -0.0795 -0.7129  0.1373
18777TIP3    H277747   3.260   4.524   4.811 -0.3703 -1.1343 -0.2615
18778TIP3   OH277748   0.229   4.059  12.725  0.3033  0.1641  0.1409
18778TIP3    H177749   0.241   4.148  12.758 -1.9263  0.8419 -0.8315
18778TIP3    H277750   0.138   4.037  12.746  0.5293 -1.5029 -0.5420
18779TIP3   OH277751   4.280   4.849   5.141  0.4803  0.5139 -0.2301
18779TIP3    H177752   4.271   4.822   5.232  0.3801  0.8735 -0.1337
18779TIP3    H277753   4.196   4.889   5.119  0.5805  0.6268 -0.4128
18780TIP3   OH277754   6.213   6.671   3.284 -0.0477 -0.0495 -0.1917
18780TIP3    H177755   6.197   6.623   3.364  1.3219 -1.4155 -0.7153
18780TIP3    H277756   6.126   6.688   3.248 -0.6294 -0.0963  1.1714
18781TIP3   OH277757   4.865   5.167  17.178  0.0389  0.2473 -0.1496
18781TIP3    H177758   4.849   5.078  17.147  1.0644 -0.0651  0.2191
18781TIP3    H277759   4.811   5.174  17.257 -1.1613  0.4423 -0.9654
18782TIP3   OH277760   4.136   5.684  12.357  0.2791  0.2269  0.2713
18782TIP3    H177761   4.224   5.659  12.382 -0.5634 -2.4096  0.7175
18782TIP3    H277762   4.122   5.641  12.272 -0.2405  1.4630 -0.2925
18783TIP3   OH277763   6.149   1.228  14.272  0.3288  0.2783 -0.0477
18783TIP3    H177764   6.084   1.247  14.339 -2.2761  3.0675 -3.1908
18783TIP3    H277765   6.221   1.289  14.290 -0.8670  1.8262 -0.4552
18784TIP3   OH277766   5.730   5.620   0.339 -0.8656 -0.2722  0.6573
18784TIP3    H177767   5.671   5.604   0.412 -0.3372 -1.3098  0.8716
18784TIP3    H277768   5.780   5.538   0.330 -0.8563 -0.1290 -0.7942
18785TIP3   OH277769   0.092   0.016  13.675 -0.1582 -0.3369  0.1343
18785TIP3    H177770   0.156  -0.041  13.718 -0.9181 -0.8253  0.6341
18785TIP3    H277771   0.084   0.092  13.733  0.3058 -0.0595 -0.1609
18786TIP3   OH277772   5.074   1.139  14.612 -0.4300  0.2554  0.2431
18786TIP3    H177773   5.002   1.174  14.560 -0.5754 -0.0622  0.2305
18786TIP3    H277774   5.141   1.207  14.610 -0.5121  0.3214 -0.2005
18787TIP3   OH277775   1.991   0.400   6.624  0.3853  0.1811  0.0613
18787TIP3    H177776   1.947   0.459   6.563  2.7970  0.3443 -1.6051
18787TIP3    H277777   1.930   0.327   6.635 -0.0769  0.1071 -2.6558
18788TIP3   OH277778   2.002   3.169   1.742  0.4222  0.8625 -0.1403
18788TIP3    H177779   1.930   3.161   1.804 -1.2943  1.2823 -2.0183
18788TIP3    H277780   2.056   3.091   1.757 -0.8027  0.1917  0.8391
18789TIP3   OH277781   5.741   1.968  15.988 -0.0084  0.3487  0.1662
18789TIP3    H177782   5.755   1.968  15.893 -2.4191  1.5902 -0.2243
18789TIP3    H277783   5.807   1.906  16.022 -0.1009 -1.2685 -2.4496
18790TIP3   OH277784   6.134   0.073  12.153  0.0353 -0.4424 -0.3984
18790TIP3    H177785   6.085   0.085  12.072  0.0386 -2.1453 -0.6729
18790TIP3    H277786   6.074   0.023  12.210  0.3786 -0.0532  0.3154
18791TIP3   OH277787   1.459   6.766   5.360 -0.3725  0.4666  0.3449
18791TIP3    H177788   1.373   6.807   5.370 -0.9759 -0.6523 -0.1159
18791TIP3    H277789   1.495   6.763   5.449 -0.8378  0.8683  0.5501
18792TIP3   OH277790   1.697   1.404   2.339 -0.1475 -0.2639  0.1756
18792TIP3    H177791   1.697   1.382   2.246 -0.9296  0.1088  0.0840
18792TIP3    H277792   1.630   1.348   2.378  1.4883 -1.7820  0.8568
18793TIP3   OH277793   3.875   4.976   4.377 -0.9559 -0.3803 -0.1827
18793TIP3    H177794   3.871   5.066   4.344 -0.4507  0.0862  0.9613
18793TIP3    H277795   3.948   4.936   4.329 -1.3289 -0.2449 -0.8585
18794TIP3   OH277796   4.022   6.347   2.931 -0.0711 -0.9163  0.7529
18794TIP3    H177797   3.966   6.379   2.860  0.5407  0.0086  0.6851
18794TIP3    H277798   4.103   6.320   2.887  0.4234 -0.0524  1.1369
18795TIP3   OH277799   2.928   2.782  10.633 -0.1425 -0.0464 -0.0471
18795TIP3    H177800   2.976   2.701  10.612  0.0648 -0.2765  1.3101
18795TIP3    H277801   2.937   2.835  10.554  2.0759 -0.2169  0.0562
18796TIP3   OH277802   1.467   1.846   1.382  0.5649  0.2483 -0.3778
18796TIP3    H177803   1.495   1.806   1.464  1.6743  0.7490 -0.4964
18796TIP3    H277804   1.549   1.864   1.335  0.0863  2.2838 -0.4913
18797TIP3   OH277805   4.127   2.120  11.187 -0.6717 -0.1728 -0.4689
18797TIP3    H177806   4.189   2.161  11.247  0.0577  0.6785 -1.7948
18797TIP3    H277807   4.086   2.194  11.141 -3.6113 -0.6306  1.2766
18798TIP3   OH277808   0.321   2.598   5.569  0.2377  0.3281 -0.9237
18798TIP3    H177809   0.246   2.564   5.616 -1.3891  1.0341 -2.9366
18798TIP3    H277810   0.374   2.641   5.636 -0.6114 -1.0391  0.6758
18799TIP3   OH277811   3.240   2.976   5.845 -0.0483  0.5433  0.3978
18799TIP3    H177812   3.237   2.895   5.794 -0.1457  0.1875  0.9623
18799TIP3    H277813   3.149   2.997   5.862  0.0212 -0.3719  2.0303
18800TIP3   OH277814   2.425   1.166   5.997 -0.0932  0.5412  0.3313
18800TIP3    H177815   2.491   1.234   6.012  2.3771 -1.9411  1.0551
18800TIP3    H277816   2.465   1.107   5.934 -1.3831 -1.3304  1.2086
18801TIP3   OH277817   4.679   3.804  15.938 -0.0400 -0.0845  0.2229
18801TIP3    H177818   4.705   3.781  15.849  2.1563  1.7396  0.3492
18801TIP3    H277819   4.686   3.722  15.987  2.6239 -0.2858 -0.4316
18802TIP3   OH277820   2.541   0.353  13.147  0.4604 -0.7845 -0.2244
18802TIP3    H177821   2.455   0.389  13.166  0.6104 -0.5737  0.0594
18802TIP3    H277822   2.539   0.334  13.053  0.5550  0.4615 -0.4908
18803TIP3   OH277823   6.357   0.647  10.255 -0.0401 -0.1597  0.5783
18803TIP3    H177824   6.427   0.596  10.214  0.4920  1.8189 -1.1000
18803TIP3    H277825   6.286   0.585  10.267  1.0924 -1.6227 -0.0851
18804TIP3   OH277826   3.034   6.014   2.551 -0.1526  0.1570  0.4742
18804TIP3    H177827   2.998   6.073   2.485  2.2973  1.9526  0.6747
18804TIP3    H277828   3.086   6.071   2.608  3.0724 -2.3037  0.1342
18805TIP3   OH277829   5.236   6.146   3.082  0.1656 -0.5455 -0.8843
18805TIP3    H177830   5.145   6.117   3.077  0.0112  0.1383 -2.5323
18805TIP3    H277831   5.263   6.129   3.172 -1.5923 -0.7695 -0.3959
18806TIP3   OH277832   3.310   2.333  13.710 -0.2417  0.6389  0.2994
18806TIP3    H177833   3.252   2.391  13.760  0.8395  1.8827  0.1419
18806TIP3    H277834   3.389   2.328  13.763  0.3296  0.7012 -0.5511
18807TIP3   OH277835   4.090   2.820  12.245 -0.4086 -0.2198 -0.5979
18807TIP3    H177836   4.142   2.789  12.319  1.5799  0.8897 -1.4745
18807TIP3    H277837   4.068   2.911  12.267  0.5557  0.2543 -1.5267
18808TIP3   OH277838   0.420   6.653  12.878  0.1085 -0.3460  0.4805
18808TIP3    H177839   0.450   6.586  12.940  1.3602 -0.6425 -0.4297
18808TIP3    H277840   0.339   6.617  12.842  2.2803 -2.8387 -2.2207
18809TIP3   OH277841   2.193   1.375  16.428  0.1937 -1.3487  0.1166
18809TIP3    H177842   2.137   1.422  16.490  3.1191 -0.1156  1.9169
18809TIP3    H277843   2.261   1.335  16.482  2.5226 -0.6715 -2.1860
18810TIP3   OH277844   1.877   3.131   0.389 -0.0340 -0.1120 -0.2077
18810TIP3    H177845   1.907   3.057   0.442 -0.2496  0.9352  1.4227
18810TIP3    H277846   1.803   3.096   0.339  0.3154 -1.1789  0.0001
18811TIP3   OH277847   0.168   3.420   3.188  0.5098  0.1086 -0.0003
18811TIP3    H177848   0.150   3.461   3.273  0.5821  0.0534  0.0419
18811TIP3    H277849   0.112   3.342   3.187 -0.3098  0.6944 -0.4584
18812TIP3   OH277850   4.253   6.354   0.969  0.8390 -0.0317  0.0922
18812TIP3    H177851   4.245   6.445   0.995 -1.0580 -0.4147  0.9594
18812TIP3    H277852   4.329   6.352   0.911 -1.0984  2.7468 -2.7252
18813TIP3   OH277853   6.384   0.224   0.092  0.1752  0.7031  0.1170
18813TIP3    H177854   6.371   0.171   0.013  1.1279  0.2359  0.2583
18813TIP3    H277855   6.320   0.294   0.085 -0.2819  0.2179 -0.6830
18814TIP3   OH277856   6.197   6.393  15.384  0.3309  0.0971 -0.0502
18814TIP3    H177857   6.158   6.337  15.317 -0.6652 -1.1143  1.5203
18814TIP3    H277858   6.142   6.472  15.383  0.1993  0.0015 -0.5078
18815TIP3   OH277859   3.207   1.178   1.810 -0.1534  0.3549  0.5597
18815TIP3    H177860   3.260   1.257   1.806  1.3882 -0.5581  2.1841
18815TIP3    H277861   3.261   1.111   1.769 -0.6093 -0.2842  0.9956
18816TIP3   OH277862   0.574   4.960   2.442  0.0302 -0.4096  0.1010
18816TIP3    H177863   0.585   4.915   2.358  0.3797 -2.6442  1.2832
18816TIP3    H277864   0.661   4.960   2.481 -0.0640  0.9154  0.3305
18817TIP3   OH277865   0.302   4.347   2.001 -0.1161  0.2737  0.2599
18817TIP3    H177866   0.390   4.370   1.970  0.4597  0.0959  1.7168
18817TIP3    H277867   0.309   4.349   2.097 -2.1712  2.0072  0.4106
18818TIP3   OH277868   0.833   2.619   7.036  0.0465  0.3511  0.3433
18818TIP3    H177869   0.820   2.525   7.048 -2.3457  0.4648 -1.1529
18818TIP3    H277870   0.862   2.628   6.945  2.2840  0.9175  1.0736
18819TIP3   OH277871   2.658   0.392  16.561 -0.4645 -0.5583  0.7127
18819TIP3    H177872   2.690   0.404  16.472 -1.6086 -1.0953  0.2111
18819TIP3    H277873   2.640   0.298  16.568 -1.1778 -0.3949  1.2205
18820TIP3   OH277874   4.114   5.682   0.816  0.3522 -0.2821 -0.5128
18820TIP3    H177875   4.031   5.723   0.789 -0.4455 -1.5544 -0.0479
18820TIP3    H277876   4.179   5.751   0.805 -0.6635  0.5430 -1.5206
18821TIP3   OH277877   2.847   3.466  14.097  0.1384  0.1772  0.1215
18821TIP3    H177878   2.894   3.546  14.076 -0.0983 -0.2407 -2.2469
18821TIP3    H277879   2.915   3.405  14.125  0.4901  0.8003  0.6274
18822TIP3   OH277880   0.148   5.480   5.725 -0.4546 -0.2120  0.2784
18822TIP3    H177881   0.161   5.573   5.742 -1.0764 -0.3487  1.5591
18822TIP3    H277882   0.152   5.439   5.811 -0.9485 -1.2780 -0.1950
18823TIP3   OH277883   4.155   4.415  13.059 -0.7385  0.3444  0.8563
18823TIP3    H177884   4.244   4.384  13.043  0.1023  3.2007 -0.3115
18823TIP3    H277885   4.099   4.345  13.027  1.0708 -0.2525 -1.1277
18824TIP3   OH277886   3.606   4.482   4.264 -0.0838 -0.1194  0.1286
18824TIP3    H177887   3.628   4.568   4.301  0.4894 -0.9297  1.7005
18824TIP3    H277888   3.688   4.452   4.225  1.1239 -2.0823  3.8949
18825TIP3   OH277889   5.826   3.763   5.358 -0.4020 -0.4427  0.0012
18825TIP3    H177890   5.784   3.684   5.391 -2.9326  0.6670 -0.5032
18825TIP3    H277891   5.767   3.796   5.290  1.6494  0.7356 -1.2767
18826TIP3   OH277892   2.777   6.368   5.656 -0.1061 -0.2104 -0.4458
18826TIP3    H177893   2.806   6.457   5.674 -2.8446  0.3347  1.6347
18826TIP3    H277894   2.845   6.312   5.692  0.0045  1.0377  1.3236
18827TIP3   OH277895   6.029   1.917   3.078  0.6104  0.2142 -0.3165
18827TIP3    H177896   5.970   1.863   3.131  0.5515  0.6367  0.0591
18827TIP3    H277897   6.012   2.006   3.108  0.9492  0.4064 -0.6922
18828TIP3   OH277898   1.788   1.260   4.067  0.0660 -0.6617  0.4367
18828TIP3    H177899   1.798   1.186   4.126  2.1556 -0.1075  0.7994
18828TIP3    H277900   1.844   1.238   3.992  0.2498  0.3008  0.2931
18829TIP3   OH277901   2.269   1.123   0.879  0.7197  0.6129  0.2193
18829TIP3    H177902   2.311   1.134   0.964  1.4915  1.0029 -0.2046
18829TIP3    H277903   2.334   1.155   0.816 -0.0265  0.7638 -0.4800
18830TIP3   OH277904   4.442   2.088  12.721  0.1576 -0.2362 -0.0459
18830TIP3    H177905   4.499   2.042  12.660 -0.4583  0.7925 -1.4302
18830TIP3    H277906   4.499   2.147  12.769  0.7619 -1.5733  0.9072
18831TIP3   OH277907   4.791   4.025  15.071 -0.2849  0.8298  0.1787
18831TIP3    H177908   4.853   4.003  15.141  1.1631  0.2915 -1.2428
18831TIP3    H277909   4.762   3.940  15.039  0.3673  1.0531 -1.0109
18832TIP3   OH277910   2.047   5.880  11.208 -0.5365 -0.2606 -0.1490
18832TIP3    H177911   1.962   5.874  11.164 -0.3744 -1.5566 -0.3115
18832TIP3    H277912   2.106   5.917  11.142 -0.4013 -1.7554 -0.8972
18833TIP3   OH277913   2.728   1.204  13.355  0.9109  0.0391  0.2039
18833TIP3    H177914   2.703   1.296  13.360 -1.9268 -0.6363 -0.8841
18833TIP3    H277915   2.685   1.163  13.430 -0.4211 -0.9446 -1.0736
18834TIP3   OH277916   1.163   6.480   2.874 -0.1907  0.3543  0.0370
18834TIP3    H177917   1.248   6.524   2.870  0.5118 -0.9684  0.2374
18834TIP3    H277918   1.102   6.543   2.835  0.8469  1.3835  0.0490
18835TIP3   OH277919   2.315   1.628  15.063 -0.6052 -0.0950 -0.6480
18835TIP3    H177920   2.229   1.670  15.067 -1.4330 -1.7698 -0.3276
18835TIP3    H277921   2.372   1.684  15.117 -0.8413  2.4467 -2.9441
18836TIP3   OH277922   5.459   2.667  16.328 -0.0917 -0.0625  0.3237
18836TIP3    H177923   5.455   2.758  16.355  0.5198  0.5594 -1.5952
18836TIP3    H277924   5.440   2.617  16.407 -0.0900  1.7165  1.4587
18837TIP3   OH277925   4.894   2.913  12.261 -0.0993  0.7543  0.2370
18837TIP3    H177926   4.906   2.920  12.356  1.1962  0.5652  0.0982
18837TIP3    H277927   4.803   2.887  12.250 -0.1549  0.4082  1.4466
18838TIP3   OH277928   1.643   3.025   0.503  1.1028 -0.2874  0.2504
18838TIP3    H177929   1.579   3.060   0.566  1.5814  0.9374  0.0721
18838TIP3    H277930   1.707   2.979   0.557  1.5245  0.7821  0.6748
18839TIP3   OH277931   0.022   4.364   5.538 -0.0377  0.1127  0.2177
18839TIP3    H177932  -0.033   4.294   5.573 -1.2114  1.0103  0.2432
18839TIP3    H277933   0.069   4.398   5.614 -0.9067  0.5937  0.5503
18840TIP3   OH277934   0.396   2.126   5.256 -1.1705 -0.3060 -0.4459
18840TIP3    H177935   0.479   2.087   5.232 -1.1796 -0.9261  0.5024
18840TIP3    H277936   0.407   2.152   5.348 -1.5898  0.7687 -0.6901
18841TIP3   OH277937   1.817   0.904   3.913 -0.4509 -0.3304 -0.2778
18841TIP3    H177938   1.725   0.876   3.918 -0.5262  0.3252  2.5224
18841TIP3    H277939   1.814   0.984   3.861 -1.8111  1.0264  1.8512
18842TIP3   OH277940   1.599   0.989  16.741 -0.0008  0.1739  0.3905
18842TIP3    H177941   1.529   0.923  16.736 -0.4984  0.7408 -0.2045
18842TIP3    H277942   1.553   1.073  16.742  0.7071  0.5959 -1.1603
18843TIP3   OH277943   3.482   5.074   3.430  0.1696  0.2723 -0.0019
18843TIP3    H177944   3.538   5.121   3.368 -0.1932  0.4954 -0.1614
18843TIP3    H277945   3.529   5.080   3.514  0.3323  0.5558 -0.1111
18844TIP3   OH277946   2.256   2.066  16.495  0.0057  0.4819 -0.6622
18844TIP3    H177947   2.351   2.072  16.480 -0.1450  2.6294 -0.8617
18844TIP3    H277948   2.224   2.015  16.421  1.0004 -0.3015 -0.5717
18845TIP3   OH277949   6.260   6.222   1.522  0.1631 -0.3192  0.7804
18845TIP3    H177950   6.207   6.146   1.496  0.3451 -1.1847  2.8752
18845TIP3    H277951   6.345   6.208   1.480 -0.9013  0.5783 -1.7902
18846TIP3   OH277952   4.575   5.255  15.251 -0.1864  0.2258 -0.2787
18846TIP3    H177953   4.482   5.278  15.247 -0.1073  0.7708  0.9314
18846TIP3    H277954   4.583   5.197  15.326  0.7823  1.8525  0.9345
18847TIP3   OH277955   5.435   4.863  11.519  0.6822  0.1695 -0.1764
18847TIP3    H177956   5.445   4.903  11.605  0.7918 -0.2786  0.0184
18847TIP3    H277957   5.512   4.807  11.510  0.2689 -0.3814 -0.2471
18848TIP3   OH277958   0.818   3.894  16.920  0.2952 -0.0305  0.5093
18848TIP3    H177959   0.765   3.823  16.956 -0.1565 -0.7018 -1.4150
18848TIP3    H277960   0.820   3.877  16.826  2.5214  0.9482  0.3531
18849TIP3   OH277961   4.579   3.269  11.329 -0.1373 -0.0773  0.1197
18849TIP3    H177962   4.625   3.329  11.388 -1.8717  1.4198 -0.0055
18849TIP3    H277963   4.602   3.299  11.242 -1.5072  0.8361  0.0546
18850TIP3   OH277964   3.300   0.319  12.430 -0.0697  0.0665 -0.0713
18850TIP3    H177965   3.336   0.405  12.450  0.8341  0.1469 -1.9326
18850TIP3    H277966   3.226   0.337  12.371 -1.6535 -0.2676  1.7569
18851TIP3   OH277967   1.541   2.767   2.533 -0.4707 -0.8273 -0.5133
18851TIP3    H177968   1.527   2.678   2.500  2.1661 -0.7702 -1.9579
18851TIP3    H277969   1.548   2.821   2.454  0.5095  0.2257  0.2751
18852TIP3   OH277970   6.133   5.279   1.948  0.0208  0.2547  0.1000
18852TIP3    H177971   6.177   5.246   2.027 -0.4764  0.3080  0.4022
18852TIP3    H277972   6.146   5.210   1.883 -2.3649 -1.2885  1.1848
18853TIP3   OH277973   2.033   3.033  13.617  0.3124 -0.2095 -0.1218
18853TIP3    H177974   2.008   3.110  13.566 -1.3130 -0.4636  0.2428
18853TIP3    H277975   1.951   3.006  13.660  1.3037 -0.9300  1.3592
18854TIP3   OH277976   5.725   0.472  14.161 -0.5087  0.2334  0.5173
18854TIP3    H177977   5.672   0.454  14.083 -1.2135 -0.5926  1.1914
18854TIP3    H277978   5.723   0.391  14.211  1.8337 -0.0096  0.3028
18855TIP3   OH277979   5.047   4.770  14.510  0.3240 -0.5250 -0.0928
18855TIP3    H177980   5.130   4.790  14.468  0.3829  0.6132  0.5326
18855TIP3    H277981   4.980   4.799  14.448  0.3813 -1.4979 -0.6219
18856TIP3   OH277982   3.389   4.776  12.170 -0.5874 -0.1083  0.5221
18856TIP3    H177983   3.456   4.722  12.211 -0.7306  0.4583  1.5075
18856TIP3    H277984   3.406   4.769  12.076  0.4447 -0.4818  0.7401
18857TIP3   OH277985   4.813   6.743   3.819 -0.2358  0.3989 -0.0012
18857TIP3    H177986   4.808   6.814   3.883  0.7763 -0.5492  1.1551
18857TIP3    H277987   4.779   6.666   3.866  0.1722 -0.2290 -0.7235
18858TIP3   OH277988   6.176   5.355  16.943 -0.0407  0.4205  0.1895
18858TIP3    H177989   6.149   5.290  17.008 -0.9181  1.5656  0.9689
18858TIP3    H277990   6.105   5.418  16.941  0.6982  1.2270 -0.7645
18859TIP3   OH277991   1.560   3.626   1.329 -0.3256 -0.4110  0.1811
18859TIP3    H177992   1.513   3.627   1.412  0.5965 -1.0802  0.7339
18859TIP3    H277993   1.492   3.618   1.262 -1.2713  2.5582  0.6889
18860TIP3   OH277994   6.272   0.224   2.273 -0.6031 -0.4967 -0.3499
18860TIP3    H177995   6.210   0.276   2.324 -1.6467 -2.3304  0.3069
18860TIP3    H277996   6.257   0.250   2.182  0.0426  1.5219  0.0998
18861TIP3   OH277997   5.261   2.289  14.143 -0.0327 -0.1719 -0.3151
18861TIP3    H177998   5.294   2.378  14.156 -0.1883  0.0764 -1.5561
18861TIP3    H277999   5.191   2.299  14.079  0.0517 -1.2144 -0.5669
18862TIP3   OH278000   6.641   1.513   1.051 -0.2545  0.0870 -0.2720
18862TIP3    H178001   6.653   1.607   1.060 -1.5960  0.3050 -0.5425
18862TIP3    H278002   6.592   1.487   1.129  1.9400 -0.7671  0.8532
18863TIP3   OH278003   3.513   5.260  16.857  0.9578  0.0684 -0.3920
18863TIP3    H178004   3.541   5.169  16.854  0.5138 -0.2908  3.4261
18863TIP3    H278005   3.578   5.303  16.912  0.8577  1.9578 -1.7120
18864TIP3   OH278006   0.561   6.267   5.647 -0.3202  0.6529 -0.4254
18864TIP3    H178007   0.478   6.222   5.634 -0.6743  1.1078  0.2335
18864TIP3    H278008   0.590   6.238   5.734  0.4258  0.1597 -0.8311
18865TIP3   OH278009   5.961   4.905   5.479 -0.5228  0.3138 -0.0046
18865TIP3    H178010   5.871   4.874   5.476 -0.4518  0.1115 -0.0630
18865TIP3    H278011   6.011   4.829   5.511 -0.3848  0.4490  0.1014
18866TIP3   OH278012   1.584   6.462  16.835  0.5722 -0.3786 -0.1743
18866TIP3    H178013   1.621   6.374  16.821 -2.4891 -1.9836  1.2539
18866TIP3    H278014   1.497   6.445  16.870  0.2393  3.3002  0.9177
18867TIP3   OH278015   1.938   1.808  13.951  0.2274 -0.2346 -0.1260
18867TIP3    H178016   1.958   1.880  14.010  1.1577 -1.5668  1.2166
18867TIP3    H278017   1.852   1.777  13.979  0.1656 -0.1405 -0.2107
18868TIP3   OH278018   3.731   0.382  14.852 -0.2911 -0.0637 -0.2719
18868TIP3    H178019   3.650   0.429  14.873 -0.3323 -0.3582  0.2454
18868TIP3    H278020   3.801   0.443  14.875 -0.3414 -0.2935  0.5093
18869TIP3   OH278021   1.328   5.143   6.166 -0.7306 -0.1870  0.0321
18869TIP3    H178022   1.401   5.082   6.155 -1.6940 -1.2538 -0.4734
18869TIP3    H278023   1.345   5.213   6.102  0.4634  0.1819  0.7407
18870TIP3   OH278024   2.857   6.642  15.491 -0.2972 -0.0528  0.1128
18870TIP3    H178025   2.900   6.712  15.539  0.5721 -1.5912  1.6065
18870TIP3    H278026   2.916   6.623  15.418 -0.5280  0.7380 -0.2888
18871TIP3   OH278027   6.125   3.966   1.029  0.0742 -0.0408 -0.0883
18871TIP3    H178028   6.078   4.036   0.985 -1.4722 -1.4301 -0.7001
18871TIP3    H278029   6.200   3.948   0.973 -0.8227 -0.4746 -1.1651
18872TIP3   OH278030   3.503   2.241   0.045  0.3798  0.1107 -0.2269
18872TIP3    H178031   3.484   2.148   0.040  4.4362 -0.8935  0.9307
18872TIP3    H278032   3.537   2.263  -0.041 -1.1987  0.7296 -0.7134
18873TIP3   OH278033   5.051   5.157  11.560 -0.2804 -0.7336 -0.4570
18873TIP3    H178034   5.011   5.150  11.646  0.1903 -0.4122 -0.2162
18873TIP3    H278035   5.103   5.237  11.563 -0.0649 -0.8511 -0.9566
18874TIP3   OH278036   6.369   2.692   3.440 -0.1080  0.7171 -0.1047
18874TIP3    H178037   6.400   2.721   3.526  1.2922 -2.0210  0.3615
18874TIP3    H278038   6.432   2.729   3.378  2.6070 -2.4657  0.6131
18875TIP3   OH278039   3.495   2.720   5.339 -0.1192  0.2208 -0.4144
18875TIP3    H178040   3.480   2.651   5.274 -2.6036 -0.5296  0.9066
18875TIP3    H278041   3.422   2.781   5.327  0.1220  0.7561  0.8152
18876TIP3   OH278042   5.879   4.375  16.519 -0.0797  0.1085 -0.4611
18876TIP3    H178043   5.956   4.424  16.549 -0.0930  0.1848 -0.5497
18876TIP3    H278044   5.823   4.369  16.596 -0.2835  0.6306 -0.5652
18877TIP3   OH278045   6.270   5.426  13.097  0.2378  0.4846  0.1449
18877TIP3    H178046   6.283   5.430  13.002 -0.9744 -0.6847 -0.0850
18877TIP3    H278047   6.183   5.386  13.108 -0.5309  2.5347  1.7194
18878TIP3   OH278048   0.023   2.700   1.326 -0.0508  0.0113 -0.0777
18878TIP3    H178049   0.005   2.609   1.350 -0.7561 -0.0865 -0.9798
18878TIP3    H278050  -0.063   2.742   1.325  0.2298  0.5860 -0.0894
18879TIP3   OH278051   1.963   3.795  12.329 -0.3594  0.1468  0.5056
18879TIP3    H178052   1.965   3.703  12.302 -1.0022  0.2420  0.1278
18879TIP3    H278053   1.888   3.800  12.389 -1.8677  0.9587 -1.4267
18880TIP3   OH278054   0.519   2.471   4.788 -0.1774  0.2717 -0.1629
18880TIP3    H178055   0.500   2.472   4.694 -0.1596 -0.7795 -0.1796
18880TIP3    H278056   0.433   2.465   4.830 -0.0305 -2.4570 -0.1922
18881TIP3   OH278057   0.971   1.885  16.805  0.2679  0.1198 -0.0044
18881TIP3    H178058   0.948   1.831  16.880 -1.1562  0.3940 -0.2332
18881TIP3    H278059   0.986   1.973  16.841  0.1755  0.1187  0.0333
18882TIP3   OH278060   1.262   2.843   3.967  0.1175 -0.3429 -0.6604
18882TIP3    H178061   1.282   2.918   3.912  1.2251 -0.9696 -1.1252
18882TIP3    H278062   1.166   2.844   3.976  0.2542  2.4980  1.3058
18883TIP3   OH278063   2.695   5.246  16.975  0.3331  0.3914 -0.5907
18883TIP3    H178064   2.659   5.291  17.052  1.2354  1.4936 -0.7976
18883TIP3    H278065   2.654   5.290  16.900 -0.6310 -0.7584 -0.7478
18884TIP3   OH278066   5.644   4.571   4.283 -0.0838  0.4307  0.2044
18884TIP3    H178067   5.578   4.560   4.352  0.6438 -1.3016  0.6535
18884TIP3    H278068   5.608   4.525   4.208  0.8773 -1.0845  0.6491
18885TIP3   OH278069   1.840   0.095   4.568 -0.4874  0.7986  0.0942
18885TIP3    H178070   1.771   0.041   4.606 -0.9873  0.2041 -1.6323
18885TIP3    H278071   1.814   0.185   4.588 -0.7347  0.5071  1.1406
18886TIP3   OH278072   1.127   0.778  11.302 -0.0712 -0.5523  0.3513
18886TIP3    H178073   1.205   0.731  11.329 -1.0215 -2.5920 -0.3636
18886TIP3    H278074   1.111   0.841  11.372  1.2466 -1.2655  1.3044
18887TIP3   OH278075   3.263   0.675  11.148 -0.5004 -0.4377 -0.5830
18887TIP3    H178076   3.234   0.766  11.159  0.4469 -0.2197  0.1368
18887TIP3    H278077   3.282   0.667  11.054  1.4967  0.7388 -0.3026
18888TIP3   OH278078   3.762   3.251  12.712 -0.0773 -0.1045  0.4384
18888TIP3    H178079   3.706   3.177  12.734 -0.5233 -0.1740 -0.8931
18888TIP3    H278080   3.707   3.328  12.724 -0.1501 -0.1049  0.1041
18889TIP3   OH278081   6.197   5.260  13.545  0.1829  0.9160 -0.5696
18889TIP3    H178082   6.291   5.261  13.561  0.0686  2.6716  0.1919
18889TIP3    H278083   6.176   5.349  13.517 -0.8724 -0.1193 -3.2210
18890TIP3   OH278084   3.280   4.914  10.530 -0.2810  0.1949 -0.0084
18890TIP3    H178085   3.282   4.927  10.624  2.2301  1.0308 -0.1404
18890TIP3    H278086   3.363   4.951  10.499 -0.7299 -0.7625 -2.4456
18891TIP3   OH278087   4.221   4.856  16.421  0.0340  0.7356  0.1524
18891TIP3    H178088   4.155   4.848  16.489  0.2351 -0.6232  0.1990
18891TIP3    H278089   4.223   4.771  16.379  0.4466  1.3342 -1.0656
18892TIP3   OH278090   0.613   5.310  13.443 -0.0654 -0.1704  0.0428
18892TIP3    H178091   0.534   5.301  13.496 -0.0885 -1.0597 -0.1436
18892TIP3    H278092   0.580   5.330  13.355 -0.0929 -0.8482 -0.1023
18893TIP3   OH278093   1.578   1.092   4.397  0.3130  0.2427  0.3656
18893TIP3    H178094   1.504   1.074   4.456  0.7041  1.6513  1.3087
18893TIP3    H278095   1.599   1.185   4.413  1.1858  0.3107 -1.1320
18894TIP3   OH278096   2.380   2.395  11.601  0.7132 -0.0550  0.4134
18894TIP3    H178097   2.419   2.321  11.553  0.4323  0.0737 -0.0194
18894TIP3    H278098   2.335   2.445  11.533  4.0410  2.6364  0.0622
18895TIP3   OH278099   2.149   5.853   0.034  0.4508  0.3996  0.0420
18895TIP3    H178100   2.128   5.761   0.050  1.5135  0.1850  0.2484
18895TIP3    H278101   2.216   5.874   0.099  0.6267  1.1579 -0.3772
18896TIP3   OH278102   5.695   0.412  13.445 -0.3015 -0.0832 -0.0671
18896TIP3    H178103   5.701   0.420  13.350  0.0538 -0.2402 -0.0586
18896TIP3    H278104   5.652   0.493  13.473 -0.7190 -0.1906 -0.3927
18897TIP3   OH278105   0.731   5.131   4.661  0.2603  0.3147 -0.0398
18897TIP3    H178106   0.717   5.221   4.691 -3.0974  0.0062 -0.4306
18897TIP3    H278107   0.660   5.081   4.702 -0.1699 -1.4404 -2.8275
18898TIP3   OH278108   5.677   2.335   4.748  0.0810  0.2884 -0.4170
18898TIP3    H178109   5.704   2.409   4.693  2.0145 -0.4892 -0.5344
18898TIP3    H278110   5.718   2.259   4.707 -0.2590 -0.5970  0.8729
18899TIP3   OH278111   0.383   2.899  11.831 -0.4531  0.1318  0.0481
18899TIP3    H178112   0.414   2.811  11.852  0.0936  0.3719  0.2683
18899TIP3    H278113   0.321   2.887  11.759 -0.3245 -0.4241  0.0308
18900TIP3   OH278114   1.078   2.702   5.020  0.7140  0.1696 -0.2366
18900TIP3    H178115   0.995   2.738   5.050  1.9584  0.9167  2.3939
18900TIP3    H278116   1.120   2.774   4.974  0.5107  0.1958 -0.3838
18901TIP3   OH278117   3.176   4.847   5.773  0.0136  0.4274 -0.2197
18901TIP3    H178118   3.154   4.888   5.857  0.5637  0.4800 -0.1024
18901TIP3    H278119   3.264   4.812   5.785  0.8020  1.9807 -1.3424
18902TIP3   OH278120   4.257   2.595   0.825  0.0824 -0.2108  0.0046
18902TIP3    H178121   4.258   2.601   0.730  2.7077 -0.0748 -0.0157
18902TIP3    H278122   4.235   2.683   0.855 -0.8268 -0.2766 -0.4801
18903TIP3   OH278123   4.979   5.133  11.308 -0.1406 -0.4798 -0.0397
18903TIP3    H178124   4.988   5.137  11.404 -1.3773 -1.5300  0.1493
18903TIP3    H278125   5.063   5.101  11.277  0.1281 -0.5498  0.7541
18904TIP3   OH278126   3.131   5.446  11.267  0.5273  0.3266 -0.7257
18904TIP3    H178127   3.213   5.438  11.219  0.4684  0.5518 -0.8621
18904TIP3    H278128   3.068   5.477  11.202  0.6160  1.3410 -0.3220
18905TIP3   OH278129   3.953   2.631  11.118  0.2845  0.3508  0.3354
18905TIP3    H178130   3.957   2.590  11.205 -2.0221 -0.8990 -0.1083
18905TIP3    H278131   3.932   2.722  11.136  1.7282  0.5415  1.1620
18906TIP3   OH278132   5.120   4.936  11.810  0.2981 -0.0631 -0.3867
18906TIP3    H178133   5.110   4.883  11.889  0.6339  1.2777  0.5785
18906TIP3    H278134   5.081   5.021  11.833 -0.9792 -0.1341 -2.1784
18907TIP3   OH278135   2.356   1.209  17.128 -0.5295  0.0265  0.4562
18907TIP3    H178136   2.402   1.288  17.158 -0.1016  0.0910 -0.3572
18907TIP3    H278137   2.265   1.224  17.153 -0.1039 -0.1809  2.2484
18908TIP3   OH278138   3.218   3.261  14.478  0.1557  0.4470  0.0255
18908TIP3    H178139   3.171   3.242  14.559  1.2763  2.2574  1.1210
18908TIP3    H278140   3.206   3.355  14.463 -0.2195  0.1129 -2.0405
18909TIP3   OH278141   6.502   4.125  15.892 -0.2030 -0.8453  0.2990
18909TIP3    H178142   6.509   4.197  15.829 -4.9969 -0.3224  0.1508
18909TIP3    H278143   6.517   4.166  15.977  0.0821 -0.2807 -0.0181
18910TIP3   OH278144   4.991   6.661  17.023 -0.3841 -0.3268  0.7099
18910TIP3    H178145   4.988   6.606  16.945  0.9992 -1.4284  1.4197
18910TIP3    H278146   5.039   6.609  17.087 -0.3054  1.1323  1.8534
18911TIP3   OH278147   2.270   0.241   3.085  0.1384 -0.5635  0.5801
18911TIP3    H178148   2.181   0.213   3.104 -0.8395  0.7987 -1.8833
18911TIP3    H278149   2.264   0.288   3.002  2.8384  1.1609  1.2920
18912TIP3   OH278150   3.963   2.426  16.150 -0.1200  0.0721  0.1336
18912TIP3    H178151   3.935   2.367  16.219  1.1061  1.3503  1.7677
18912TIP3    H278152   3.995   2.368  16.080 -0.7642 -1.2138  0.8923
18913TIP3   OH278153   1.908   3.315   3.362 -0.4549  0.0497 -0.1470
18913TIP3    H178154   1.827   3.270   3.386  0.7431 -1.8455  0.4463
18913TIP3    H278155   1.926   3.285   3.273  0.6114 -1.0734  0.4322
18914TIP3   OH278156   3.895   3.966   4.798 -0.8725  0.2963  0.7289
18914TIP3    H178157   3.892   3.932   4.709  0.7245 -2.2568  1.5727
18914TIP3    H278158   3.961   4.035   4.795 -2.1510  1.5007 -0.4269
18915TIP3   OH278159   6.250   1.715  14.160  0.6906  0.5803  0.2774
18915TIP3    H178160   6.190   1.675  14.097 -0.4589  0.9011  1.1691
18915TIP3    H278161   6.205   1.708  14.244  2.0100  0.6074  0.9895
18916TIP3   OH278162   1.089   5.796   4.786 -0.2131 -0.1754 -0.5901
18916TIP3    H178163   1.126   5.883   4.803  0.3124 -0.4502 -0.2919
18916TIP3    H278164   1.002   5.813   4.751 -0.4275  0.4551  0.2409
18917TIP3   OH278165   6.360   4.660  11.350 -0.1086  0.2475  0.2222
18917TIP3    H178166   6.355   4.586  11.289  0.1853  0.1146  0.3598
18917TIP3    H278167   6.351   4.737  11.294 -0.1676  0.1156  0.0474
18918TIP3   OH278168   1.867   3.443   0.338  0.8683 -0.4498 -0.3605
18918TIP3    H178169   1.962   3.459   0.344  0.7123 -0.0917  1.5875
18918TIP3    H278170   1.854   3.360   0.383 -0.0908  0.9568  2.0622
18919TIP3   OH278171   6.382   0.676  14.640  0.5988 -0.0409 -0.5319
18919TIP3    H178172   6.351   0.586  14.635 -0.8305  0.4007  0.0632
18919TIP3    H278173   6.345   0.709  14.722 -1.3268  1.9851 -2.1677
18920TIP3   OH278174   4.232   0.202   1.572 -0.6062  0.5168  0.0495
18920TIP3    H178175   4.280   0.276   1.534 -0.9349  1.2536  1.0609
18920TIP3    H278176   4.297   0.153   1.621 -0.5139  0.4932 -0.0974
18921TIP3   OH278177   0.628   5.528  12.707  0.5361  0.3211 -0.2961
18921TIP3    H178178   0.597   5.579  12.632  1.3126 -0.4846 -1.1675
18921TIP3    H278179   0.569   5.453  12.711  0.9958 -0.0507 -0.5786
18922TIP3   OH278180   5.082   6.471  16.406 -0.8013  0.0528 -0.0203
18922TIP3    H178181   5.061   6.458  16.314  0.0711 -1.9739  0.0428
18922TIP3    H278182   5.174   6.497  16.407 -0.7985  0.0383  0.2686
18923TIP3   OH278183   6.557   3.986  15.236  0.2087 -0.4394 -0.7090
18923TIP3    H178184   6.635   4.034  15.207 -0.4721 -0.2310 -2.2594
18923TIP3    H278185   6.564   3.984  15.331  1.0516  1.3948 -0.7049
18924TIP3   OH278186   6.230   1.346   4.733  0.0761 -0.1396 -0.9796
18924TIP3    H178187   6.171   1.419   4.753  2.4751  1.5574  0.2895
18924TIP3    H278188   6.174   1.279   4.695 -2.3582  2.0437 -1.4035
18925TIP3   OH278189   3.556   2.998  12.069  0.4312  0.5080  0.1273
18925TIP3    H178190   3.532   2.983  12.161 -0.3954 -0.3847 -0.2265
18925TIP3    H278191   3.518   2.924  12.022  0.6710  1.0735 -0.9715
18926TIP3   OH278192   6.298   4.896  11.184  0.6805  0.3568  0.0313
18926TIP3    H178193   6.275   4.989  11.184 -2.1602 -0.2901  2.0829
18926TIP3    H278194   6.216   4.851  11.165  1.9716 -1.7593 -0.6855
18927TIP3   OH278195   4.385   6.261  13.713 -0.1088 -0.4687  0.2417
18927TIP3    H178196   4.373   6.242  13.806 -1.2588 -0.9878 -0.0071
18927TIP3    H278197   4.375   6.356  13.706 -0.2625 -0.4569  0.6094
18928TIP3   OH278198   3.357   1.493  14.741 -0.3084  0.0311 -0.8644
18928TIP3    H178199   3.413   1.505  14.818 -1.8331  0.1306  0.2412
18928TIP3    H278200   3.362   1.399  14.722  0.5918  0.1131 -1.0550
18929TIP3   OH278201   5.523   1.974   0.571  0.5715  0.2348  0.3026
18929TIP3    H178202   5.482   2.061   0.573 -0.1538 -0.1105  2.8663
18929TIP3    H278203   5.567   1.967   0.655  1.5714 -1.4526 -0.3532
18930TIP3   OH278204   2.118   4.166  14.965  1.0105  0.2549 -0.2495
18930TIP3    H178205   2.132   4.175  14.871 -1.3634  0.2014 -0.6394
18930TIP3    H278206   2.050   4.100  14.973  2.5589 -1.1655  1.6220
18931TIP3   OH278207   6.030   6.465   4.688 -0.1350  0.8226 -0.1944
18931TIP3    H178208   6.095   6.530   4.713  1.5768 -1.1160  0.5643
18931TIP3    H278209   6.076   6.406   4.628 -1.2196 -0.4963  0.2222
18932TIP3   OH278210   0.059   1.066  13.113  0.1211 -0.5382  0.2892
18932TIP3    H178211   0.022   0.978  13.121  0.7852 -0.9351 -0.7790
18932TIP3    H278212   0.019   1.116  13.183 -1.1587 -1.3986  0.1874
18933TIP3   OH278213   0.209   5.828   0.404  0.7980 -0.0597 -0.2688
18933TIP3    H178214   0.213   5.877   0.486  2.9264  0.2006 -0.4923
18933TIP3    H278215   0.133   5.864   0.358  1.2333  1.7632  0.3879
18934TIP3   OH278216   1.563   1.890  10.206  0.0539  0.4968  0.1035
18934TIP3    H178217   1.637   1.884  10.266  0.9215  2.3171 -0.7297
18934TIP3    H278218   1.487   1.900  10.263  0.9409  2.9379  0.9456
18935TIP3   OH278219   4.983   4.939  14.075  0.3722 -0.3061 -0.1217
18935TIP3    H178220   4.970   4.875  14.005  1.6332 -0.6033 -0.0941
18935TIP3    H278221   5.049   4.999  14.040  0.6834 -0.1966  0.6480
18936TIP3   OH278222   5.018   0.048  14.010 -0.2806 -0.5682  0.0038
18936TIP3    H178223   5.036   0.001  13.929  2.2282  0.6659 -0.1991
18936TIP3    H278224   5.084   0.117  14.013 -1.2197  0.2837  2.4116
18937TIP3   OH278225   1.874   4.912  13.451 -0.1667  0.5993 -0.3241
18937TIP3    H178226   1.942   4.979  13.446  0.7600 -0.3247 -0.1430
18937TIP3    H278227   1.921   4.829  13.444 -1.2317 -0.0581  0.2088
18938TIP3   OH278228   5.788   2.704   2.035 -0.1514  0.7919  0.0332
18938TIP3    H178229   5.870   2.655   2.045 -0.4673  0.2241 -0.1663
18938TIP3    H278230   5.814   2.796   2.048  0.0836  0.4204  2.5691
18939TIP3   OH278231   1.150   4.072  13.847 -0.2350  0.0675 -0.0227
18939TIP3    H178232   1.188   3.991  13.813  0.4250  1.1453 -1.9787
18939TIP3    H278233   1.158   4.066  13.942 -1.2646 -2.6649 -0.0858
18940TIP3   OH278234   3.926   3.372   0.510  0.0931 -0.5523 -0.2783
18940TIP3    H178235   3.891   3.370   0.600  0.9841  3.3412  0.2526
18940TIP3    H278236   3.848   3.368   0.454 -0.5890 -1.1792  0.6976
18941TIP3   OH278237   0.199   1.777  15.400  0.0268 -0.5497  0.7536
18941TIP3    H178238   0.145   1.717  15.451 -0.1389  0.0831  1.3284
18941TIP3    H278239   0.223   1.727  15.322  0.4382 -1.5957  1.5361
18942TIP3   OH278240   3.804   5.474  15.380 -0.0640 -0.9529 -0.2289
18942TIP3    H178241   3.861   5.515  15.445  0.2834  0.8878 -1.6394
18942TIP3    H278242   3.833   5.383  15.375  2.4250 -0.1851 -0.5344
18943TIP3   OH278243   3.328   5.638   0.678  0.3009 -0.0771 -0.1407
18943TIP3    H178244   3.293   5.561   0.632 -2.2537  0.5981  0.6115
18943TIP3    H278245   3.340   5.703   0.609  0.3416 -0.3991 -0.4422
18944TIP3   OH278246   5.992   2.071   3.507 -0.6168  0.1617  0.2681
18944TIP3    H178247   6.037   2.156   3.517  1.2527 -0.8757  0.9040
18944TIP3    H278248   5.902   2.089   3.533 -0.3553  2.0587 -0.0226
18945TIP3   OH278249   3.023   0.062  15.003 -0.1662 -0.1256 -0.7619
18945TIP3    H178250   3.081   0.139  14.999 -0.8849  0.3571 -2.5942
18945TIP3    H278251   3.067  -0.003  14.949 -0.2892 -0.4925 -0.4167
18946TIP3   OH278252   0.996   2.308   6.821  0.7464 -0.2618 -0.0032
18946TIP3    H178253   0.928   2.332   6.884  1.3528 -2.2972  1.4750
18946TIP3    H278254   1.062   2.263   6.873  1.5730 -1.4111 -1.9822
18947TIP3   OH278255   1.266   0.690   1.501 -0.3374 -0.4417  0.1676
18947TIP3    H178256   1.180   0.651   1.485 -0.5635  0.2750 -0.3548
18947TIP3    H278257   1.256   0.738   1.583 -1.1113  1.6216 -1.1066
18948TIP3   OH278258   0.683   4.149  14.086 -0.2144  0.4332  0.3725
18948TIP3    H178259   0.710   4.205  14.013  1.6260 -0.1227  0.6064
18948TIP3    H278260   0.764   4.127  14.131 -0.6239 -4.0008 -0.8017
18949TIP3   OH278261   3.748   0.945  13.085  0.1256  0.0622 -0.7484
18949TIP3    H178262   3.752   0.973  12.993  0.0773 -0.4122 -0.8983
18949TIP3    H278263   3.656   0.924  13.099  0.2522 -0.5292 -0.7948
18950TIP3   OH278264   2.295   6.415  16.639 -0.1444  0.4506  0.5182
18950TIP3    H178265   2.211   6.424  16.683 -0.9942 -3.4626 -0.0466
18950TIP3    H278266   2.358   6.404  16.710 -0.4964  0.8418  0.8949
18951TIP3   OH278267   5.319   3.251  11.324 -0.2107 -0.1786 -0.2729
18951TIP3    H178268   5.387   3.283  11.265  0.3794  0.7087  0.8833
18951TIP3    H278269   5.250   3.317  11.318 -0.8684 -0.9281 -1.2180
18952TIP3   OH278270   3.970   2.827   2.814 -0.4558  0.1460 -0.2840
18952TIP3    H178271   4.050   2.810   2.865 -0.7619 -1.2727 -0.2401
18952TIP3    H278272   3.952   2.920   2.827  1.0921  0.4517 -0.1507
18953TIP3   OH278273   0.033   5.436   4.969 -0.0383  0.4074 -0.2670
18953TIP3    H178274   0.066   5.389   5.046 -1.1941  0.7090  0.4271
18953TIP3    H278275   0.006   5.521   5.003  1.6416  1.4503 -1.4387
18954TIP3   OH278276   6.678   1.111   0.394 -0.3759  0.0685 -0.5656
18954TIP3    H178277   6.643   1.167   0.324  0.1223  1.0445 -0.0434
18954TIP3    H278278   6.748   1.163   0.433 -0.6208 -0.4924  0.6351
18955TIP3   OH278279   2.268   1.436  11.826 -0.1702 -0.0953 -0.1332
18955TIP3    H178280   2.228   1.427  11.913 -0.3245  1.6863 -0.0035
18955TIP3    H278281   2.362   1.429  11.842 -0.2255 -0.3957  0.0774
18956TIP3   OH278282   0.892   2.427   6.184  0.4098  0.3393  0.1301
18956TIP3    H178283   0.827   2.431   6.254  0.0445  1.4571 -0.2671
18956TIP3    H278284   0.865   2.353   6.130  0.7877 -0.6359  1.2595
18957TIP3   OH278285   5.857   2.295   1.779  0.1583 -0.0261  0.3944
18957TIP3    H178286   5.796   2.257   1.842  0.7304 -1.2733  0.2078
18957TIP3    H278287   5.923   2.339   1.833 -0.2730  0.3568  0.6172
18958TIP3   OH278288   5.815   1.973  14.074  0.6283 -0.6130  0.2253
18958TIP3    H178289   5.879   1.938  14.136  0.5442 -1.1647  0.0052
18958TIP3    H278290   5.767   2.039  14.123  1.3633 -0.2031  0.3931
18959TIP3   OH278291   3.139   0.358   0.252  0.6427 -0.2419  0.1741
18959TIP3    H178292   3.139   0.384   0.159 -1.2688 -3.1434 -0.6930
18959TIP3    H278293   3.085   0.425   0.295 -0.3492 -0.1307 -1.2095
18960TIP3   OH278294   4.441   6.146   0.111 -0.4314  0.1954 -0.4310
18960TIP3    H178295   4.468   6.085   0.042  2.0444  1.0943 -0.3098
18960TIP3    H278296   4.447   6.095   0.192  2.3279  0.6982 -0.2426
18961TIP3   OH278297   2.372   4.564  13.410 -0.3294  0.2228 -0.3692
18961TIP3    H178298   2.337   4.600  13.328 -0.4980  0.7044 -0.0930
18961TIP3    H278299   2.306   4.501  13.438 -0.7918  0.8269 -0.0671
18962TIP3   OH278300   4.304   5.060  12.608 -0.0794 -0.2746  0.0948
18962TIP3    H178301   4.344   5.124  12.549 -0.3962 -1.1852 -1.1353
18962TIP3    H278302   4.218   5.097  12.627 -0.6199 -0.7591 -1.3474
18963TIP3   OH278303   0.774   4.913  11.503 -0.1354 -0.2196 -0.0598
18963TIP3    H178304   0.841   4.846  11.516  0.5430  0.4648  0.0223
18963TIP3    H278305   0.807   4.965  11.430 -0.9492 -0.3315 -0.5144
18964TIP3   OH278306   2.226   1.868   2.313  0.4123  0.3623 -0.1000
18964TIP3    H178307   2.164   1.876   2.386  1.4774  1.0594  0.7438
18964TIP3    H278308   2.195   1.792   2.264  0.0015 -0.4751  1.4023
18965TIP3   OH278309   0.538   1.907   4.140  0.8468 -0.4264  0.0179
18965TIP3    H178310   0.634   1.909   4.144  0.8993  0.5076 -1.4188
18965TIP3    H278311   0.511   1.994   4.170  0.4856 -0.4101 -0.3526
18966TIP3   OH278312   2.854   4.958  13.760 -0.3342  0.0457  0.2049
18966TIP3    H178313   2.835   4.922  13.673  0.4695  0.0897  0.0148
18966TIP3    H278314   2.847   5.052  13.749  1.3980  0.1309 -0.1950
18967TIP3   OH278315   4.369   2.068   5.743  0.2785 -0.1047  0.4986
18967TIP3    H178316   4.276   2.090   5.741  0.3501  0.1673 -0.3125
18967TIP3    H278317   4.372   1.974   5.724  0.1031 -0.3531  1.6907
18968TIP3   OH278318   3.059   3.437   4.927 -0.0371  0.6408  0.2515
18968TIP3    H178319   2.975   3.392   4.939  0.0923 -0.2660 -2.1674
18968TIP3    H278320   3.090   3.452   5.017 -1.5601 -1.2933  1.1411
18969TIP3   OH278321   2.490   5.400   3.996  0.3250 -0.1472 -0.3164
18969TIP3    H178322   2.439   5.320   3.984 -0.7283  0.5276 -0.4317
18969TIP3    H278323   2.432   5.457   4.047  0.4451  1.1080 -1.5557
18970TIP3   OH278324   6.305   0.535   0.352  0.1374 -0.3228 -0.2658
18970TIP3    H178325   6.394   0.506   0.330 -0.5398 -3.1457  0.5898
18970TIP3    H278326   6.249   0.488   0.290 -1.0407 -1.4490  1.6088
18971TIP3   OH278327   3.888   1.964   5.095  1.5920 -0.2680  0.5148
18971TIP3    H178328   3.971   1.984   5.050  1.7616 -0.3029  0.8112
18971TIP3    H278329   3.884   2.028   5.166  0.7627  0.5423 -0.2467
18972TIP3   OH278330   3.839   2.354  12.453  0.0339  0.0088 -0.2646
18972TIP3    H178331   3.766   2.414  12.444  0.3823  0.3713 -0.7245
18972TIP3    H278332   3.881   2.379  12.535 -1.6580 -1.6411  1.1163
18973TIP3   OH278333   2.405   2.671  15.669  0.4563 -0.1103  0.1393
18973TIP3    H178334   2.381   2.755  15.629  0.0753 -0.0224  0.5468
18973TIP3    H278335   2.450   2.623  15.600  0.5585  0.3814 -0.1365
18974TIP3   OH278336   6.376   5.543  16.022  0.2031 -0.1531 -0.4356
18974TIP3    H178337   6.336   5.457  16.037  0.9076 -0.2342  1.1131
18974TIP3    H278338   6.326   5.602  16.078  0.4114  0.2499 -0.6743
18975TIP3   OH278339   0.482   5.798   1.078  0.2589 -0.0292  0.3867
18975TIP3    H178340   0.455   5.871   1.134  0.0430  2.0058 -2.2526
18975TIP3    H278341   0.457   5.825   0.990 -0.3016 -3.5799 -0.6050
18976TIP3   OH278342   3.048   1.535  16.984 -0.0585  0.1912  0.0571
18976TIP3    H178343   3.048   1.617  16.934  1.6588  0.5117  0.5537
18976TIP3    H278344   3.090   1.472  16.926 -1.6486 -0.4337 -0.4437
18977TIP3   OH278345   5.413   1.822   5.416  0.3573  0.2934 -0.3252
18977TIP3    H178346   5.392   1.902   5.464  1.2222  0.6581 -0.5614
18977TIP3    H278347   5.469   1.772   5.476 -0.0934 -0.0968 -0.2196
18978TIP3   OH278348   0.969   2.085  10.905 -0.0974  0.3248 -0.1244
18978TIP3    H178349   0.923   2.148  10.849  0.7906  1.1558  0.0713
18978TIP3    H278350   1.048   2.062  10.856 -1.0448 -1.6527 -0.7846
18979TIP3   OH278351   5.693   3.152  12.799 -0.1525  0.0923 -0.0427
18979TIP3    H178352   5.721   3.244  12.798 -0.5977  0.2589  1.3868
18979TIP3    H278353   5.644   3.141  12.717 -0.5824  1.2915  0.0427
18980TIP3   OH278354   5.943   4.256   1.484  0.2444  0.3231 -0.2633
18980TIP3    H178355   5.976   4.324   1.543  2.3763 -1.7266  0.9482
18980TIP3    H278356   5.862   4.226   1.526 -0.4677  1.7208 -0.5665
18981TIP3   OH278357   5.123   1.407   2.012  0.9187 -1.0529 -0.4005
18981TIP3    H178358   5.212   1.403   2.047  0.8343  0.3008 -0.0249
18981TIP3    H278359   5.066   1.402   2.089  0.7225  0.9376 -0.3868
18982TIP3   OH278360   4.070   4.997  14.429  0.4990 -0.5723  0.0226
18982TIP3    H178361   4.116   5.023  14.509  0.3953  0.6469 -0.3148
18982TIP3    H278362   4.103   4.908  14.411  1.8920 -0.1517  0.4097
18983TIP3   OH278363   5.372   2.818  16.626 -0.9306  0.5088 -0.2200
18983TIP3    H178364   5.419   2.880  16.570 -2.0158 -0.2311 -2.0002
18983TIP3    H278365   5.280   2.829  16.602 -1.2359 -1.0892  0.1250
18984TIP3   OH278366   5.318   6.663  15.444 -0.0244  0.1372 -0.3439
18984TIP3    H178367   5.347   6.605  15.514 -0.6620  0.2966  0.0483
18984TIP3    H278368   5.379   6.737  15.448 -0.3765  0.3862  0.3623
18985TIP3   OH278369   4.772   3.096  12.781 -0.3027  0.1485  0.2851
18985TIP3    H178370   4.750   3.042  12.705  2.7105 -1.1614  0.2829
18985TIP3    H278371   4.789   3.183  12.744 -0.6080 -0.0475 -0.3184
18986TIP3   OH278372   5.938   1.582   5.099 -0.1138  0.6807  0.5045
18986TIP3    H178373   5.930   1.670   5.134 -1.9484 -0.1026  2.1559
18986TIP3    H278374   5.864   1.574   5.038  1.2949  0.9915 -1.2905
18987TIP3   OH278375   6.568   6.023  11.393 -0.2708  0.1384  0.1297
18987TIP3    H178376   6.637   6.019  11.460  0.5227  1.1555 -0.6304
18987TIP3    H278377   6.487   6.022  11.444  0.2854 -1.1300  1.0328
18988TIP3   OH278378   2.235   6.054  15.811 -0.4241  0.2301  0.2369
18988TIP3    H178379   2.240   6.042  15.716 -2.4499 -1.0978  0.2693
18988TIP3    H278380   2.151   6.098  15.826 -0.9753 -1.2065  1.5428
18989TIP3   OH278381   4.245   4.294  10.964  0.3008 -0.5890 -0.0394
18989TIP3    H178382   4.154   4.264  10.962  0.3599 -0.6917 -1.3925
18989TIP3    H278383   4.297   4.213  10.964  0.4050 -0.5755  2.2687
18990TIP3   OH278384   4.489   1.150  11.642 -0.3156  0.0244 -0.1754
18990TIP3    H178385   4.480   1.095  11.564 -3.2265  0.3666 -0.1174
18990TIP3    H278386   4.509   1.237  11.609  0.0426 -0.1534 -0.4374
18991TIP3   OH278387   5.176   6.352   2.583 -0.2180 -0.1648 -0.3831
18991TIP3    H178388   5.194   6.334   2.675  2.6260 -0.3380 -0.9254
18991TIP3    H278389   5.188   6.447   2.575 -1.2371 -0.0333 -0.4384
18992TIP3   OH278390   3.084   4.766  11.945  0.3725 -0.2794 -0.3260
18992TIP3    H178391   3.056   4.847  11.902  0.7840  0.5324  0.9201
18992TIP3    H278392   3.150   4.794  12.008 -0.7493 -1.3549  1.3624
18993TIP3   OH278393   3.091   1.808  15.315 -0.5384 -0.0050 -0.7239
18993TIP3    H178394   3.121   1.767  15.397 -0.0971  0.9992 -0.3676
18993TIP3    H278395   3.090   1.737  15.251 -3.3044 -1.3468  0.7365
18994TIP3   OH278396   3.477   5.389   2.335 -0.2641 -0.1406 -0.4081
18994TIP3    H178397   3.420   5.441   2.392  0.8740 -1.6973  2.2200
18994TIP3    H278398   3.531   5.454   2.290 -0.8856  1.1057  0.6154
18995TIP3   OH278399   3.448   6.394  10.805  0.2863  0.0297  0.2726
18995TIP3    H178400   3.420   6.324  10.864 -0.4075 -2.3897 -2.8303
18995TIP3    H278401   3.534   6.367  10.775  1.2283  1.9379  1.1547
18996TIP3   OH278402   6.662   5.408  11.898  0.3697 -0.4493  0.0859
18996TIP3    H178403   6.709   5.472  11.953 -1.0685  1.4379 -0.8375
18996TIP3    H278404   6.732   5.360  11.854  1.4951  0.2231  1.0739
18997TIP3   OH278405   1.033   3.383  15.952  0.4582  0.0450 -0.2449
18997TIP3    H178406   1.087   3.304  15.951  0.1143 -0.1748 -1.0001
18997TIP3    H278407   1.087   3.447  15.999 -0.4307 -1.4535  2.9994
18998TIP3   OH278408   2.757   3.115  13.560  0.1803 -0.1392 -0.2600
18998TIP3    H178409   2.757   3.076  13.472  0.6748 -1.1694  0.1983
18998TIP3    H278410   2.837   3.168  13.562  0.4104 -0.4893 -0.2579
18999TIP3   OH278411   4.508   4.791   0.403  0.3634  0.3975  0.5053
18999TIP3    H178412   4.513   4.724   0.470 -0.5969  0.8992  1.0854
18999TIP3    H278413   4.497   4.743   0.321  1.0140 -0.1898  0.7631
19000TIP3   OH278414   1.184   2.080  12.353  0.1131 -0.0757  1.4455
19000TIP3    H178415   1.194   2.165  12.309  1.6648 -1.4907 -1.0612
19000TIP3    H278416   1.090   2.062  12.349  0.1434  0.1562 -0.7342
19001TIP3   OH278417   2.058   5.833  15.921 -0.6140 -0.2237  0.0320
19001TIP3    H178418   2.047   5.915  15.874  0.7118 -0.5331 -0.8455
19001TIP3    H278419   2.143   5.841  15.964  0.0549 -1.5720 -0.9954
19002TIP3   OH278420   2.088   3.094  16.501  0.2946  0.3597 -0.4542
19002TIP3    H178421   2.009   3.132  16.539  0.6340 -1.6438  2.4741
19002TIP3    H278422   2.160   3.138  16.546  0.8074  0.5776 -1.4671
19003TIP3   OH278423   6.382   2.487   3.651  0.2686 -0.3413 -0.4434
19003TIP3    H178424   6.391   2.456   3.561  0.4891 -0.7650 -0.2793
19003TIP3    H278425   6.387   2.582   3.644  2.2032 -0.4426 -0.6728
19004TIP3   OH278426   2.565   5.165  11.573 -0.3451  0.0354 -0.0698
19004TIP3    H178427   2.615   5.217  11.510 -0.6215  0.8511  0.3765
19004TIP3    H278428   2.504   5.114  11.519 -0.5591  0.7015 -0.4576
19005TIP3   OH278429   3.324   5.683   1.946  0.1357  0.4982 -0.5674
19005TIP3    H178430   3.339   5.741   2.020  1.8846 -0.7881  0.1143
19005TIP3    H278431   3.318   5.596   1.984 -0.6078  0.0073 -1.7721
19006TIP3   OH278432   5.138   5.000   4.404 -0.1134 -0.3307 -0.0889
19006TIP3    H178433   5.157   4.974   4.494  1.2530  2.3271  0.4244
19006TIP3    H278434   5.075   5.071   4.412 -1.3028 -1.2066 -1.3344
19007TIP3   OH278435   1.403   2.997   1.293 -0.1039  0.7829  0.0491
19007TIP3    H178436   1.494   3.028   1.294 -0.9306  3.3550 -1.1003
19007TIP3    H278437   1.389   2.964   1.204 -1.0140  2.7033 -0.5434
19008TIP3   OH278438   3.870   3.037  14.548  0.2361 -0.4586 -0.3532
19008TIP3    H178439   3.823   3.100  14.494 -1.3314  0.2354  1.7485
19008TIP3    H278440   3.827   2.953  14.529 -0.8805 -0.0735  0.4456
19009TIP3   OH278441   4.487   0.832  13.640 -0.9416 -0.2938  0.5124
19009TIP3    H178442   4.541   0.888  13.584 -0.1238 -1.5789 -0.0376
19009TIP3    H278443   4.483   0.748  13.592 -1.2425 -1.0253  1.8029
19010TIP3   OH278444   0.477   2.780  12.934  0.4798  0.0338 -0.3968
19010TIP3    H178445   0.564   2.805  12.902 -0.5656  2.0697 -1.7423
19010TIP3    H278446   0.487   2.688  12.960  2.8919  0.0758 -1.0311
19011TIP3   OH278447   6.466   3.935   5.782 -0.4797 -0.0199  0.0100
19011TIP3    H178448   6.543   3.990   5.767  0.2335 -1.0742 -0.1579
19011TIP3    H278449   6.448   3.894   5.697 -0.4023 -0.8473  0.3920
19012TIP3   OH278450   5.847   2.280  11.477 -0.0009  0.3463 -0.1187
19012TIP3    H178451   5.934   2.259  11.442  0.6461  1.8536  0.5467
19012TIP3    H278452   5.811   2.195  11.505  1.3950 -0.2334 -0.0611
19013TIP3   OH278453   1.287   2.071  11.835  0.0612 -0.1673 -0.3304
19013TIP3    H178454   1.279   2.150  11.781  0.0177 -0.9108 -1.4211
19013TIP3    H278455   1.371   2.033  11.809  0.1864 -0.3730  0.3551
19014TIP3   OH278456   0.192   0.407   3.698 -0.1486 -0.2762  0.2725
19014TIP3    H178457   0.241   0.489   3.695 -0.3551 -0.1293  0.7672
19014TIP3    H278458   0.259   0.339   3.701  0.0540 -0.0154  2.5836
19015TIP3   OH278459   5.316   4.840  14.446  0.2445 -0.0428  0.0869
19015TIP3    H178460   5.310   4.745  14.432  0.3411  0.1257 -1.1376
19015TIP3    H278461   5.384   4.869  14.385  1.1661  0.6260  1.3988
19016TIP3   OH278462   1.021   1.137  13.801  0.0771 -0.4871 -0.0691
19016TIP3    H178463   0.928   1.116  13.800 -0.2163  0.8365 -2.0208
19016TIP3    H278464   1.046   1.140  13.709  1.7740  0.4062  0.4083
19017TIP3   OH278465   0.000   3.228   2.894  0.1735  0.1481  0.0914
19017TIP3    H178466   0.005   3.302   2.833  0.6382 -0.2075 -0.3033
19017TIP3    H278467   0.008   3.151   2.839  0.8476 -0.1711  0.6232
19018TIP3   OH278468   0.570   0.741  14.969  0.6473 -0.0713 -0.0057
19018TIP3    H178469   0.596   0.757  14.879  1.7027  0.9791  0.4752
19018TIP3    H278470   0.646   0.700  15.009  0.9684  1.3996  0.9451
19019TIP3   OH278471   5.271   4.319   4.883 -0.2647 -0.0835  0.7737
19019TIP3    H178472   5.225   4.403   4.874  1.6262  0.8369 -0.5186
19019TIP3    H278473   5.272   4.303   4.977 -2.2751  0.3922  0.9141
19020TIP3   OH278474   3.939   4.971   1.479  0.2805  0.2119 -0.0012
19020TIP3    H178475   3.930   4.987   1.573 -0.3455  2.5279 -0.4417
19020TIP3    H278476   4.014   5.023   1.453 -0.0964  0.2799 -0.9650
19021TIP3   OH278477   0.615   0.108  14.312 -0.0854  0.0914  0.2016
19021TIP3    H178478   0.602   0.030  14.257  1.7869  0.1689 -0.3989
19021TIP3    H278479   0.638   0.073  14.398  2.3304 -0.0622 -0.4667
19022TIP3   OH278480   1.224   2.849  15.062 -0.0860 -0.2254  0.0627
19022TIP3    H178481   1.299   2.906  15.052 -0.3181 -0.0501 -0.7205
19022TIP3    H278482   1.195   2.862  15.152  1.1839 -0.7566  0.5574
19023TIP3   OH278483   0.270   0.610  12.621 -0.9771  0.4591  0.0794
19023TIP3    H178484   0.319   0.680  12.662 -0.8317  1.7216 -2.1689
19023TIP3    H278485   0.296   0.531  12.668 -1.0711  1.8738  2.5558
19024TIP3   OH278486   4.287   4.859  14.924 -0.2353 -0.0985  0.0394
19024TIP3    H178487   4.265   4.898  15.009  0.1663 -1.1896  0.6540
19024TIP3    H278488   4.202   4.837  14.886 -0.4324  0.7408 -0.0123
19025TIP3   OH278489   2.351   1.721  12.467 -0.3169  0.3074 -0.4288
19025TIP3    H178490   2.358   1.629  12.442 -0.4875  0.7265 -2.0816
19025TIP3    H278491   2.355   1.721  12.562  0.9881 -1.2993 -0.4746
19026TIP3   OH278492   6.591   2.057  13.331  0.1006  0.0613 -0.6906
19026TIP3    H178493   6.562   1.999  13.262 -0.7932  1.2765 -1.3479
19026TIP3    H278494   6.574   2.009  13.412  0.4329 -1.0438 -1.2675
19027TIP3   OH278495   3.252   6.315   0.698  0.0933 -0.6621  0.0695
19027TIP3    H178496   3.302   6.244   0.657 -0.2424 -0.8606  0.0087
19027TIP3    H278497   3.195   6.271   0.761  0.6595 -0.3600  0.8103
19028TIP3   OH278498   5.681   0.684   1.640  0.3245 -0.1868  0.4668
19028TIP3    H178499   5.688   0.592   1.665  2.6432 -0.4738 -1.0378
19028TIP3    H278500   5.707   0.733   1.718 -0.3134 -0.8248  1.0792
19029TIP3   OH278501   4.532   6.714  12.155 -0.1414  0.0510 -0.4466
19029TIP3    H178502   4.542   6.772  12.080 -0.6182  1.4360  0.5532
19029TIP3    H278503   4.471   6.759  12.213 -1.2788 -1.8817 -0.0848
19030TIP3   OH278504   6.667   1.198  10.743  0.0889 -0.3214 -0.9315
19030TIP3    H178505   6.582   1.165  10.712 -0.6835 -0.5300  1.2964
19030TIP3    H278506   6.722   1.120  10.748  0.6367 -0.1012 -2.9556
19031TIP3   OH278507   4.124   5.237  11.632 -0.3424 -0.1814  0.8325
19031TIP3    H178508   4.191   5.302  11.608  1.8480 -1.8180  2.2584
19031TIP3    H278509   4.089   5.207  11.548  0.4971  0.9553  0.0538
19032TIP3   OH278510   2.561   1.506   4.512 -0.1554 -0.2257 -0.0371
19032TIP3    H178511   2.499   1.477   4.445  1.3297 -2.1774 -0.6125
19032TIP3    H278512   2.545   1.600   4.520 -3.5972 -0.7763  0.2887
19033TIP3   OH278513   0.148   4.099   2.101 -0.0448 -0.4177 -0.5088
19033TIP3    H178514   0.090   4.095   2.025 -0.5242 -0.2844 -0.1507
19033TIP3    H278515   0.112   4.036   2.162 -1.0539  1.1708  0.5748
19034TIP3   OH278516   0.072   2.693   3.142 -0.1751 -0.4386 -0.4031
19034TIP3    H178517   0.036   2.607   3.119 -0.5223  0.3604 -3.0660
19034TIP3    H278518   0.166   2.685   3.125 -0.0424 -0.6143  0.4030
19035TIP3   OH278519   0.001   5.939  15.513 -0.3057 -0.1203  0.0240
19035TIP3    H178520  -0.038   6.025  15.502 -0.0824  0.1069  0.9157
19035TIP3    H278521  -0.066   5.878  15.482 -1.4467  0.2565  1.6350
19036TIP3   OH278522   2.647   3.149  11.621  0.1790  0.5779 -0.1195
19036TIP3    H178523   2.714   3.186  11.564 -0.1235 -1.0311 -1.5463
19036TIP3    H278524   2.611   3.076  11.572 -2.4594  1.2528  0.7139
19037TIP3   OH278525   1.362   1.891  15.685  0.0497 -0.1296  0.2913
19037TIP3    H178526   1.340   1.808  15.643  1.1780 -0.4581  0.3209
19037TIP3    H278527   1.286   1.947  15.669 -0.2234 -0.7763 -0.7708
19038TIP3   OH278528   0.543   2.500  13.797  0.0163  0.0875 -0.0036
19038TIP3    H178529   0.451   2.473  13.785 -0.6568  1.8652  1.0125
19038TIP3    H278530   0.582   2.430  13.849 -0.4070 -1.3267 -1.5502
19039TIP3   OH278531   0.739   6.605  14.921 -0.0970  0.1115 -0.3989
19039TIP3    H178532   0.683   6.565  14.854  1.1042 -0.4448 -1.0799
19039TIP3    H278533   0.815   6.637  14.874  0.1758  0.8592  0.5303
19040TIP3   OH278534   4.607   3.381   0.070  0.4682 -0.2639 -0.3365
19040TIP3    H178535   4.601   3.434  -0.009 -2.6875  0.6598  0.4284
19040TIP3    H278536   4.577   3.294   0.044  0.4774 -0.2446 -0.4094
19041TIP3   OH278537   2.399   1.370  11.120  0.2398  0.6008 -0.2233
19041TIP3    H178538   2.462   1.436  11.092  0.0839  0.1440 -1.6720
19041TIP3    H278539   2.321   1.420  11.144  0.6534  1.0577  0.1712
19042TIP3   OH278540   1.509   3.393   0.028  0.2912 -0.4098  0.0547
19042TIP3    H178541   1.567   3.465   0.002  0.3238 -0.7038 -0.7118
19042TIP3    H278542   1.567   3.330   0.071  0.6088 -0.8587 -1.0180
19043TIP3   OH278543   3.692   0.601   5.876  0.0271 -0.2159 -0.2159
19043TIP3    H178544   3.753   0.667   5.843  1.3624 -1.4507 -0.3109
19043TIP3    H278545   3.738   0.562   5.951  0.2939 -2.6100 -1.5703
19044TIP3   OH278546   5.498   5.366   0.781  0.2352  0.3796 -0.0988
19044TIP3    H178547   5.425   5.316   0.745  1.0200 -0.6181 -0.3214
19044TIP3    H278548   5.570   5.351   0.719  1.5552 -1.2096  1.7735
19045TIP3   OH278549   3.758   2.922  13.688 -0.3654  0.8000  0.3654
19045TIP3    H178550   3.812   2.981  13.636 -1.2860  1.5431  0.2560
19045TIP3    H278551   3.821   2.876  13.744  0.4975  0.8745 -0.5268
19046TIP3   OH278552   1.864   3.400  15.320 -0.1611 -0.0566  0.0068
19046TIP3    H178553   1.883   3.378  15.229  0.0265  1.8890 -0.4513
19046TIP3    H278554   1.921   3.343  15.371  0.0268 -0.8800 -1.1143
19047TIP3   OH278555   1.063   3.897   6.055  0.1631 -0.0557  0.1304
19047TIP3    H178556   1.102   3.844   5.986 -2.0052 -0.7849 -0.5447
19047TIP3    H278557   1.097   3.985   6.038  1.8683 -0.7373 -0.1646
19048TIP3   OH278558   0.961   3.619   0.015 -0.5242 -0.9038  0.6823
19048TIP3    H178559   1.051   3.602   0.043 -0.1810 -2.3234 -1.2584
19048TIP3    H278560   0.969   3.654  -0.074 -1.7987  0.7128  1.1623
19049TIP3   OH278561   3.232   5.952   0.906 -0.3978  0.1544 -0.1347
19049TIP3    H178562   3.261   5.966   0.996 -1.5008 -0.8291  0.3776
19049TIP3    H278563   3.195   5.864   0.905 -0.4414  0.1671 -1.5463
19050TIP3   OH278564   3.768   2.541   5.157  0.1126 -0.1906  0.1705
19050TIP3    H178565   3.842   2.482   5.143  1.4503  1.2980  0.8062
19050TIP3    H278566   3.706   2.490   5.209  0.8348 -1.3438 -0.0806
19051TIP3   OH278567   4.164   4.828   3.783  0.4024 -0.1937  0.4198
19051TIP3    H178568   4.208   4.821   3.698  0.0677  0.0212  0.2239
19051TIP3    H278569   4.151   4.922   3.795 -1.9755 -0.3483 -0.5652
19052TIP3   OH278570   0.740   3.789   3.299  0.8748  0.0051  0.3623
19052TIP3    H178571   0.831   3.769   3.321  1.4047  0.3519 -1.4606
19052TIP3    H278572   0.741   3.881   3.274  0.2840 -0.3454 -1.0099
19053TIP3   OH278573   3.799   2.567   4.120 -0.2441  0.1265 -0.2776
19053TIP3    H178574   3.835   2.656   4.124  0.9964 -0.4026  0.6923
19053TIP3    H278575   3.817   2.538   4.031  0.0365  0.5590 -0.3660
19054TIP3   OH278576   4.088   5.745   1.559  0.0582 -0.8530  0.1128
19054TIP3    H178577   4.075   5.761   1.466 -1.1467 -1.1916  0.2118
19054TIP3    H278578   4.004   5.710   1.589  0.6521 -1.3866  1.1846
19055TIP3   OH278579   3.940   2.481  16.812 -0.3994 -0.0849  0.3837
19055TIP3    H178580   3.948   2.552  16.748 -2.2671  0.5317  0.8280
19055TIP3    H278581   3.984   2.514  16.890  0.0466 -0.0275  0.1162
19056TIP3   OH278582   2.096   5.620  12.387  0.4957 -0.2261 -0.2921
19056TIP3    H178583   2.157   5.693  12.392  0.8428 -0.5477  0.2824
19056TIP3    H278584   2.098   5.592  12.296  0.4108  0.4378 -0.4971
19057TIP3   OH278585   2.413   0.192   6.068 -0.3069  0.1597 -0.3098
19057TIP3    H178586   2.409   0.252   5.993  1.1556  0.1709 -0.3940
19057TIP3    H278587   2.410   0.248   6.145 -1.3839  0.1768 -0.3609
19058TIP3   OH278588   4.610   4.968   6.037  0.4065  0.3615  0.4673
19058TIP3    H178589   4.571   4.974   5.950  0.3328 -1.7490  0.3159
19058TIP3    H278590   4.704   4.978   6.022  0.5223 -1.3824 -0.0519
19059TIP3   OH278591   2.194   6.720   3.758  0.0720  0.3044  0.4699
19059TIP3    H178592   2.214   6.694   3.669 -0.5483 -0.3641  0.5275
19059TIP3    H278593   2.184   6.816   3.754 -1.3462  0.1273 -0.4433
19060TIP3   OH278594   4.585   2.741  15.509 -0.5239 -0.1080  0.2183
19060TIP3    H178595   4.676   2.720  15.488 -0.2674 -0.1241  1.2955
19060TIP3    H278596   4.539   2.737  15.425 -0.0002 -2.4783  0.0277
19061TIP3   OH278597   5.223   1.894   1.048  0.6732  0.0240  0.1153
19061TIP3    H178598   5.217   1.818   1.107 -0.2496 -0.6381 -0.8191
19061TIP3    H278599   5.293   1.948   1.086  1.9448 -1.7133  0.3132
19062TIP3   OH278600   4.590   2.579  11.705 -0.7248 -0.0302 -0.3366
19062TIP3    H178601   4.580   2.614  11.616  0.3888 -1.9333 -1.2434
19062TIP3    H278602   4.502   2.585  11.743 -1.3436  0.2657 -1.7772
19063TIP3   OH278603   6.787   3.099  14.062 -0.4754  0.2189  0.2382
19063TIP3    H178604   6.695   3.105  14.089 -0.4139  2.3277  0.0807
19063TIP3    H278605   6.783   3.056  13.976 -1.0492 -2.3135  1.5016
19064TIP3   OH278606   2.789   3.404   5.959  0.7766  0.0173 -0.3645
19064TIP3    H178607   2.877   3.410   5.996  0.2960 -2.3713  1.2944
19064TIP3    H278608   2.737   3.468   6.007  1.3691  0.6905 -0.6232
19065TIP3   OH278609   4.330   2.611  11.801  0.3552  0.2216  0.0694
19065TIP3    H178610   4.305   2.691  11.848 -2.9828 -1.4155  1.2618
19065TIP3    H278611   4.305   2.540  11.861  1.8603 -1.7657 -1.5938
19066TIP3   OH278612   6.405   3.945  11.413 -0.0201 -0.3964  0.2581
19066TIP3    H178613   6.443   3.858  11.405  1.9702  0.4990 -0.2857
19066TIP3    H278614   6.363   3.961  11.329  0.7443 -0.3204 -0.1141
19067TIP3   OH278615   5.702   4.670  13.389  0.2445  0.2705 -0.1722
19067TIP3    H178616   5.709   4.765  13.398  0.0875  0.2101  0.5858
19067TIP3    H278617   5.636   4.657  13.320 -0.5754  0.7070  0.5121
19068TIP3   OH278618   1.063   3.560   3.866  0.0743  0.1274  0.1045
19068TIP3    H178619   0.997   3.607   3.815  0.5973  0.3794 -0.3418
19068TIP3    H278620   1.103   3.628   3.920  0.7675  0.1692 -0.4718
19069TIP3   OH278621   4.550   1.687  10.694 -0.0962 -0.3107  0.0879
19069TIP3    H178622   4.585   1.603  10.724 -1.1557 -1.5497 -2.0107
19069TIP3    H278623   4.458   1.684  10.720 -0.2164  0.0518 -0.3052
19070TIP3   OH278624   1.771   1.583  12.301 -0.9026  0.3807 -0.2267
19070TIP3    H178625   1.741   1.660  12.349 -1.3698  0.6621 -0.9535
19070TIP3    H278626   1.812   1.527  12.367 -2.7998  0.1095  0.7399
19071TIP3   OH278627   0.600   0.724   0.838  0.0212 -0.7195 -0.0051
19071TIP3    H178628   0.679   0.740   0.889  1.1122  3.2779 -2.7107
19071TIP3    H278629   0.540   0.794   0.864 -1.5432 -1.9565 -0.1843
19072TIP3   OH278630   4.349   4.767   2.153  0.2360 -0.4455 -0.1340
19072TIP3    H178631   4.304   4.789   2.235  1.2910 -2.0895  0.9270
19072TIP3    H278632   4.418   4.832   2.145  0.8835 -0.9852  0.9266
19073TIP3   OH278633   4.711   2.986   1.670  0.0491  0.1349  0.2320
19073TIP3    H178634   4.722   2.903   1.717 -0.2107 -0.3290 -0.5195
19073TIP3    H278635   4.795   2.999   1.626 -0.9570 -1.3497 -2.2174
19074TIP3   OH278636   0.245   4.815   0.488 -0.8605 -0.4083  0.5167
19074TIP3    H178637   0.236   4.730   0.532 -2.3532  0.1624  1.3378
19074TIP3    H278638   0.159   4.831   0.449 -0.1348  0.0301 -0.9255
19075TIP3   OH278639   0.717   4.699  16.808  0.2028 -0.3613 -0.3208
19075TIP3    H178640   0.725   4.681  16.714  1.3161  0.3896 -0.3927
19075TIP3    H278641   0.676   4.786  16.812  1.2562  0.1441 -0.1569
19076TIP3   OH278642   6.337   6.206   4.124 -0.1676 -0.6321  0.5980
19076TIP3    H178643   6.417   6.162   4.152 -0.2616 -1.2095 -0.0342
19076TIP3    H278644   6.337   6.289   4.172  0.2816 -1.0842  1.3826
19077TIP3   OH278645   2.834   5.665  11.220 -0.5197  0.1360  0.3793
19077TIP3    H178646   2.888   5.705  11.287  0.3254  0.5371 -0.5395
19077TIP3    H278647   2.808   5.580  11.257 -0.3106  0.4862  1.3266
19078TIP3   OH278648   2.610   0.443   3.620 -0.2835 -0.2934 -0.5389
19078TIP3    H178649   2.593   0.461   3.713 -0.4438 -0.1093 -0.6028
19078TIP3    H278650   2.586   0.352   3.608  1.9323 -1.0092  0.1306
19079TIP3   OH278651   2.002   5.067   0.348 -0.1445  0.2672  0.4207
19079TIP3    H178652   1.910   5.090   0.338 -0.6317 -1.6139  0.3626
19079TIP3    H278653   2.039   5.076   0.260 -0.4589  0.2777  0.2897
19080TIP3   OH278654   0.374   3.479  14.166 -0.3271 -0.6214 -0.1511
19080TIP3    H178655   0.458   3.501  14.206 -0.5610  0.9460 -0.4682
19080TIP3    H278656   0.309   3.518  14.226 -0.8340 -1.7771  0.0696
19081TIP3   OH278657   4.616   5.911   2.926  0.0848 -0.0754 -0.5151
19081TIP3    H178658   4.611   5.938   2.834  0.7208 -0.0350 -0.5391
19081TIP3    H278659   4.580   5.985   2.975 -0.1374 -0.0452 -0.7221
19082TIP3   OH278660   5.022   6.164  16.525  0.1415 -0.3893 -0.0245
19082TIP3    H178661   4.962   6.111  16.472  0.5676  0.4403 -1.3810
19082TIP3    H278662   4.975   6.246  16.540 -0.0039 -0.6503  0.9637
19083TIP3   OH278663   4.830   6.337  12.075 -0.0274  0.4772 -0.3509
19083TIP3    H178664   4.853   6.389  12.153 -0.9341  0.5269 -0.1171
19083TIP3    H278665   4.738   6.356  12.060 -0.5242 -1.4952  0.0585
19084TIP3   OH278666   3.645   3.628   4.210 -0.0109 -0.7464 -0.2326
19084TIP3    H178667   3.631   3.613   4.116  2.9939 -0.5669 -0.7534
19084TIP3    H278668   3.622   3.720   4.223  2.3962  0.0827 -1.4522
19085TIP3   OH278669   3.365   6.017  11.876  0.1518 -0.3321  0.7968
19085TIP3    H178670   3.318   6.060  11.804 -0.5987  0.1327  1.5520
19085TIP3    H278671   3.308   5.945  11.903  1.0722 -1.3559  0.0173
19086TIP3   OH278672   5.330   6.529   1.485 -1.1509 -0.6205  0.2585
19086TIP3    H178673   5.293   6.442   1.499  0.0429 -1.0442  0.8389
19086TIP3    H278674   5.424   6.517   1.496 -0.9624  0.7121  0.1671
19087TIP3   OH278675   0.804   4.920  17.049  0.4192  0.0034  0.3467
19087TIP3    H178676   0.785   4.837  17.094  1.2477 -0.7042 -0.5869
19087TIP3    H278677   0.762   4.987  17.104 -0.6149 -1.0619  0.8873
19088TIP3   OH278678   5.833   3.507   3.236  0.0702 -0.5637  0.3877
19088TIP3    H178679   5.770   3.556   3.182 -0.4013  0.4277  1.8179
19088TIP3    H278680   5.779   3.465   3.303  0.7288 -1.2527  0.4842
19089TIP3   OH278681   5.131   3.627  15.283  0.1412 -0.5803 -0.8931
19089TIP3    H178682   5.225   3.607  15.285 -0.0933 -1.6897 -0.7651
19089TIP3    H278683   5.127   3.722  15.268  1.3215 -0.1812  1.1108
19090TIP3   OH278684   6.334   5.334   3.350 -0.1112  1.3793 -0.3353
19090TIP3    H178685   6.399   5.404   3.355 -1.2486  2.5257 -0.9614
19090TIP3    H278686   6.277   5.349   3.426  2.9398 -2.3826  2.9133
19091TIP3   OH278687   6.666   3.030   1.571  0.6077 -0.2254  0.5292
19091TIP3    H178688   6.762   3.035   1.570  0.7052 -1.5563 -2.4637
19091TIP3    H278689   6.637   3.121   1.562  1.6145  0.0186 -0.2963
19092TIP3   OH278690   5.977   1.565   0.676  0.2218  0.3134  0.1131
19092TIP3    H178691   6.008   1.572   0.766  0.2713  0.6858  0.0702
19092TIP3    H278692   5.931   1.648   0.660 -0.5794 -0.1257  0.0969
19093TIP3   OH278693   6.627   4.347  16.658  0.8070  0.0638  0.3905
19093TIP3    H178694   6.557   4.283  16.670  1.0335 -0.3961 -0.7078
19093TIP3    H278695   6.584   4.423  16.619  0.4396  0.8022  2.1876
19094TIP3   OH278696   6.216   6.234   2.268 -0.8673 -0.3008  0.3941
19094TIP3    H178697   6.223   6.293   2.343  1.9696  0.9465 -0.7839
19094TIP3    H278698   6.242   6.148   2.302  4.1491  0.9672  0.1092
19095TIP3   OH278699   4.679   4.619   2.587 -0.6185  0.2003  0.4078
19095TIP3    H178700   4.668   4.525   2.572 -1.6874  0.4079 -0.1908
19095TIP3    H278701   4.717   4.652   2.506 -0.4414  0.3202  0.5389
19096TIP3   OH278702   4.462   3.098   1.171 -0.8041  0.0343  0.1423
19096TIP3    H178703   4.435   3.092   1.080  0.6056 -0.0526 -0.2873
19096TIP3    H278704   4.470   3.192   1.188 -0.7801  0.0417  0.0883
19097TIP3   OH278705   3.145   5.810  13.483 -0.7014 -0.5268 -0.2028
19097TIP3    H178706   3.135   5.843  13.393  2.6396 -0.1260 -0.4818
19097TIP3    H278707   3.193   5.728  13.473  0.8202  0.1576  1.2863
19098TIP3   OH278708   4.573   1.047  15.352 -0.0800 -0.5696 -0.3715
19098TIP3    H178709   4.667   1.067  15.343 -0.6020  1.3641 -2.1193
19098TIP3    H278710   4.540   1.047  15.262 -2.3542  1.9664  0.3931
19099TIP3   OH278711   1.326   1.294   1.414 -0.0265  0.6507 -0.1282
19099TIP3    H178712   1.278   1.328   1.339 -0.8738 -0.1606  0.0381
19099TIP3    H278713   1.403   1.251   1.376 -1.3756 -1.3215 -0.6800
19100TIP3   OH278714   2.593   5.032   4.786  0.6711  0.0530 -0.1886
19100TIP3    H178715   2.597   5.107   4.847  1.8586  1.0767 -1.4909
19100TIP3    H278716   2.574   5.072   4.701 -3.0690 -1.5518 -0.2083
19101TIP3   OH278717   6.020   6.145  13.167 -0.5850 -0.1339  0.1988
19101TIP3    H178718   6.012   6.054  13.193 -0.2597  0.2531  1.7122
19101TIP3    H278719   5.932   6.182  13.178 -0.7555 -0.3002 -0.5772
19102TIP3   OH278720   3.299   3.897   6.215  0.0680  0.4329 -0.5457
19102TIP3    H178721   3.290   3.802   6.215 -0.1186  0.4494 -0.8621
19102TIP3    H278722   3.382   3.913   6.259 -0.5608  0.1904  0.7305
19103TIP3   OH278723   6.777   3.148   5.704  0.1417  0.2712  0.1805
19103TIP3    H178724   6.767   3.078   5.640 -0.0558  0.9299 -0.5207
19103TIP3    H278725   6.690   3.186   5.714  0.2573  0.4603  0.5028
19104TIP3   OH278726   0.353   2.095   2.399  0.0616  0.2966 -0.1150
19104TIP3    H178727   0.288   2.148   2.445 -0.0961  0.9803 -1.1088
19104TIP3    H278728   0.415   2.069   2.467 -0.2255  1.2012  0.5032
19105TIP3   OH278729   0.087   3.674   3.838  0.3174  0.2215  0.7930
19105TIP3    H178730   0.130   3.638   3.916 -0.3803 -1.0373  0.5998
19105TIP3    H278731   0.017   3.730   3.872  0.8910  0.7764  1.0780
19106TIP3   OH278732   3.830   1.513   4.485  0.2411 -0.1117 -0.4412
19106TIP3    H178733   3.826   1.544   4.575 -0.2835 -0.4319 -0.3573
19106TIP3    H278734   3.749   1.465   4.472  0.8047 -0.9993 -0.7434
19107TIP3   OH278735   5.237   4.557  11.708  0.0077 -0.0143  0.4601
19107TIP3    H178736   5.293   4.507  11.648 -0.4781  0.4196 -0.3662
19107TIP3    H278737   5.293   4.575  11.784  1.6338  2.0405 -1.1449
19108TIP3   OH278738   1.102   2.155   5.910 -0.1445 -0.0070  0.2056
19108TIP3    H178739   1.116   2.250   5.914  1.5745 -0.2624  0.3964
19108TIP3    H278740   1.025   2.140   5.965 -0.6050  1.3100 -0.0566
19109TIP3   OH278741   4.945   5.789  15.731 -0.1883 -0.4820 -0.4681
19109TIP3    H178742   4.949   5.885  15.725 -1.6624 -0.4527 -1.1728
19109TIP3    H278743   4.860   5.771  15.771  1.0452 -1.4421  1.8309
19110TIP3   OH278744   4.313   4.263   0.390  0.0032 -0.2221 -0.3046
19110TIP3    H178745   4.370   4.200   0.435  0.2475 -0.3173 -0.7452
19110TIP3    H278746   4.286   4.324   0.459  0.3290 -0.4011 -0.0152
19111TIP3   OH278747   2.522   1.733  15.673 -0.2829 -0.3151 -0.3749
19111TIP3    H178748   2.544   1.677  15.747 -0.6143  0.6743  0.4808
19111TIP3    H278749   2.598   1.792  15.665  1.5726 -2.9270 -3.3125
19112TIP3   OH278750   1.854   0.600   4.413  0.4194  0.1361  0.3571
19112TIP3    H178751   1.767   0.630   4.389  0.5133 -0.7388 -1.1310
19112TIP3    H278752   1.866   0.631   4.503 -1.9234 -0.7923  1.0433
19113TIP3   OH278753   4.363   2.104  10.619 -0.4441  0.0417 -0.0393
19113TIP3    H178754   4.322   2.181  10.659 -0.5521  0.2398 -0.5150
19113TIP3    H278755   4.304   2.032  10.640  0.9969 -0.3933  2.6187
19114TIP3   OH278756   6.529   5.666   1.315 -0.1922  0.6283 -0.1591
19114TIP3    H178757   6.484   5.599   1.367 -0.3624  0.1441 -0.9291
19114TIP3    H278758   6.582   5.714   1.379 -1.5034  0.9712  0.7053
19115TIP3   OH278759   1.406   3.399   4.965  0.0836 -0.5415 -0.2847
19115TIP3    H178760   1.353   3.334   5.012 -0.3747  0.5925  0.8068
19115TIP3    H278761   1.408   3.368   4.875 -2.4676 -0.6324 -0.3569
19116TIP3   OH278762   4.218   4.242   5.795  0.2009 -0.4712 -0.2320
19116TIP3    H178763   4.207   4.330   5.759  1.6084 -0.3442 -0.3626
19116TIP3    H278764   4.238   4.256   5.887  1.1082 -0.6231 -0.4025
19117TIP3   OH278765   5.299   6.284  17.205  0.9244  0.5397  0.0496
19117TIP3    H178766   5.280   6.216  17.271  0.5955 -0.1194 -0.7167
19117TIP3    H278767   5.379   6.253  17.162 -0.4388 -0.5162 -1.8052
19118TIP3   OH278768   5.807   6.419  10.935 -0.5344  0.1036  0.0200
19118TIP3    H178769   5.849   6.335  10.914 -0.8047 -0.4873  1.7064
19118TIP3    H278770   5.836   6.479  10.867  1.2586 -0.8730 -0.1086
19119TIP3   OH278771   1.200   5.435   4.503  0.1486  0.1966  0.3265
19119TIP3    H178772   1.258   5.370   4.463  0.4380 -0.1965  1.3877
19119TIP3    H278773   1.132   5.384   4.546  0.0180  0.6121  0.6193
19120TIP3   OH278774   3.908   3.955  11.365 -0.1869  1.0341  0.0493
19120TIP3    H178775   3.940   3.867  11.344 -0.1040  0.8023  1.1433
19120TIP3    H278776   3.974   4.014  11.328  0.1538  0.6245 -0.0012
19121TIP3   OH278777   1.675   4.280   1.431  0.0303  0.2197 -0.3579
19121TIP3    H178778   1.728   4.289   1.352 -1.2690 -0.5864 -1.3343
19121TIP3    H278779   1.723   4.218   1.486 -0.3600 -1.2529 -1.6484
19122TIP3   OH278780   3.988   2.777   4.054 -0.1197 -0.3547  0.5880
19122TIP3    H178781   4.007   2.708   3.990 -1.6824 -2.0191  1.8533
19122TIP3    H278782   4.069   2.828   4.059  0.7590 -1.5217 -1.0614
19123TIP3   OH278783   2.226   3.780   1.632  0.4127 -0.1587 -0.0140
19123TIP3    H178784   2.146   3.815   1.595  0.5614  0.1261 -0.0659
19123TIP3    H278785   2.287   3.776   1.558  0.7818  0.6308  0.2436
19124TIP3   OH278786   3.682   6.071   0.157 -0.0744  0.6069  0.4228
19124TIP3    H178787   3.735   5.999   0.123 -0.5561  0.3714  0.1654
19124TIP3    H278788   3.746   6.140   0.177  0.5997 -0.5100  2.3295
19125TIP3   OH278789   3.274   5.534  14.523 -0.7066  0.6342  0.5841
19125TIP3    H178790   3.285   5.624  14.491  1.7193  0.1854  0.0932
19125TIP3    H278791   3.225   5.544  14.605 -2.5836  2.1787 -0.6560
19126TIP3   OH278792   3.963   4.310   1.392 -0.5780  0.9487  0.6236
19126TIP3    H178793   3.939   4.374   1.325 -0.9457  0.4817  0.3062
19126TIP3    H278794   3.929   4.227   1.359  0.3797  0.4925  0.7710
19127TIP3   OH278795   4.000   2.992  13.241  0.1954 -0.0111  0.0798
19127TIP3    H178796   3.956   3.015  13.160  1.1882 -0.5254 -0.6159
19127TIP3    H278797   3.933   2.949  13.294 -0.0040 -1.3145 -1.2010
19128TIP3   OH278798   3.451   0.208  14.193 -0.5303 -0.0480 -0.0025
19128TIP3    H178799   3.493   0.236  14.275  2.8986  0.0430 -1.6925
19128TIP3    H278800   3.507   0.138  14.161 -1.9503 -0.2062 -2.1925
19129TIP3   OH278801   0.123   5.563  14.082  0.2878  0.2923 -0.4584
19129TIP3    H178802   0.163   5.649  14.073 -0.2714  0.3667 -2.3214
19129TIP3    H278803   0.124   5.526  13.994 -0.4662 -1.1656  0.1249
19130TIP3   OH278804   0.715   5.258  13.123 -0.0977 -0.1309  0.0138
19130TIP3    H178805   0.626   5.294  13.127  0.7372  1.7847  3.0354
19130TIP3    H278806   0.755   5.301  13.048 -1.6294 -0.8976 -1.2886
19131TIP3   OH278807   1.158   1.339   1.197 -0.0479 -0.2787  0.2713
19131TIP3    H178808   1.171   1.330   1.102  1.1963  0.4578  0.3646
19131TIP3    H278809   1.068   1.308   1.211 -0.9710  1.4932 -1.4410
19132TIP3   OH278810   6.465   5.756   4.909 -0.4079 -0.0271 -0.6292
19132TIP3    H178811   6.507   5.705   4.977  0.0066  0.4674 -0.5082
19132TIP3    H278812   6.530   5.821   4.884 -0.7368  0.1067 -1.1482
19133TIP3   OH278813   2.928   1.769   1.754  0.4756  0.4774  0.1801
19133TIP3    H178814   2.952   1.677   1.758  2.7019  1.0068 -0.0473
19133TIP3    H278815   2.991   1.807   1.692 -1.2270  1.9068 -0.6979
19134TIP3   OH278816   2.063   0.769  16.804 -0.1603  0.2609 -0.2788
19134TIP3    H178817   1.972   0.796  16.793 -0.5333 -1.2007 -0.9473
19134TIP3    H278818   2.113   0.850  16.795 -1.2677  0.8113 -1.7904
19135TIP3   OH278819   0.189   6.605  10.369 -0.2025  0.1237  0.1868
19135TIP3    H178820   0.168   6.632  10.280 -0.5794  2.2312  0.8603
19135TIP3    H278821   0.162   6.680  10.423  1.1013 -0.6312  1.9440
19136TIP3   OH278822   3.478   0.748   4.929 -0.3599 -0.1871 -0.0852
19136TIP3    H178823   3.553   0.806   4.914 -1.1818  0.5522 -1.3943
19136TIP3    H278824   3.414   0.775   4.864 -1.1554 -1.8879 -0.0163
19137TIP3   OH278825   5.852   6.301   2.471  0.3928  0.1227 -0.0740
19137TIP3    H178826   5.769   6.332   2.436 -0.9781 -0.3204  2.6490
19137TIP3    H278827   5.847   6.206   2.465  0.2978  0.0583  0.9685
19138TIP3   OH278828   1.159   5.318   4.857  0.0333  0.9621 -0.4211
19138TIP3    H178829   1.197   5.263   4.789 -0.1650  1.2682 -0.7765
19138TIP3    H278830   1.199   5.404   4.843  1.0037  0.7018  0.6654
19139TIP3   OH278831   1.783   3.020  15.151  0.2183 -0.1844  0.6612
19139TIP3    H178832   1.877   3.036  15.160  0.4540 -0.7930 -0.5672
19139TIP3    H278833   1.777   2.927  15.129 -0.7054 -0.2581  1.2091
19140TIP3   OH278834   0.328   2.271   1.547  0.1432 -0.2481  0.1907
19140TIP3    H178835   0.292   2.303   1.630  1.3097  2.0206 -0.1639
19140TIP3    H278836   0.403   2.218   1.572 -0.7235 -1.2864  0.6707
19141TIP3   OH278837   5.523   2.605  14.823  0.0387 -0.1029 -0.6021
19141TIP3    H178838   5.579   2.542  14.868  0.3027  1.4079  1.2214
19141TIP3    H278839   5.435   2.569  14.831  0.3516 -0.8917 -0.7087
19142TIP3   OH278840   1.157   3.142  11.825  0.1060  0.4485 -0.3256
19142TIP3    H178841   1.160   3.058  11.779 -1.4682 -0.3567  1.0113
19142TIP3    H278842   1.182   3.121  11.915 -0.2221  1.4342 -0.0006
19143TIP3   OH278843   6.432   6.455   2.843 -0.6098 -0.1641 -0.2729
19143TIP3    H178844   6.469   6.537   2.809  0.4837  0.3630  2.0972
19143TIP3    H278845   6.341   6.476   2.860  0.2127  1.3602  2.6182
19144TIP3   OH278846   3.269   4.359  11.214 -0.5410 -0.0163 -0.0953
19144TIP3    H178847   3.342   4.418  11.230 -0.1957 -0.6617  0.7401
19144TIP3    H278848   3.273   4.295  11.285 -1.5597 -0.4084 -0.3736
19145TIP3   OH278849   5.920   0.501   3.920 -0.2188  0.1574 -0.1921
19145TIP3    H178850   5.997   0.492   3.864  0.0695 -0.6649  0.3288
19145TIP3    H278851   5.872   0.575   3.883  0.0068 -0.3192 -1.4843
19146TIP3   OH278852   6.736   1.536  13.741  0.1583  0.3109 -0.3193
19146TIP3    H178853   6.681   1.570  13.670  0.1940  0.0935 -0.4502
19146TIP3    H278854   6.682   1.545  13.820  0.6821  2.0046 -0.1231
19147TIP3   OH278855   4.367   6.598   1.026 -0.5326  0.3710 -0.3191
19147TIP3    H178856   4.339   6.679   0.983 -1.4385 -0.1199 -0.6587
19147TIP3    H278857   4.434   6.562   0.968  0.7428  1.4940  0.4421
19148TIP3   OH278858   0.409   0.359   5.319  0.3466 -0.3337 -0.3668
19148TIP3    H178859   0.459   0.277   5.322  0.7404 -0.0800  0.2057
19148TIP3    H278860   0.476   0.427   5.312 -0.0275 -0.1136 -1.8852
19149TIP3   OH278861   3.198   3.909   0.017 -0.2275  0.4305 -0.0384
19149TIP3    H178862   3.293   3.910   0.018 -0.1395 -0.7286 -2.7331
19149TIP3    H278863   3.173   4.001   0.030  1.3010  0.9367 -0.6032
19150TIP3   OH278864   3.860   5.156  14.378 -0.5331  0.0001 -0.1925
19150TIP3    H178865   3.889   5.246  14.391  0.3950 -0.0391 -1.8259
19150TIP3    H278866   3.934   5.103  14.406 -1.2010 -0.2775  1.0769
19151TIP3   OH278867   4.594   2.020   2.069  0.0953  0.4088  0.2685
19151TIP3    H178868   4.605   2.115   2.079 -2.0213  0.5247  1.7118
19151TIP3    H278869   4.667   1.983   2.118 -0.3275  1.2716  1.5891
19152TIP3   OH278870   5.573   3.625   2.352  0.2137 -0.1549 -0.6757
19152TIP3    H178871   5.555   3.671   2.434  1.0287 -2.3344  0.7896
19152TIP3    H278872   5.520   3.670   2.287  0.1427  2.1245  0.8896
19153TIP3   OH278873   3.556   1.882  14.981 -0.1467 -0.6944 -0.5236
19153TIP3    H178874   3.607   1.920  15.053 -0.7077 -0.9211  0.0021
19153TIP3    H278875   3.607   1.806  14.953  0.4024 -0.2223 -0.8045
19154TIP3   OH278876   0.047   3.422   2.724 -0.0519 -0.5932 -0.0869
19154TIP3    H178877   0.088   3.507   2.738 -0.0195 -0.1225 -2.8061
19154TIP3    H278878   0.111   3.372   2.672 -0.5588 -1.8586  0.4743
19155TIP3   OH278879   4.588   5.929   6.106 -0.0759 -0.2916  0.0641
19155TIP3    H178880   4.580   5.834   6.090 -1.7586  0.1158 -1.7974
19155TIP3    H278881   4.585   5.967   6.018 -0.5319  1.5606  0.8777
19156TIP3   OH278882   5.241   6.671  12.135 -0.1473  0.4323 -0.2982
19156TIP3    H178883   5.250   6.710  12.048  2.1332  1.6128  0.4230
19156TIP3    H278884   5.200   6.739  12.188 -1.0365 -0.0889 -0.3105
19157TIP3   OH278885   6.475   4.969  12.182 -0.2940 -0.0103 -0.6312
19157TIP3    H178886   6.509   4.956  12.093  2.4161 -1.3866  0.5394
19157TIP3    H278887   6.398   4.912  12.187 -0.0152 -0.5104 -1.8483
19158TIP3   OH278888   1.595   0.813   4.979 -0.2468  0.6239 -0.3451
19158TIP3    H178889   1.579   0.901   4.944 -2.2675  0.4204 -0.0056
19158TIP3    H278890   1.551   0.812   5.064  0.4759 -0.4562  0.0308
19159TIP3   OH278891   0.668   2.770  11.683 -0.1378  0.7731  0.3090
19159TIP3    H178892   0.667   2.769  11.588 -0.2621 -1.6423  0.2941
19159TIP3    H278893   0.598   2.710  11.708 -0.0490  1.3204  1.9254
19160TIP3   OH278894   2.485   4.456   5.634 -0.1712  0.5490  0.1466
19160TIP3    H178895   2.476   4.520   5.563  0.6287  1.2519  0.6598
19160TIP3    H278896   2.410   4.397   5.623 -1.6222  2.2856  0.3756
19161TIP3   OH278897   0.596   6.255   2.826 -0.3471  0.2054  0.2553
19161TIP3    H178898   0.623   6.347   2.822 -1.3604  0.5151  0.1956
19161TIP3    H278899   0.505   6.259   2.859 -0.3400 -0.7817  0.3977
19162TIP3   OH278900   3.955   0.693  16.531  0.2807 -0.2326  0.2313
19162TIP3    H178901   3.933   0.607  16.567 -0.7339  0.1204  0.4881
19162TIP3    H278902   3.957   0.751  16.607 -2.4531  0.6376 -0.2656
19163TIP3   OH278903   2.162   0.214   1.805 -0.1210  0.2716  0.3130
19163TIP3    H178904   2.141   0.294   1.756  0.3775  0.2811  0.1170
19163TIP3    H278905   2.197   0.244   1.888 -0.3046  0.2565  0.3958
19164TIP3   OH278906   1.790   5.937   6.442  0.5858 -0.5637  0.4259
19164TIP3    H178907   1.882   5.938   6.468  0.8288  0.2456 -0.4646
19164TIP3    H278908   1.772   6.025   6.410 -0.1869 -1.0508 -0.5181
19165TIP3   OH278909   1.766   1.047  13.324 -0.6797 -0.3679  0.0727
19165TIP3    H178910   1.814   0.977  13.281 -0.6686 -0.3030 -0.0196
19165TIP3    H278911   1.695   1.070  13.263 -0.4119  0.0134 -0.1012
19166TIP3   OH278912   4.188   5.871   1.082  0.7873  0.0236  0.5237
19166TIP3    H178913   4.226   5.887   0.995 -2.2993  1.1847 -0.6616
19166TIP3    H278914   4.104   5.829   1.064  1.5463 -2.7537  3.1163
19167TIP3   OH278915   0.096   2.620  15.735  0.0067  0.3343  0.4186
19167TIP3    H178916   0.072   2.707  15.765  1.5675  0.4439  1.4207
19167TIP3    H278917   0.167   2.593  15.794 -0.8943 -1.8837  0.5523
19168TIP3   OH278918   3.755   6.546   5.902 -0.3224  0.1684 -0.0638
19168TIP3    H178919   3.762   6.478   5.969 -0.3420  2.2492  2.1154
19168TIP3    H278920   3.764   6.628   5.950 -1.7492  1.7700 -2.4451
19169TIP3   OH278921   6.171   3.784   3.770 -0.2880 -0.7443 -0.7357
19169TIP3    H178922   6.227   3.774   3.693  1.0466 -0.6268  0.2067
19169TIP3    H278923   6.086   3.811   3.734  0.8947  1.4036 -2.0311
19170TIP3   OH278924   2.800   4.536  11.694  0.6291  0.1583 -0.2344
19170TIP3    H178925   2.739   4.495  11.632 -0.6999  2.0120 -0.2095
19170TIP3    H278926   2.864   4.581  11.639 -0.2857  1.4208 -0.2964
19171TIP3   OH278927   0.543   5.193   2.140 -0.7026  0.1231 -0.1835
19171TIP3    H178928   0.622   5.232   2.178  0.6674 -1.4961 -1.3034
19171TIP3    H278929   0.503   5.264   2.090  1.6643  0.1858 -2.0720
19172TIP3   OH278930   5.538   6.632   3.724 -0.0422  0.3527  0.4968
19172TIP3    H178931   5.467   6.653   3.663  0.3341 -0.8673 -0.3565
19172TIP3    H278932   5.614   6.678   3.690 -0.4643  1.8736  1.5554
19173TIP3   OH278933   6.428   3.489   4.460 -0.0673 -0.1199  0.0680
19173TIP3    H178934   6.483   3.563   4.435  0.1342 -0.4493 -0.4723
19173TIP3    H278935   6.431   3.487   4.556 -0.1325  0.6155  0.0844
19174TIP3   OH278936   3.481   3.630  11.539 -0.7973  0.2576  0.2840
19174TIP3    H178937   3.429   3.665  11.466  0.9269  1.4153 -0.4361
19174TIP3    H278938   3.516   3.708  11.582 -1.7668 -0.4207  2.3676
19175TIP3   OH278939   1.036   3.692  16.996  0.1373  0.0405 -0.6013
19175TIP3    H178940   0.984   3.669  16.919 -0.5792 -0.3894  0.0074
19175TIP3    H278941   1.068   3.780  16.978 -2.5067  1.1586 -0.1198
19176TIP3   OH278942   6.288   4.189   1.628  0.7242  0.0678 -0.4679
19176TIP3    H178943   6.229   4.125   1.590  0.0290  1.4276 -1.7182
19176TIP3    H278944   6.246   4.215   1.710  1.4595 -1.7282  0.4887
19177TIP3   OH278945   5.256   3.392  16.412 -0.1114  0.1064  0.1805
19177TIP3    H178946   5.188   3.453  16.439  2.0107  2.6272 -0.0039
19177TIP3    H278947   5.273   3.339  16.490 -0.1343  1.5215  1.1676
19178TIP3   OH278948   5.732   3.240  16.942 -0.0654  0.0888  0.0255
19178TIP3    H178949   5.714   3.230  17.036 -1.1850  1.3938 -0.0216
19178TIP3    H278950   5.666   3.303  16.912 -0.5298 -1.2822 -1.9076
19179TIP3   OH278951   6.549   3.390  12.751 -0.1603  0.8699 -0.1633
19179TIP3    H178952   6.453   3.387  12.747 -0.1475  1.8695 -1.9003
19179TIP3    H278953   6.569   3.389  12.844 -1.7545 -1.9877  0.2047
19180TIP3   OH278954   1.051   0.913  11.537  0.2503  0.5830  0.8534
19180TIP3    H178955   1.056   0.848  11.607 -0.4990 -0.2493  0.1464
19180TIP3    H278956   0.958   0.916  11.514  0.6573 -0.0457 -0.9444
19181TIP3   OH278957   6.168   1.727   3.863  0.6352  0.1367 -0.1185
19181TIP3    H178958   6.112   1.782   3.808 -0.3554  0.1671  0.8915
19181TIP3    H278959   6.224   1.789   3.910  2.1072  0.0600 -1.7460
19182TIP3   OH278960   1.996   4.824  11.034  0.3668 -0.0258 -0.4968
19182TIP3    H178961   1.921   4.880  11.052  1.3134  0.5068  1.9597
19182TIP3    H278962   2.045   4.869  10.966 -1.7136 -0.5640 -2.3956
19183TIP3   OH278963   1.343   5.626  16.150  0.0325  0.0076 -0.4105
19183TIP3    H178964   1.366   5.718  16.141 -1.5279  0.3128 -1.3925
19183TIP3    H278965   1.300   5.620  16.235  1.5797 -0.1369  0.3841
19184TIP3   OH278966   1.158   4.852  13.282  0.4430  0.1900  0.0021
19184TIP3    H178967   1.068   4.829  13.259  0.5364  0.5836 -0.7737
19184TIP3    H278968   1.207   4.770  13.272  0.2247  0.0467  0.1175
19185TIP3   OH278969   3.812   3.384  11.204  0.6023 -0.1739 -0.2562
19185TIP3    H178970   3.777   3.466  11.167 -2.0934 -1.4864 -0.6974
19185TIP3    H278971   3.862   3.412  11.280 -0.1640  1.9219 -0.4867
19186TIP3   OH278972   0.335   0.823  12.094 -0.2858  0.0493  0.3519
19186TIP3    H178973   0.364   0.881  12.165 -0.8952  0.6215  0.1403
19186TIP3    H278974   0.269   0.767  12.135  0.2490 -0.4521  0.5362
19187TIP3   OH278975   3.612   2.773  10.311  0.2408  0.5084 -0.6763
19187TIP3    H178976   3.642   2.858  10.343  0.1861  0.4056 -0.3496
19187TIP3    H278977   3.518   2.783  10.300  0.4908  1.1077 -2.5493
19188TIP3   OH278978   2.139   5.973  16.327 -0.2362 -0.4749 -0.2051
19188TIP3    H178979   2.143   6.058  16.283  0.9434 -0.3436  0.1375
19188TIP3    H278980   2.124   5.910  16.257  0.0631 -0.1020 -0.6096
19189TIP3   OH278981   2.486   5.151  11.166  0.4813 -0.3703 -0.3958
19189TIP3    H178982   2.555   5.090  11.138  1.6162  0.0138  1.4975
19189TIP3    H278983   2.513   5.235  11.129  2.1744  0.2118  2.0616
19190TIP3   OH278984   1.941   3.956  14.955 -0.2334 -0.2189  0.4134
19190TIP3    H178985   1.853   3.977  14.925 -0.4322 -0.4662  0.8054
19190TIP3    H278986   1.958   3.868  14.921 -0.9144 -0.9712  1.9740
19191TIP3   OH278987   5.261   3.449  12.650  1.1505 -0.3107  0.7064
19191TIP3    H178988   5.215   3.472  12.569 -1.4047  1.1793  2.5062
19191TIP3    H278989   5.309   3.528  12.674 -0.6958  0.3604  2.3152
19192TIP3   OH278990   6.360   0.202  15.345  0.3682  0.2040  0.2617
19192TIP3    H178991   6.274   0.241  15.364  0.1726 -0.3061  0.4309
19192TIP3    H278992   6.419   0.277  15.336  0.1842  0.4995  1.5049
19193TIP3   OH278993   5.588   1.714   3.837 -0.3907 -0.2739 -0.2516
19193TIP3    H178994   5.631   1.784   3.788 -1.0021  0.6291  0.4944
19193TIP3    H278995   5.640   1.705   3.917  0.2239 -1.3042 -0.7576
19194TIP3   OH278996   1.834   0.160  16.232  0.4576  0.2129  0.3470
19194TIP3    H178997   1.774   0.224  16.195 -0.6179 -0.8714  0.1598
19194TIP3    H278998   1.911   0.210  16.258 -1.1744  1.9038  2.0683
19195TIP3   OH278999   4.866   0.914   5.392  0.6521  1.0328  0.3366
19195TIP3    H179000   4.830   0.867   5.316  1.3105  1.2283 -0.1022
19195TIP3    H279001   4.816   0.881   5.467  0.0111  0.8199 -0.1801
19196TIP3   OH279002   5.348   3.683  15.046  0.2611 -0.1820 -0.0165
19196TIP3    H179003   5.364   3.719  15.133  1.3579 -0.6058 -0.0317
19196TIP3    H279004   5.426   3.708  14.996 -0.1520 -0.3431 -0.7440
19197TIP3   OH279005   5.723   0.580  14.668  0.6786 -0.1401 -0.0933
19197TIP3    H179006   5.646   0.633  14.651  0.8042  1.2537  3.3081
19197TIP3    H279007   5.707   0.540  14.754  2.4809 -2.2001 -0.6528
19198TIP3   OH279008   5.398   1.111   2.898  0.6152  0.0366  0.4986
19198TIP3    H179009   5.366   1.071   2.979 -1.0681  0.2395 -0.0557
19198TIP3    H279010   5.384   1.043   2.832  1.5168  0.0621  0.2772
19199TIP3   OH279011   3.631   1.530   0.151 -0.1216  0.1716 -0.6272
19199TIP3    H179012   3.723   1.524   0.124  0.0189 -3.6205  0.4234
19199TIP3    H279013   3.584   1.557   0.073  2.0892  4.2978 -0.6609
19200TIP3   OH279014   2.921   4.991   0.748 -0.0431  0.4188  0.0452
19200TIP3    H179015   2.850   4.942   0.790  0.2834  0.2754  0.4315
19200TIP3    H279016   2.891   5.004   0.658  0.2848 -1.2956 -0.3114
19201TIP3   OH279017   1.435   3.752   6.185 -0.2350 -0.7145 -0.1693
19201TIP3    H179018   1.402   3.667   6.155 -2.5299  0.6546 -1.7733
19201TIP3    H279019   1.356   3.803   6.204  1.0824  1.1018  0.6129
19202TIP3   OH279020   6.633   3.684  12.682 -0.1282 -0.6499 -0.1948
19202TIP3    H179021   6.568   3.621  12.715 -1.6536  0.7002 -0.5501
19202TIP3    H279022   6.625   3.678  12.587 -0.4029  0.1770 -0.2322
19203TIP3   OH279023   3.332   4.933   1.986  0.2579 -0.1396  0.1748
19203TIP3    H179024   3.259   4.888   1.943  0.2516 -0.6418  0.7069
19203TIP3    H279025   3.296   5.019   2.008  0.5740  0.4910 -1.7172
19204TIP3   OH279026   1.436   2.385   2.693  0.5002 -0.5556 -0.4672
19204TIP3    H179027   1.363   2.330   2.721  0.3540 -1.0269 -1.7377
19204TIP3    H279028   1.461   2.434   2.771  0.8583 -2.6962  0.7933
19205TIP3   OH279029   5.719   3.953  14.016 -0.4248 -0.2117 -0.2102
19205TIP3    H179030   5.660   3.961  13.941  2.6054 -3.4170 -3.1536
19205TIP3    H279031   5.797   4.002  13.991  0.8538 -1.7895  0.5212
19206TIP3   OH279032   3.623   4.599   0.811 -0.0654 -0.3286  0.0114
19206TIP3    H179033   3.535   4.580   0.780 -0.4901 -2.7236  2.5000
19206TIP3    H279034   3.612   4.668   0.877 -0.0701 -0.6189  0.3138
19207TIP3   OH279035   4.603   6.665  13.628  0.3462  0.4351 -0.3414
19207TIP3    H179036   4.651   6.743  13.600 -0.7605  1.3549  0.3200
19207TIP3    H279037   4.512   6.694  13.636  0.0998 -0.6700  0.9109
19208TIP3   OH279038   1.517   6.611  14.285 -0.3979 -1.1752  0.0941
19208TIP3    H179039   1.468   6.608  14.367  1.8858 -0.7100  1.5362
19208TIP3    H279040   1.530   6.704  14.269 -1.1560 -1.2563 -1.0023
19209TIP3   OH279041   4.256   3.421  10.445 -0.1779  0.3165 -0.3040
19209TIP3    H179042   4.233   3.353  10.382 -0.1616 -2.0231  2.1409
19209TIP3    H279043   4.340   3.393  10.482 -0.8606  0.8948  1.7590
19210TIP3   OH279044   3.717   0.863   3.672  0.5981  0.1323 -0.0032
19210TIP3    H179045   3.795   0.831   3.625  0.7003 -0.1662  0.3684
19210TIP3    H279046   3.681   0.785   3.714  1.2754  0.6321  1.5202
19211TIP3   OH279047   3.692   1.203   2.898 -0.7008  0.4656 -0.2358
19211TIP3    H179048   3.786   1.199   2.884 -0.8180  0.2847 -1.0117
19211TIP3    H279049   3.655   1.204   2.809 -1.3967  1.2392  0.0562
19212TIP3   OH279050   1.264   1.485  13.078 -0.7628 -0.3855  0.1308
19212TIP3    H179051   1.241   1.502  13.169  1.3014  1.4708  0.3329
19212TIP3    H279052   1.237   1.564  13.031 -2.0404 -1.4287 -0.9475
19213TIP3   OH279053   2.619   3.473  11.892 -0.7278 -0.1609  0.6972
19213TIP3    H179054   2.536   3.425  11.901 -0.6699 -0.6891 -1.4900
19213TIP3    H279055   2.601   3.540  11.827  0.2438  0.4614  1.0646
19214TIP3   OH279056   4.328   5.237  17.018  0.3225  0.0178  0.3668
19214TIP3    H179057   4.300   5.176  16.950 -0.2448  0.5907  0.0841
19214TIP3    H279058   4.356   5.315  16.970 -0.0244  0.4028  0.7869
19215TIP3   OH279059   0.907   6.305  15.587  0.0200 -0.3593 -0.0348
19215TIP3    H179060   0.977   6.246  15.558 -0.7230 -0.1813 -2.1989
19215TIP3    H279061   0.832   6.248  15.602  0.0974 -0.3078  0.6016
19216TIP3   OH279062   1.342   4.245   0.076 -1.1109  0.5006 -1.0133
19216TIP3    H179063   1.392   4.178   0.029 -0.2342  1.5299 -1.5634
19216TIP3    H279064   1.252   4.232   0.046 -1.0479 -0.7990 -0.6804
19217TIP3   OH279065   0.634   5.067  11.806  0.1649 -0.5045 -0.5876
19217TIP3    H179066   0.597   5.117  11.734 -0.6746 -0.5265 -0.1740
19217TIP3    H279067   0.718   5.110  11.824  0.4545 -0.5943 -1.6697
19218TIP3   OH279068   6.571   4.018  14.902 -0.2065 -0.3549  0.3142
19218TIP3    H179069   6.632   4.007  14.975  0.6795  1.5524 -0.1142
19218TIP3    H279070   6.549   4.111  14.903 -0.4704 -0.3769 -1.6198
19219TIP3   OH279071   4.691   1.737  11.127 -0.7297 -0.2112  0.2537
19219TIP3    H179072   4.656   1.647  11.122 -2.2125  0.3556  0.0557
19219TIP3    H279073   4.718   1.757  11.038  3.3988 -1.8831  1.0136
19220TIP3   OH279074   0.300   4.937   2.133  0.2323 -0.2379 -0.2061
19220TIP3    H179075   0.359   4.952   2.059 -0.9266  0.8039 -0.9425
19220TIP3    H279076   0.215   4.919   2.093 -0.7091  1.6626  0.8627
19221TIP3   OH279077   1.707   5.541   3.385 -0.0179  0.4257  0.3244
19221TIP3    H179078   1.720   5.512   3.295  0.5854  1.1452  0.1705
19221TIP3    H279079   1.613   5.532   3.400  0.1709 -1.8118  0.3632
19222TIP3   OH279080   6.327   3.219   5.534 -0.3245 -0.6752  0.3544
19222TIP3    H179081   6.258   3.202   5.469 -0.2817  1.5885 -0.3388
19222TIP3    H279082   6.386   3.144   5.527  0.3830  0.1393 -3.1876
19223TIP3   OH279083   4.636   0.040   0.734 -0.4138  0.1418 -0.2604
19223TIP3    H179084   4.639  -0.042   0.685 -0.3543 -0.8151  1.3076
19223TIP3    H279085   4.727   0.063   0.750 -0.3484  1.7688 -2.6860
19224TIP3   OH279086   5.066   0.205  15.622 -0.8650 -0.1544  0.0054
19224TIP3    H179087   4.985   0.256  15.623 -0.9096 -0.2423  1.3714
19224TIP3    H279088   5.133   0.267  15.653 -0.7469 -0.6365  0.7179
19225TIP3   OH279089   1.228   0.339  12.778 -0.2451  0.3900 -0.3024
19225TIP3    H179090   1.267   0.252  12.766  0.7653  0.4699  2.0410
19225TIP3    H279091   1.304   0.397  12.786 -0.9153  1.5556 -2.0929
19226TIP3   OH279092   0.690   3.183   1.405 -0.1547 -0.2646  0.3561
19226TIP3    H179093   0.675   3.191   1.499  1.2131 -0.1223  0.5716
19226TIP3    H279094   0.679   3.090   1.387  1.9278 -0.6823  1.0923
19227TIP3   OH279095   3.543   0.381   1.021  0.2415 -0.1470 -0.3955
19227TIP3    H179096   3.516   0.379   0.929 -0.7606 -1.7103 -0.0723
19227TIP3    H279097   3.461   0.384   1.070  0.7043 -1.9108  0.5065
19228TIP3   OH279098   3.320   1.280   5.206 -0.6255  0.3275 -0.5854
19228TIP3    H179099   3.299   1.187   5.213 -1.4426  0.6226  1.5113
19228TIP3    H279100   3.237   1.321   5.179 -0.1089  0.3928 -2.1149
19229TIP3   OH279101   1.562   4.546   2.243 -0.4638 -0.2139  0.2803
19229TIP3    H179102   1.593   4.564   2.154  1.4365  2.1129  1.3616
19229TIP3    H279103   1.501   4.618   2.262  0.2423  0.1114  1.3568
19230TIP3   OH279104   6.457   3.843  12.840 -0.3137  0.2281  0.1718
19230TIP3    H179105   6.514   3.801  12.776  0.0772  0.1976  0.5300
19230TIP3    H279106   6.379   3.867  12.792 -0.4882 -0.8042 -0.0652
19231TIP3   OH279107   3.530   6.405  13.761 -0.2516  0.2102 -0.5320
19231TIP3    H179108   3.579   6.349  13.821 -2.2838 -0.7280  0.2941
19231TIP3    H279109   3.465   6.448  13.816  0.8509  2.9454 -1.2709
19232TIP3   OH279110   6.119   2.395   0.905 -0.1653  0.2467  0.2594
19232TIP3    H179111   6.088   2.431   0.822 -0.9231 -1.1482 -0.0717
19232TIP3    H279112   6.073   2.447   0.972  0.9761  1.8407 -0.1493
19233TIP3   OH279113   4.244   0.563  16.315  0.0262 -0.5619 -0.3359
19233TIP3    H179114   4.219   0.654  16.300  0.7308 -0.3038  0.0555
19233TIP3    H279115   4.309   0.567  16.385  0.1352 -1.3547 -0.3882
19234TIP3   OH279116   0.272   0.680  16.321  0.5057 -0.0236  0.1260
19234TIP3    H179117   0.206   0.735  16.362  0.3704 -0.3145  0.3004
19234TIP3    H279118   0.298   0.728  16.242  0.3073  0.2329  0.2177
19235TIP3   OH279119   4.482   3.637  16.109  0.5913  0.2742 -0.1920
19235TIP3    H179120   4.525   3.699  16.168 -1.4135  2.2141 -0.6751
19235TIP3    H279121   4.427   3.692  16.053  1.2605 -1.6695 -2.8322
19236TIP3   OH279122   3.185   3.030  14.991 -0.2457  1.0257  0.1121
19236TIP3    H179123   3.191   2.957  14.929 -1.2151  0.8155  0.2605
19236TIP3    H279124   3.117   3.087  14.954 -0.1775  1.3567  0.5044
19237TIP3   OH279125   4.500   2.889   1.524  0.0104 -0.1185 -0.0262
19237TIP3    H179126   4.425   2.948   1.515 -0.5401 -0.8893 -0.6060
19237TIP3    H279127   4.562   2.937   1.578 -0.5648  0.8587 -0.2180
19238TIP3   OH279128   1.571   2.806   3.745 -0.4076 -0.0450  0.1541
19238TIP3    H179129   1.639   2.825   3.681 -1.5575 -0.9905 -1.4186
19238TIP3    H279130   1.533   2.723   3.715 -2.9744  1.0030  0.3075
19239TIP3   OH279131   2.296   3.550  13.944 -0.4150  1.0315 -0.2424
19239TIP3    H179132   2.332   3.613  14.006 -0.4192  0.9062 -0.1127
19239TIP3    H279133   2.327   3.465  13.974 -0.6942  0.9383 -0.2172
19240TIP3   OH279134   2.106   5.591  16.701 -0.0728 -0.1759  0.2481
19240TIP3    H179135   2.040   5.658  16.720 -0.7018 -0.5735 -0.4799
19240TIP3    H279136   2.189   5.633  16.721 -0.5529  0.3255  1.2001
19241TIP3   OH279137   4.705   1.168   0.534  0.6629 -0.2022 -0.0278
19241TIP3    H179138   4.714   1.078   0.503 -0.9419  0.0686 -1.3753
19241TIP3    H279139   4.693   1.219   0.454 -2.1203  0.7185  0.9136
19242TIP3   OH279140   0.231   1.112  14.824  0.8734  0.6364 -0.7352
19242TIP3    H179141   0.316   1.134  14.864  0.8070 -2.2189  1.0880
19242TIP3    H279142   0.254   1.062  14.746  0.9205 -1.8322  0.7955
19243TIP3   OH279143   3.383   3.683   1.922  0.7381  0.0569  0.1764
19243TIP3    H179144   3.400   3.610   1.982  0.2245  0.3129  0.6318
19243TIP3    H279145   3.297   3.664   1.885  0.3356  0.7500  0.7592
19244TIP3   OH279146   6.208   4.793   2.298  0.4335  0.3127 -0.2156
19244TIP3    H179147   6.238   4.856   2.364  1.0615 -0.2152  0.0061
19244TIP3    H279148   6.196   4.711   2.346 -0.2104  0.2175 -0.5401
19245TIP3   OH279149   1.162   6.744  14.514  0.0375 -0.3295  0.3594
19245TIP3    H179150   1.212   6.808  14.565 -0.3905  1.0009 -0.8673
19245TIP3    H279151   1.193   6.755  14.424 -1.6915 -0.2150 -0.2471
19246TIP3   OH279152   2.869   5.612  14.061  0.2371 -0.5157 -0.3333
19246TIP3    H179153   2.811   5.541  14.032  0.0047 -0.2994 -0.3937
19246TIP3    H279154   2.949   5.567  14.089  0.8721 -0.6426 -2.3022
19247TIP3   OH279155   6.684   5.037  15.827  0.0244 -0.0752 -0.4251
19247TIP3    H179156   6.701   4.945  15.809 -2.4846 -1.0105  1.7193
19247TIP3    H279157   6.623   5.065  15.759 -1.7237 -0.9183  0.7545
19248TIP3   OH279158   3.589   1.703   3.301 -0.0786  0.0712 -0.1462
19248TIP3    H179159   3.542   1.778   3.338 -0.3576  0.1224 -0.6015
19248TIP3    H279160   3.604   1.726   3.209  1.0886  0.1742  0.0629
19249TIP3   OH279161   6.286   0.060   1.073  0.0165  0.4477  0.0302
19249TIP3    H179162   6.307   0.057   1.166 -0.4869 -0.1228  0.1268
19249TIP3    H279163   6.198   0.098   1.069 -0.1752 -0.0144 -0.1749
19250TIP3   OH279164   2.070   1.965  12.692  0.3575  0.6988 -0.1252
19250TIP3    H179165   2.074   2.059  12.676  1.6684  0.6209 -0.2851
19250TIP3    H279166   2.158   1.942  12.723 -0.2955 -0.2633  1.0501
19251TIP3   OH279167   3.309   0.865   4.726 -0.0838  0.0085 -0.3674
19251TIP3    H179168   3.221   0.829   4.716 -0.8827  1.8782 -0.4440
19251TIP3    H279169   3.297   0.960   4.718  2.1515  0.2184 -1.8693
19252TIP3   OH279170   4.701   6.774   4.754 -0.1196  0.2775  0.2432
19252TIP3    H179171   4.696   6.780   4.849 -0.0288 -1.7257  0.3942
19252TIP3    H279172   4.787   6.735   4.737  0.3865  1.7645 -0.7255
19253TIP3   OH279173   3.046   5.322  14.916  0.5834  0.5179  0.0239
19253TIP3    H179174   3.056   5.390  14.982  0.4029 -0.2252  0.8231
19253TIP3    H279175   2.952   5.320  14.897  0.7465  1.3279 -0.8988
19254TIP3   OH279176   2.358   6.194  10.766  0.2616  0.0907 -0.3456
19254TIP3    H179177   2.410   6.262  10.723 -0.1626  0.4257 -0.3376
19254TIP3    H279178   2.422   6.133  10.801  0.6194 -0.0074 -1.1624
19255TIP3   OH279179   1.463   1.273  12.742 -0.5011  0.6197  0.3814
19255TIP3    H179180   1.418   1.223  12.674  0.3515  2.1215 -1.3097
19255TIP3    H279181   1.545   1.225  12.756 -0.0607  1.0721 -0.6359
19256TIP3   OH279182   6.416   0.548   3.363  0.0134 -0.1037 -0.1295
19256TIP3    H179183   6.463   0.472   3.398  0.6401  1.0396  1.5427
19256TIP3    H279184   6.435   0.619   3.424 -1.1165  1.2466 -1.3072
19257TIP3   OH279185   4.740   2.426   0.058 -0.3702  0.2387  0.3449
19257TIP3    H179186   4.649   2.399   0.049 -0.0532 -0.5869 -0.4547
19257TIP3    H279187   4.781   2.399  -0.023  0.6863  0.2423  0.8722
19258TIP3   OH279188   5.487   2.460   0.827  0.7567  0.4410 -0.0173
19258TIP3    H179189   5.449   2.498   0.748 -1.1647  0.2496  0.7752
19258TIP3    H279190   5.412   2.446   0.885  1.5935 -3.1918  0.2910
19259TIP3   OH279191   0.267   2.572   6.029  0.3927 -0.1012  0.0038
19259TIP3    H179192   0.241   2.626   6.104  1.1968 -1.7214  1.4909
19259TIP3    H279193   0.193   2.512   6.017 -0.2178  0.8807 -1.2326
19260TIP3   OH279194   1.509   1.615  11.712 -0.7526 -0.6542 -0.1535
19260TIP3    H179195   1.486   1.680  11.777 -0.7454  0.0460 -0.8424
19260TIP3    H279196   1.430   1.562  11.700 -1.4057  0.5206 -1.0921
19261TIP3   OH279197   5.465   0.387  12.786  0.2768 -0.1803 -0.0825
19261TIP3    H179198   5.440   0.390  12.878  0.3472  0.7586 -0.0981
19261TIP3    H279199   5.411   0.316  12.750 -1.5767  1.0716  0.1341
19262TIP3   OH279200   3.023   4.253   5.482 -0.3358  0.4336 -0.2970
19262TIP3    H179201   3.015   4.179   5.422 -3.1349 -1.3628  2.1656
19262TIP3    H279202   2.942   4.303   5.470  0.5211  1.8549 -0.3078
19263TIP3   OH279203   2.720   5.823  10.755  0.0008 -0.0859 -0.2265
19263TIP3    H179204   2.703   5.804  10.847  0.2470  0.3435 -0.0948
19263TIP3    H279205   2.729   5.736  10.714 -2.0084 -0.3121 -0.2189
19264TIP3   OH279206   1.464   2.465   5.752 -0.0509  1.1172 -0.6349
19264TIP3    H179207   1.442   2.372   5.750  1.6773  0.7125 -1.1392
19264TIP3    H279208   1.380   2.509   5.739 -0.7966 -0.3660 -0.9770
19265TIP3   OH279209   0.404   2.563  16.451  0.1340  0.0285 -0.8329
19265TIP3    H179210   0.476   2.500  16.441  0.7180  0.1450  2.1633
19265TIP3    H279211   0.328   2.508  16.471 -0.0326  0.0742 -1.3464
19266TIP3   OH279212   5.277   3.269   3.540 -0.6832 -0.0328 -0.0370
19266TIP3    H179213   5.205   3.243   3.482 -0.7388  0.5424 -0.2311
19266TIP3    H279214   5.319   3.342   3.494 -0.1781 -0.1508  0.2304
19267TIP3   OH279215   1.551   2.630  16.850  0.3488  0.1062  0.0720
19267TIP3    H179216   1.591   2.587  16.775 -1.8662 -2.5847  0.3596
19267TIP3    H279217   1.621   2.636  16.915  1.0714 -1.8875 -0.4897
19268TIP3   OH279218   6.602   3.804   4.578 -0.5211  0.2963  0.5391
19268TIP3    H179219   6.643   3.753   4.648 -2.0712 -2.0661 -0.2280
19268TIP3    H279220   6.637   3.892   4.589  3.3371 -1.2216  1.0274
19269TIP3   OH279221   3.918   2.280   2.263  0.1676  0.2395 -0.5097
19269TIP3    H179222   3.985   2.347   2.278 -0.5589  0.9331 -0.3218
19269TIP3    H279223   3.959   2.218   2.203  0.8338  0.8775 -0.7195
19270TIP3   OH279224   2.362   5.355   5.093  0.2647 -0.0851  0.2890
19270TIP3    H179225   2.329   5.352   5.183  0.9076 -2.8003  0.4636
19270TIP3    H279226   2.299   5.410   5.047 -0.3641  0.9289  2.2749
19271TIP3   OH279227   1.890   0.525  14.367  0.1205 -0.2756  0.4669
19271TIP3    H179228   1.803   0.518  14.408  0.2587  2.5323  1.3420
19271TIP3    H279229   1.948   0.549  14.440  1.3357 -0.5371 -0.4115
19272TIP3   OH279230   2.316   6.457   0.319 -0.5901 -0.4982 -0.2587
19272TIP3    H179231   2.386   6.505   0.364 -0.0634  0.0953 -1.7025
19272TIP3    H279232   2.332   6.472   0.226 -2.1305 -1.0865 -0.6326
19273TIP3   OH279233   1.147   2.406  17.133  0.0906  0.0475  0.0117
19273TIP3    H179234   1.219   2.433  17.076  0.7730 -0.9038  0.4121
19273TIP3    H279235   1.181   2.331  17.181 -0.8508  0.1835  0.9034
19274TIP3   OH279236   2.360   0.945  14.485  0.2022 -0.0271 -0.0348
19274TIP3    H179237   2.355   0.987  14.571 -0.7178 -2.6128  1.2475
19274TIP3    H279238   2.450   0.959  14.457  0.8060  0.0347  1.8191
19275TIP3   OH279239   4.483   2.020  10.850 -0.1267 -0.7422 -0.6192
19275TIP3    H179240   4.574   2.045  10.868  1.0589 -4.0488 -1.6058
19275TIP3    H279241   4.463   2.060  10.766 -0.2911  1.6116  0.4989
19276TIP3   OH279242   2.378   0.625   2.804  0.4378 -0.5483 -0.1934
19276TIP3    H179243   2.414   0.701   2.849  0.9755  0.2832 -2.0082
19276TIP3    H279244   2.440   0.607   2.733 -1.1369 -0.9599 -1.4928
19277TIP3   OH279245   4.557   5.957  17.206 -0.2874 -0.2883 -0.6426
19277TIP3    H179246   4.569   5.864  17.222 -1.3038 -0.4844 -0.9378
19277TIP3    H279247   4.645   5.992  17.193  0.3283 -0.7289  2.0638
19278TIP3   OH279248   3.294   5.280   0.281 -0.1319 -0.4587  1.0988
19278TIP3    H179249   3.259   5.194   0.302 -0.6486 -0.3667  0.6144
19278TIP3    H279250   3.383   5.279   0.316 -0.3873 -0.9292  1.7271
19279TIP3   OH279251   6.391   2.325   4.079 -0.1207  0.2584  0.5768
19279TIP3    H179252   6.419   2.283   3.998 -0.2219  0.9120  0.1993
19279TIP3    H279253   6.446   2.403   4.087  1.9623 -1.3546  2.6964
19280TIP3   OH279254   1.899   3.095   4.219 -0.2565 -0.2358  0.4902
19280TIP3    H179255   1.911   3.086   4.125 -0.8301  1.4355  0.2498
19280TIP3    H279256   1.868   3.008   4.248 -1.2139 -0.4173 -1.0256
19281TIP3   OH279257   5.726   2.177  16.743  0.7479  0.1610  0.1752
19281TIP3    H179258   5.726   2.210  16.833  1.2372 -1.4551  0.7967
19281TIP3    H279259   5.788   2.234  16.697  0.4629  1.0319  0.8545
19282TIP3   OH279260   1.527   3.363  15.990 -0.5450  0.1057 -0.4262
19282TIP3    H179261   1.463   3.298  15.959  1.1243 -0.9178 -1.7908
19282TIP3    H279262   1.528   3.430  15.922 -1.3046  0.9273  0.3583
19283TIP3   OH279263   6.652   5.170   1.123 -0.3142  0.1509  0.5019
19283TIP3    H179264   6.571   5.160   1.073 -0.6447  1.0245  0.8512
19283TIP3    H279265   6.653   5.262   1.149  0.7071  0.1041  0.6501
19284TIP3   OH279266   2.561   4.509  12.311 -0.2605  0.0619 -0.6058
19284TIP3    H179267   2.507   4.531  12.387  0.8257 -0.4794  0.3379
19284TIP3    H279268   2.535   4.419  12.290  1.7872 -1.0144  1.2180
19285TIP3   OH279269   5.623   5.040   4.319  0.1972 -0.4449 -0.0477
19285TIP3    H179270   5.661   4.961   4.358 -0.4685 -1.4778 -1.4584
19285TIP3    H279271   5.531   5.019   4.306 -0.0759  0.7209 -0.0487
19286TIP3   OH279272   0.606   5.000   5.684  0.0387 -0.5901  0.2269
19286TIP3    H179273   0.524   5.023   5.639  0.1637 -1.4792 -0.4849
19286TIP3    H279274   0.604   5.050   5.765 -0.7358  0.1774 -0.2548
19287TIP3   OH279275   6.637   3.154   4.671  0.3107 -0.2624  0.0073
19287TIP3    H179276   6.632   3.116   4.583 -0.0895  0.9289 -0.4954
19287TIP3    H279277   6.703   3.223   4.664  0.1980 -0.0890  0.6174
19288TIP3   OH279278   5.229   5.333  11.404 -0.4386 -0.3051 -0.2357
19288TIP3    H179279   5.276   5.416  11.393  1.5822 -1.6256 -2.1099
19288TIP3    H279280   5.257   5.300  11.489 -0.3571  0.3952  0.0098
19289TIP3   OH279281   1.007   2.707  16.550 -0.3994 -0.7325 -0.3821
19289TIP3    H179282   0.920   2.685  16.519 -0.5969  0.2209 -0.5264
19289TIP3    H279283   0.995   2.789  16.598  0.4247 -0.5706 -0.4458
19290TIP3   OH279284   1.196   5.661  12.212  0.6090  0.8166  0.2481
19290TIP3    H179285   1.256   5.609  12.158 -0.3692  1.0180 -1.0518
19290TIP3    H279286   1.240   5.746  12.222 -0.8597  2.1042 -3.4435
19291TIP3   OH279287   1.709   0.575   1.958  0.5438  0.1186  0.0255
19291TIP3    H179288   1.715   0.481   1.974  0.7799  0.3914  1.6694
19291TIP3    H279289   1.796   0.608   1.982  0.2772  0.8193  0.0226
19292TIP3   OH279290   6.101   5.781  16.815  0.3272  0.0962  0.2483
19292TIP3    H179291   6.115   5.832  16.735  0.5164 -0.5590 -0.1433
19292TIP3    H279292   6.165   5.814  16.877  0.2539  0.5327  0.0879
19293TIP3   OH279293   2.933   0.797  14.249  0.0152  0.1416  0.1642
19293TIP3    H179294   2.907   0.829  14.162  0.5685  1.0560  0.3308
19293TIP3    H279295   3.016   0.752  14.233 -0.3712 -0.5454  0.0613
19294TIP3   OH279296   0.376   0.162   3.599  0.0417  0.1063 -0.0914
19294TIP3    H179297   0.420   0.110   3.532 -0.9009  0.1544 -0.7587
19294TIP3    H279298   0.283   0.153   3.580 -0.2085  0.7193  0.7705
19295TIP3   OH279299   0.395   5.925  14.891 -0.1856  0.0027  0.6975
19295TIP3    H179300   0.447   5.999  14.860  1.2673 -1.1655  0.2654
19295TIP3    H279301   0.442   5.848  14.859 -2.9641 -1.0787 -0.9031
19296TIP3   OH279302   4.493   4.980  15.764  0.4209 -0.0542 -0.2683
19296TIP3    H179303   4.585   5.008  15.772  0.4393 -0.0084 -0.6337
19296TIP3    H279304   4.458   4.989  15.853  1.1112 -1.3059  0.1352
19297TIP3   OH279305   1.943   1.690  12.884 -0.1776  0.2615 -0.5264
19297TIP3    H179306   1.887   1.614  12.867  0.6180 -0.5721  0.5522
19297TIP3    H279307   1.962   1.725  12.797 -2.2651  0.4969 -0.9291
19298TIP3   OH279308   2.994   1.302   1.397  0.0294  0.2576  0.0701
19298TIP3    H179309   2.898   1.300   1.398  0.0363 -0.0911  0.1718
19298TIP3    H279310   3.020   1.211   1.388  0.3610  0.1957  1.4630
19299TIP3   OH279311   4.121   6.198   0.624  0.1666 -0.1625  0.2530
19299TIP3    H179312   4.175   6.172   0.698  0.1839 -0.7132  0.0461
19299TIP3    H279313   4.053   6.131   0.619  0.8501 -0.7797 -0.9623
19300TIP3   OH279314   0.128   0.585   0.428  0.7807  0.2919  0.0896
19300TIP3    H179315   0.139   0.677   0.403  0.1295  0.1203 -0.8629
19300TIP3    H279316   0.043   0.582   0.470  0.7595  0.1074  0.0327
19301TIP3   OH279317   6.185   4.787  13.106  0.4980 -0.2511 -0.0984
19301TIP3    H179318   6.130   4.831  13.042  0.7394 -1.0154 -0.8426
19301TIP3    H279319   6.274   4.803  13.077  0.5778 -1.4806 -0.5538
19302TIP3   OH279320   6.620   3.703   5.354 -0.2632  0.1053  0.5408
19302TIP3    H179321   6.681   3.726   5.424 -1.6124  0.4333  1.6196
19302TIP3    H279322   6.633   3.610   5.339 -1.2812 -0.3719  2.5198
19303TIP3   OH279323   4.027   3.970  15.039 -0.2248  0.0868  0.0735
19303TIP3    H179324   4.002   3.938  14.952  1.6189  1.5971 -1.0343
19303TIP3    H279325   4.016   3.893  15.096 -0.0267 -1.3333 -1.7393
19304TIP3   OH279326   3.658   4.250   0.206  0.3594 -0.4090  0.1210
19304TIP3    H179327   3.650   4.282   0.296 -2.1572 -3.3421  1.0059
19304TIP3    H279328   3.652   4.329   0.152 -0.0065  1.1880  2.4426
19305TIP3   OH279329   0.969   6.221   1.076 -0.5723  0.1071  0.7219
19305TIP3    H179330   1.063   6.225   1.058 -0.9550  4.7592 -0.9927
19305TIP3    H279331   0.953   6.293   1.136 -2.7432 -2.2597  3.1278
19306TIP3   OH279332   1.154   6.109   0.231  0.2969  0.0525  0.1541
19306TIP3    H179333   1.099   6.046   0.185  0.0718 -0.6666  1.4098
19306TIP3    H279334   1.121   6.110   0.320  1.9857 -0.0041  0.8029
19307TIP3   OH279335   3.796   5.237   5.375  0.8196 -0.0895 -0.2513
19307TIP3    H179336   3.713   5.243   5.422  2.1714  0.9559  2.0685
19307TIP3    H279337   3.839   5.160   5.412  2.1283  1.0536  0.6584
19308TIP3   OH279338   4.999   2.005  12.196 -0.2453 -0.4687 -0.3357
19308TIP3    H179339   5.067   2.058  12.155 -0.2343  0.4699  0.8764
19308TIP3    H279340   5.045   1.927  12.228  0.0499 -0.3899 -0.5704
19309TIP3   OH279341   0.869   2.461  10.585 -0.3402  0.3595 -0.3551
19309TIP3    H179342   0.836   2.406  10.657 -0.8211 -0.5786 -1.2709
19309TIP3    H279343   0.844   2.550  10.610 -1.4014 -0.0662  0.1557
19310TIP3   OH279344   4.184   4.369   4.367 -0.0587 -0.3571  0.0477
19310TIP3    H179345   4.235   4.288   4.371 -1.6206 -1.2951  1.4449
19310TIP3    H279346   4.225   4.426   4.432  0.0135 -0.6274  0.2389
19311TIP3   OH279347   2.135   5.684  11.370  0.3762 -0.2665 -0.1656
19311TIP3    H179348   2.099   5.758  11.321  0.2486 -0.9000 -1.0574
19311TIP3    H279349   2.205   5.722  11.422 -0.5773  0.7128  0.4257
19312TIP3   OH279350   5.849   0.880  13.103 -0.1061 -0.8248  0.9263
19312TIP3    H179351   5.839   0.790  13.071  1.0856 -0.4098 -0.6722
19312TIP3    H279352   5.798   0.933  13.042  0.4467 -0.2521  0.9563
19313TIP3   OH279353   1.731   2.554   3.662  0.0156  0.0695  0.4321
19313TIP3    H179354   1.703   2.480   3.715 -0.5418  0.4570  0.6763
19313TIP3    H279355   1.654   2.578   3.611  0.4292 -0.0298 -0.2415
19314TIP3   OH279356   0.825   5.379   1.086 -0.5131  0.0306 -0.5740
19314TIP3    H179357   0.803   5.378   0.993 -2.6011 -0.4372 -0.0972
19314TIP3    H279358   0.756   5.328   1.128  0.3545  0.3044  1.2521
19315TIP3   OH279359   3.882   4.998   2.429  0.1741  0.1409 -0.5923
19315TIP3    H179360   3.966   4.953   2.422  0.3737  0.9035 -3.7033
19315TIP3    H279361   3.820   4.941   2.384 -0.7043  0.2699  0.4378
19316TIP3   OH279362   3.416   2.818  14.321  0.3250 -0.0553 -0.8529
19316TIP3    H179363   3.469   2.873  14.263 -0.0716  1.8632  0.5193
19316TIP3    H279364   3.480   2.771  14.374  0.6726 -0.4052 -1.5792
19317TIP3   OH279365   0.645   6.396  14.086 -0.3679 -0.3557  0.3165
19317TIP3    H179366   0.606   6.312  14.064 -0.4721  0.2155 -1.7303
19317TIP3    H279367   0.739   6.379  14.090 -0.5511 -1.0150  1.9914
19318TIP3   OH279368   0.050   0.760   3.050 -1.0273  0.3861 -0.1000
19318TIP3    H179369   0.081   0.671   3.069 -2.1649 -0.6915 -2.9953
19318TIP3    H279370  -0.020   0.776   3.113 -0.9117 -0.8461  0.3430
19319TIP3   OH279371   0.293   4.367   5.384 -0.3433 -0.4065 -0.4709
19319TIP3    H179372   0.254   4.334   5.465 -0.1622  1.4410  0.3825
19319TIP3    H279373   0.340   4.292   5.349 -0.7541 -1.3435  0.9283
19320TIP3   OH279374   4.693   5.579   4.469 -0.7073 -0.0879 -0.4853
19320TIP3    H179375   4.712   5.497   4.514  1.4708  1.0422  0.7353
19320TIP3    H279376   4.720   5.564   4.379 -0.6142 -0.8172 -0.3367
19321TIP3   OH279377   4.408   5.907  13.209 -0.0506  0.3462 -0.2647
19321TIP3    H179378   4.366   5.821  13.219  0.8900  0.0632  1.4155
19321TIP3    H279379   4.494   5.887  13.172 -0.7570  0.7849 -2.1704
19322TIP3   OH279380   6.242   6.645   2.621  0.5279 -0.7989  0.1696
19322TIP3    H179381   6.149   6.654   2.601  0.3830 -0.7340  0.8654
19322TIP3    H279382   6.256   6.702   2.696  0.8772 -1.7194  0.8095
19323TIP3   OH279383   1.288   1.464  11.658 -0.4101 -0.4946  0.0570
19323TIP3    H179384   1.207   1.499  11.696 -0.1727  0.9110 -0.6850
19323TIP3    H279385   1.259   1.423  11.576 -0.7300 -2.3325  1.0685
19324TIP3   OH279386   4.427   6.041  15.299 -0.6990  0.0752 -0.3092
19324TIP3    H179387   4.409   5.950  15.279 -0.6557  0.0241 -0.1169
19324TIP3    H279388   4.498   6.038  15.363  0.8352  0.2889 -1.9420
19325TIP3   OH279389   2.047   2.203   3.399 -0.1440  0.1260  0.3142
19325TIP3    H179390   2.001   2.283   3.425 -0.8187 -0.4667  0.9895
19325TIP3    H279391   1.977   2.139   3.384  0.4426 -0.6942  1.0162
19326TIP3   OH279392   0.701   6.346  11.935 -1.2696 -0.4925  0.6086
19326TIP3    H179393   0.628   6.284  11.946 -2.4054  1.0113  1.6959
19326TIP3    H279394   0.722   6.342  11.841 -2.4102 -1.3230  0.3755
19327TIP3   OH279395   1.150   5.260  13.372 -0.7876 -0.4216 -0.0210
19327TIP3    H179396   1.156   5.205  13.450 -0.3230 -0.4724 -0.0899
19327TIP3    H279397   1.057   5.278  13.362 -0.9277 -1.1027  0.0684
19328TIP3   OH279398   0.669   5.374   4.011 -0.2069  0.0668 -0.1659
19328TIP3    H179399   0.759   5.391   3.982  0.2649  0.2012  1.3383
19328TIP3    H279400   0.643   5.296   3.962 -0.2118  1.5310 -2.5644
19329TIP3   OH279401   2.174   1.129   4.088  0.1413 -0.7025  0.1484
19329TIP3    H179402   2.266   1.150   4.073  0.5605 -1.5827  1.4433
19329TIP3    H279403   2.152   1.177   4.168 -0.6742 -0.0653 -0.4543
19330TIP3   OH279404   1.330   6.020   2.853  0.9520 -0.0347 -0.2002
19330TIP3    H179405   1.425   6.031   2.853  0.8965  0.4797 -0.7310
19330TIP3    H279406   1.302   6.062   2.772  0.2301  0.1560  0.1550
19331TIP3   OH279407   4.966   2.280  12.816 -0.0428  0.4916 -0.0631
19331TIP3    H179408   4.906   2.212  12.845 -1.7851  1.9078 -0.2716
19331TIP3    H279409   5.009   2.244  12.738  1.5976 -1.6911  1.8028
19332TIP3   OH279410   0.681   3.440   4.382 -0.4196 -0.0182 -0.3605
19332TIP3    H179411   0.601   3.492   4.396  1.4007  2.8902 -0.3187
19332TIP3    H279412   0.721   3.436   4.469 -1.7968 -3.7957  0.1849
19333TIP3   OH279413   4.926   2.883  15.668 -0.6759 -0.1234 -0.9546
19333TIP3    H179414   4.943   2.860  15.759 -0.1867  0.1126 -0.9805
19333TIP3    H279415   4.831   2.896  15.663 -0.5071  1.7518 -0.0192
19334TIP3   OH279416   6.523   3.992  17.147 -0.2268 -0.0264 -0.1195
19334TIP3    H179417   6.521   4.078  17.105 -0.9802  0.2480  0.4811
19334TIP3    H279418   6.501   3.931  17.077 -0.4480  0.3376 -0.3695
19335TIP3   OH279419   2.809   5.374   3.689 -0.0982  0.0430  0.0734
19335TIP3    H179420   2.859   5.321   3.626 -0.1043  0.2848 -0.1371
19335TIP3    H279421   2.721   5.379   3.652  0.3952  1.8318 -0.9112
19336TIP3   OH279422   1.032   2.782  14.397 -0.1069  0.0855 -0.5755
19336TIP3    H179423   1.068   2.756  14.312 -1.4118  1.0473 -1.4484
19336TIP3    H279424   0.952   2.830  14.375 -1.9069 -1.9147  1.2821
19337TIP3   OH279425   2.319   4.503  14.030 -0.2271 -0.5418  0.0130
19337TIP3    H179426   2.342   4.410  14.035 -0.8107 -0.6613  0.5845
19337TIP3    H279427   2.360   4.542  14.107 -1.3107 -0.6290  0.6537
19338TIP3   OH279428   4.259   3.705  12.305 -0.1914  0.2393 -0.0312
19338TIP3    H179429   4.247   3.636  12.240 -0.4806 -0.1936  0.4775
19338TIP3    H279430   4.333   3.756  12.273  1.2881 -1.4785  0.5908
19339TIP3   OH279431   6.743   0.850   0.704 -0.3380  0.5914 -0.2482
19339TIP3    H179432   6.793   0.928   0.680  0.9502 -0.4895 -1.1743
19339TIP3    H279433   6.652   0.873   0.686 -0.3358  2.9856  2.5210
19340TIP3   OH279434   6.761   4.968   1.253 -0.1004 -0.5086 -0.7556
19340TIP3    H179435   6.719   5.054   1.247 -0.9313 -0.9308 -1.1456
19340TIP3    H279436   6.757   4.934   1.164  0.0848 -1.0131 -0.5707
19341TIP3   OH279437   1.753   6.623   6.389  0.0319 -0.5993 -0.2337
19341TIP3    H179438   1.809   6.552   6.419  0.1584  0.1841  1.4120
19341TIP3    H279439   1.813   6.695   6.371 -0.2413 -0.4255 -0.4422
19342TIP3   OH279440   3.180   6.384   2.299 -0.2285  0.0334 -0.2654
19342TIP3    H179441   3.106   6.323   2.293  0.3808 -0.8911  1.1700
19342TIP3    H279442   3.143   6.469   2.277 -0.9932 -0.9072 -2.8250
19343TIP3   OH279443   0.046   5.562   4.098  0.5505  0.3226 -0.5115
19343TIP3    H179444  -0.022   5.511   4.142  2.5073 -1.6539  0.2934
19343TIP3    H279445   0.001   5.641   4.068 -1.6323  0.0160  1.8166
19344TIP3   OH279446   5.205   1.865   4.316  0.1433 -0.5382  0.7388
19344TIP3    H179447   5.262   1.821   4.378  1.0931 -0.4181 -0.0340
19344TIP3    H279448   5.259   1.876   4.237 -0.3424  1.1969  0.6137
19345TIP3   OH279449   6.668   1.920   4.300 -0.7743  0.1433  0.1924
19345TIP3    H179450   6.731   1.975   4.346 -0.8489  0.2042  0.2224
19345TIP3    H279451   6.620   1.875   4.370  0.6145 -1.4664  0.1515
19346TIP3   OH279452   3.625   2.785  12.865 -0.4808  0.0684  0.4946
19346TIP3    H179453   3.601   2.857  12.806  0.4809  0.1310  0.1713
19346TIP3    H279454   3.718   2.771  12.849 -0.7954 -1.6811  0.0891
19347TIP3   OH279455   5.275   3.488  17.004 -0.1589  0.6693  0.4924
19347TIP3    H179456   5.245   3.578  17.021 -1.1610  0.4693 -0.2369
19347TIP3    H279457   5.263   3.443  17.088 -1.1485  0.7996  0.4294
19348TIP3   OH279458   6.055   1.619  13.634  0.2742  0.4190 -0.4262
19348TIP3    H179459   6.143   1.654  13.621  0.1482  1.0491  0.4048
19348TIP3    H279460   6.003   1.693  13.665 -0.1842 -0.2919  0.5545
19349TIP3   OH279461   1.694   6.755   4.055 -0.1605  0.0245  0.0944
19349TIP3    H179462   1.707   6.707   3.972 -1.9821 -1.9958  0.9185
19349TIP3    H279463   1.694   6.847   4.029 -0.7508 -0.5669 -2.1854
19350TIP3   OH279464   3.788   4.199   3.093  0.3096  0.1302 -0.3374
19350TIP3    H179465   3.774   4.136   3.023  0.4792 -0.3591  0.0667
19350TIP3    H279466   3.825   4.148   3.165  1.4220  0.8594 -0.3594
19351TIP3   OH279467   0.428   6.435  13.623 -0.6853 -0.3708 -0.8392
19351TIP3    H179468   0.456   6.433  13.714  3.3382 -1.3771 -1.9997
19351TIP3    H279469   0.446   6.525  13.595 -2.4623  0.1032 -0.5409
19352TIP3   OH279470   1.432   1.116   3.543  0.6359 -0.5084  0.5226
19352TIP3    H179471   1.366   1.089   3.480  0.0196 -1.8401  1.7211
19352TIP3    H279472   1.510   1.065   3.521  0.8457  0.0247  0.0028
19353TIP3   OH279473   5.767   2.265   0.832 -0.6201  1.2065  0.4478
19353TIP3    H179474   5.847   2.213   0.845 -1.2813  0.4693  1.7286
19353TIP3    H279475   5.794   2.355   0.850  0.1775  1.1162 -0.2523
19354TIP3   OH279476   1.467   3.713  16.347 -0.2261  0.1355 -0.6342
19354TIP3    H179477   1.561   3.726  16.359 -0.0708  1.0064 -2.5604
19354TIP3    H279478   1.429   3.729  16.433  1.3829 -0.1682  0.1498
19355TIP3   OH279479   6.263   4.640   5.561 -0.3941  0.1433  0.0111
19355TIP3    H179480   6.189   4.645   5.621 -0.5953 -0.9832 -0.1394
19355TIP3    H279481   6.235   4.691   5.484 -0.0443  1.7840  0.9439
19356TIP3   OH279482   5.238   2.680  12.929 -0.4644  0.1364 -0.1670
19356TIP3    H179483   5.159   2.648  12.886 -1.3745  1.6524  0.3115
19356TIP3    H279484   5.220   2.673  13.023 -0.6075  1.7498 -0.0469
19357TIP3   OH279485   3.286   2.815   5.562 -0.2990  0.6653 -0.2257
19357TIP3    H179486   3.218   2.762   5.521 -1.0118  0.2508  1.4539
19357TIP3    H279487   3.251   2.904   5.562 -1.0817  0.3811  1.0553
19358TIP3   OH279488   3.041   2.347   1.234  0.2208  0.7431  0.3535
19358TIP3    H179489   3.084   2.297   1.164  0.2096  1.3921 -0.1276
19358TIP3    H279490   2.958   2.376   1.195 -2.0823 -2.9524  2.2117
19359TIP3   OH279491   1.088   2.590  16.806 -0.5309  1.1529  0.4597
19359TIP3    H179492   1.126   2.652  16.867 -4.2446  3.1424  0.8844
19359TIP3    H279493   1.092   2.633  16.721 -1.2410  1.1303  0.4056
19360TIP3   OH279494   2.348   2.712   3.376 -0.0497  0.2526 -0.2711
19360TIP3    H179495   2.324   2.620   3.382 -1.2156  0.4975 -1.1306
19360TIP3    H279496   2.275   2.754   3.331 -0.1121  1.8394  1.2394
19361TIP3   OH279497   3.137   4.830   2.999 -0.3441 -0.0304 -0.0704
19361TIP3    H179498   3.088   4.826   2.917 -1.7297  0.9301  0.6981
19361TIP3    H279499   3.218   4.876   2.977 -0.4177 -0.3423 -1.0256
19362TIP3   OH279500   1.431   3.712  14.034  0.6160 -0.0713 -0.4117
19362TIP3    H179501   1.347   3.714  14.080  0.0303  2.4493 -1.4766
19362TIP3    H279502   1.409   3.684  13.945  1.1157 -0.8678 -0.2809
19363TIP3   OH279503   5.734   5.970  14.073 -0.2134  0.4951 -0.6253
19363TIP3    H179504   5.660   5.919  14.107  0.1427  0.1899 -0.3119
19363TIP3    H279505   5.738   6.046  14.131  0.0854  0.2208 -0.2908
19364TIP3   OH279506   3.039   5.874  12.965  0.0892  0.8735 -0.8004
19364TIP3    H179507   2.967   5.813  12.978 -0.1180  1.3407  0.3287
19364TIP3    H279508   3.039   5.892  12.871 -2.7301  2.6330 -0.5366
19365TIP3   OH279509   2.727   0.695   3.567  0.7676 -0.0597 -0.1689
19365TIP3    H179510   2.706   0.671   3.477  0.4844 -0.5760  0.0275
19365TIP3    H279511   2.714   0.614   3.617  1.6331  0.0286  0.2211
19366TIP3   OH279512   2.654   2.373   3.712  0.3200  0.1047 -0.1421
19366TIP3    H179513   2.570   2.368   3.757  0.1487 -1.2220 -0.6149
19366TIP3    H279514   2.652   2.457   3.666 -2.2226 -1.4555 -3.0580
19367TIP3   OH279515   2.782   0.167  12.124  0.0614  1.0623  0.1221
19367TIP3    H179516   2.808   0.137  12.037 -1.7305  1.6958 -0.6595
19367TIP3    H279517   2.707   0.112  12.147 -0.1101  1.5871  0.8223
19368TIP3   OH279518   2.453   3.463  17.081  0.7086  0.3497  0.3880
19368TIP3    H179519   2.484   3.519  17.009 -0.5767  0.4648 -0.0797
19368TIP3    H279520   2.485   3.375  17.058 -1.0758  0.0791 -1.1717
19369TIP3   OH279521   5.095   6.582   2.874 -0.4921 -0.6888  0.0628
19369TIP3    H179522   5.184   6.565   2.846 -0.0780  0.9157  0.3428
19369TIP3    H279523   5.066   6.500   2.915  1.5307 -0.6254  1.7030
19370TIP3   OH279524   4.392   6.726   4.001 -0.1796 -0.3912  0.6151
19370TIP3    H179525   4.472   6.678   4.018 -0.2658 -0.7454  0.0609
19370TIP3    H279526   4.366   6.762   4.086  0.0291 -1.1016  0.9812
19371TIP3   OH279527   0.799   1.164   2.980  0.2727  0.2089 -0.3157
19371TIP3    H179528   0.861   1.140   3.048  0.1152 -0.2446 -0.3274
19371TIP3    H279529   0.822   1.108   2.906 -0.5639 -0.4393 -0.0955
19372TIP3   OH279530   1.163   5.392  12.326  0.0731  0.2998 -0.0150
19372TIP3    H179531   1.247   5.367  12.287  0.4840 -0.7520  1.4907
19372TIP3    H279532   1.161   5.487  12.319  2.5642  0.5795  2.1825
19373TIP3   OH279533   5.156   5.158  12.169 -0.6851 -1.0724 -0.5596
19373TIP3    H179534   5.220   5.094  12.138  0.1209 -0.6049  0.1277
19373TIP3    H279535   5.073   5.111  12.166 -0.5207 -1.2866 -2.6623
19374TIP3   OH279536   3.219   4.294   3.605  0.3864  0.0143 -0.3934
19374TIP3    H179537   3.175   4.333   3.680 -0.3378  0.8576 -1.2421
19374TIP3    H279538   3.312   4.315   3.618  0.3302 -0.2777  0.5107
19375TIP3   OH279539   2.143   3.727  14.506 -0.3452 -0.1296 -0.4483
19375TIP3    H179540   2.132   3.664  14.436 -1.7968  1.4874 -1.7276
19375TIP3    H279541   2.149   3.675  14.586  0.0692 -1.9269 -1.6419
19376TIP3   OH279542   5.604   0.626  13.576  0.1996 -0.4327 -0.0758
19376TIP3    H179543   5.513   0.631  13.605 -0.0002 -3.1259 -0.1704
19376TIP3    H279544   5.651   0.590  13.651  1.1054  0.3054 -0.2697
19377TIP3   OH279545   2.110   0.857  14.752 -0.7646 -0.8397 -0.4164
19377TIP3    H179546   2.105   0.948  14.723 -1.0216 -0.9310 -0.6617
19377TIP3    H279547   2.192   0.852  14.800 -1.5217 -0.0651  1.0211
19378TIP3   OH279548   0.451   6.002  11.687  0.2953 -0.4940 -0.5291
19378TIP3    H179549   0.540   5.966  11.682  0.3755 -0.9383  3.1097
19378TIP3    H279550   0.462   6.095  11.667  1.5114 -0.6371 -0.5961
19379TIP3   OH279551   1.607   4.637  17.235  0.2767 -0.4703  0.1162
19379TIP3    H179552   1.701   4.634  17.218  0.1334  0.6589 -0.9601
19379TIP3    H279553   1.569   4.665  17.152 -1.0082 -0.8569  0.5674
19380TIP3   OH279554   2.843   0.165   1.570 -0.2413 -0.2295  0.5777
19380TIP3    H179555   2.829   0.089   1.513  0.2591  0.8787 -1.0460
19380TIP3    H279556   2.937   0.162   1.590 -0.2013  0.0269  0.4250
19381TIP3   OH279557   6.719   5.415  14.547  0.2143 -0.1753  0.0488
19381TIP3    H179558   6.720   5.485  14.482  0.7273 -0.1256  0.1099
19381TIP3    H279559   6.669   5.452  14.621 -1.6669 -0.7647 -0.8933
19382TIP3   OH279560   2.843   4.121   1.809 -0.4115 -0.0491 -0.0990
19382TIP3    H179561   2.790   4.190   1.850  0.1367  0.2240  0.1605
19382TIP3    H279562   2.842   4.142   1.716  0.8447  1.0847  0.1260
19383TIP3   OH279563   3.495   3.379  15.676 -0.3484  0.1440 -0.1836
19383TIP3    H179564   3.588   3.403  15.681 -0.4654  0.3705  1.1820
19383TIP3    H279565   3.449   3.464  15.674 -0.5106  0.0377 -1.4413
19384TIP3   OH279566   1.993   5.564   0.028  0.0428  0.2134 -0.2730
19384TIP3    H179567   1.952   5.510  -0.041 -0.8301  2.1404 -1.3055
19384TIP3    H279568   1.919   5.594   0.081  0.3106  2.0398 -0.9149
19385TIP3   OH279569   0.543   5.272  16.025  0.3527 -0.3774 -0.3094
19385TIP3    H179570   0.524   5.261  15.932 -1.0823 -1.9065  0.1371
19385TIP3    H279571   0.532   5.185  16.062 -1.3526  0.6296  1.6780
19386TIP3   OH279572   4.848   1.969   2.163 -0.0125 -0.2931  0.7266
19386TIP3    H179573   4.868   2.049   2.213 -0.5268 -0.2125  0.8045
19386TIP3    H279574   4.859   1.898   2.226 -2.3983 -0.0538  1.4410
19387TIP3   OH279575   1.847   6.753   4.804  0.6630 -0.2213  0.0786
19387TIP3    H179576   1.888   6.687   4.859  0.4718 -0.9623 -0.6585
19387TIP3    H279577   1.856   6.834   4.853  0.5696 -0.8583  1.1618
19388TIP3   OH279578   3.925   1.857   4.441 -0.3542 -0.8243  0.3346
19388TIP3    H179579   3.941   1.784   4.500 -1.7442 -0.3662  1.3064
19388TIP3    H279580   3.829   1.866   4.439 -0.2480  0.1939 -0.7157
19389TIP3   OH279581   5.114   5.165   4.787 -0.5799 -0.0391  0.2485
19389TIP3    H179582   5.034   5.151   4.837 -0.6047  2.1096  0.8739
19389TIP3    H279583   5.153   5.243   4.826  0.8298  0.0559 -1.2914
19390TIP3   OH279584   4.200   5.895  16.614  0.2060 -0.0853  0.4353
19390TIP3    H179585   4.233   5.847  16.690  2.9219 -0.1912 -0.7695
19390TIP3    H279586   4.122   5.846  16.587  1.3965 -2.2593  0.8458
19391TIP3   OH279587   4.979   2.640   3.456  1.1585  0.2193  0.1838
19391TIP3    H179588   4.978   2.544   3.458 -0.7472  0.2416  1.3895
19391TIP3    H279589   4.888   2.665   3.465  1.6338  2.1661 -0.1996
19392TIP3   OH279590   1.164   4.118   4.252  0.2529 -0.4613 -0.8079
19392TIP3    H179591   1.164   4.026   4.280 -3.3389 -0.2069  0.3899
19392TIP3    H279592   1.248   4.152   4.281  0.6639 -2.7946  0.9112
19393TIP3   OH279593   6.648   5.329   4.122 -0.8478  0.5137 -0.4264
19393TIP3    H179594   6.694   5.302   4.201  1.1196  2.4578 -0.8629
19393TIP3    H279595   6.604   5.411   4.146 -0.2432  1.1146 -1.3094
19394TIP3   OH279596   5.951   3.073   3.932  0.1387  0.2807  0.3032
19394TIP3    H179597   5.998   3.078   3.849 -1.0703 -0.6562 -0.4481
19394TIP3    H279598   6.019   3.053   3.997  1.3703  2.7792 -0.1487
19395TIP3   OH279599   0.870   2.567   0.500  0.2355 -0.1293  0.0421
19395TIP3    H179600   0.905   2.649   0.531  0.6451 -0.5587  0.7183
19395TIP3    H279601   0.941   2.504   0.511 -0.5637 -0.8957  0.9547
19396TIP3   OH279602   1.044   1.945  13.424 -0.4640 -0.1719  0.4807
19396TIP3    H179603   1.048   1.897  13.507  0.9289 -1.9122 -0.5594
19396TIP3    H279604   0.978   1.898  13.373  0.7214 -0.8643 -0.4454
19397TIP3   OH279605   6.706   0.842   6.016 -0.4751 -0.0362 -0.0672
19397TIP3    H179606   6.651   0.880   5.948  1.2385 -2.1770 -2.7187
19397TIP3    H279607   6.676   0.752   6.024  1.9349 -0.9440 -0.8309
19398TIP3   OH279608   5.662   6.156   4.312  0.0701  0.1501 -1.6669
19398TIP3    H179609   5.732   6.091   4.315 -0.6891 -0.7402 -2.5458
19398TIP3    H279610   5.683   6.209   4.235  0.6097  0.8633 -1.0342
19399TIP3   OH279611   3.459   5.597  15.114 -0.9204  0.1247 -0.8371
19399TIP3    H179612   3.472   5.685  15.078 -0.9861  0.6003  0.2607
19399TIP3    H279613   3.391   5.609  15.181 -1.2175 -0.8391 -0.9616
19400TIP3   OH279614   1.151   0.282  13.748 -0.4397 -0.3535  0.4269
19400TIP3    H179615   1.236   0.240  13.735 -1.5186 -3.0576  1.6957
19400TIP3    H279616   1.172   0.373  13.770  1.9804 -0.2201 -2.1582
19401TIP3   OH279617   1.935   1.854   0.484  0.3365  0.5616  0.2075
19401TIP3    H179618   2.016   1.802   0.478  1.3314  1.8567  1.8605
19401TIP3    H279619   1.939   1.893   0.572 -2.1324  0.5824  0.3251
19402TIP3   OH279620   3.811   1.854   1.131 -0.0442  0.4912 -0.0836
19402TIP3    H179621   3.734   1.909   1.142 -0.5928 -0.7081  2.4598
19402TIP3    H279622   3.884   1.910   1.157 -0.6426 -0.0366  2.9540
19403TIP3   OH279623   0.645   0.712  16.480 -0.3115 -0.2198  0.2127
19403TIP3    H179624   0.655   0.624  16.518  2.8920  1.2068  2.8771
19403TIP3    H279625   0.693   0.708  16.397  0.1099 -0.8919  0.4844
19404TIP3   OH279626   0.272   3.476  14.963  0.2209  0.1802 -0.2569
19404TIP3    H179627   0.251   3.558  14.918  2.6844  1.1875  0.3621
19404TIP3    H279628   0.261   3.497  15.056 -0.3536 -0.5732 -0.1446
19405TIP3   OH279629   6.684   6.550  11.158 -0.5168  0.3561 -0.2225
19405TIP3    H179630   6.718   6.472  11.115  1.6628  1.7267 -1.0423
19405TIP3    H279631   6.735   6.558  11.239  2.1268  3.0772 -2.0238
19406TIP3   OH279632   3.636   3.968  11.444 -0.3420  0.0736  0.5570
19406TIP3    H179633   3.723   3.992  11.412 -0.8734  0.5568 -0.5808
19406TIP3    H279634   3.652   3.909  11.517  0.9457 -0.5672 -0.2205
19407TIP3   OH279635   0.018   2.719  15.446 -0.4812  0.3035  0.3738
19407TIP3    H179636   0.055   2.802  15.476  0.7713  0.0911 -0.5633
19407TIP3    H279637  -0.014   2.676  15.526  2.2933 -0.0132  1.3571
19408TIP3   OH279638   0.524   6.634   2.131  0.1409 -0.0839 -0.4157
19408TIP3    H179639   0.595   6.682   2.174 -0.6960  2.2132 -1.4947
19408TIP3    H279640   0.565   6.598   2.052  1.0470 -2.1230  0.9635
19409TIP3   OH279641   3.018   6.621  14.396  0.0894  0.4613 -0.1672
19409TIP3    H179642   2.965   6.637  14.318 -0.0910  2.9903  0.4429
19409TIP3    H279643   2.960   6.571  14.454 -0.0942 -0.6073 -1.2423
19410TIP3   OH279644   1.425   0.982  17.006 -0.1242  0.0402  0.6066
19410TIP3    H179645   1.341   0.977  17.052 -0.1916 -0.2686  0.4512
19410TIP3    H279646   1.411   1.048  16.939 -1.4477 -2.5920 -1.8406
19411TIP3   OH279647   2.663   4.883  14.470 -0.0362 -0.0348 -0.1943
19411TIP3    H179648   2.650   4.972  14.503  0.9733 -0.1750  0.5913
19411TIP3    H279649   2.586   4.835  14.500  0.2500  0.1567  0.8756
19412TIP3   OH279650   1.397   6.291   4.321 -0.4084 -0.0245 -0.0218
19412TIP3    H179651   1.355   6.357   4.265  0.9262  0.3656 -0.5853
19412TIP3    H279652   1.380   6.321   4.410  2.1921  2.3912 -0.2850
19413TIP3   OH279653   0.306   1.194  17.027 -0.3206  0.1443 -0.0579
19413TIP3    H179654   0.399   1.209  17.014  0.3043 -2.5289  0.8691
19413TIP3    H279655   0.295   1.189  17.122 -0.7918 -2.6151 -0.1926
19414TIP3   OH279656   1.730   4.671  16.521  0.2652  0.5857  0.1063
19414TIP3    H179657   1.673   4.701  16.592 -0.9260  0.7868 -0.9321
19414TIP3    H279658   1.813   4.715  16.537  0.5535 -0.6645  2.3541
19415TIP3   OH279659   4.627   1.195   6.045  0.2376 -0.0447  0.0307
19415TIP3    H179660   4.639   1.105   6.014 -0.2471  0.5054 -1.7758
19415TIP3    H279661   4.675   1.198   6.128  0.7853 -1.7889 -0.1986
19416TIP3   OH279662   2.960   3.213   0.272  0.7497 -0.1449  0.3812
19416TIP3    H179663   2.976   3.277   0.203  1.7558 -0.5616  0.2169
19416TIP3    H279664   2.930   3.134   0.226  0.4277 -0.0931  0.5023
19417TIP3   OH279665   0.708   4.786  15.056 -0.4850 -0.1606  0.4432
19417TIP3    H179666   0.714   4.830  15.141 -0.2597 -1.8281  1.3251
19417TIP3    H279667   0.644   4.716  15.070  0.1679 -0.9704 -0.5209
19418TIP3   OH279668   5.558   1.541  16.893  0.1358  0.5302 -0.3057
19418TIP3    H179669   5.652   1.560  16.893  0.5410 -1.2096  1.3100
19418TIP3    H279670   5.520   1.610  16.947  0.0619  2.8594 -3.2295
19419TIP3   OH279671   1.164   1.693  12.908 -0.2630 -0.5534  0.1159
19419TIP3    H179672   1.222   1.768  12.921 -0.1349 -0.8358  1.2050
19419TIP3    H279673   1.106   1.720  12.836  0.2591  0.2988  0.0088
19420TIP3   OH279674   5.997   3.524   2.847 -0.1898  0.1209  0.1418
19420TIP3    H179675   6.090   3.524   2.825 -0.2247 -0.1500  0.0019
19420TIP3    H279676   5.984   3.445   2.900 -0.4824 -0.2139 -0.4315
19421TIP3   OH279677   0.581   5.560   0.881 -0.4636 -0.3488 -0.2194
19421TIP3    H179678   0.598   5.654   0.885 -0.5247 -0.3168 -0.6704
19421TIP3    H279679   0.657   5.524   0.835 -0.4457 -0.5177 -0.0581
19422TIP3   OH279680   0.030   4.181  13.795 -0.1787  0.2520  0.6057
19422TIP3    H179681  -0.066   4.186  13.795 -0.3280 -1.9349 -0.9592
19422TIP3    H279682   0.049   4.091  13.768  2.3127  1.4280 -1.7715
19423TIP3   OH279683   3.613   6.349   4.129 -0.0582 -0.3906  0.0673
19423TIP3    H179684   3.668   6.284   4.085  0.5367  1.4716 -1.9922
19423TIP3    H279685   3.568   6.394   4.058  0.2993  2.1253  1.3962
19424TIP3   OH279686   4.814   3.050   5.034  0.2031 -0.1922 -0.0278
19424TIP3    H179687   4.780   3.139   5.037  1.2661  0.2267 -0.0597
19424TIP3    H279688   4.739   2.994   5.054 -0.4267  0.7182  0.1640
19425TIP3   OH279689   3.726   1.189  14.039  0.1659  0.1160  0.4790
19425TIP3    H179690   3.687   1.214  13.956 -0.4385  0.2565  0.7991
19425TIP3    H279691   3.800   1.249  14.050  0.7857 -0.4992 -0.3809
19426TIP3   OH279692   0.944   5.425  13.658  0.2327 -0.2846 -0.2924
19426TIP3    H179693   0.942   5.518  13.678  2.9220 -0.5370  1.3999
19426TIP3    H279694   0.879   5.386  13.716  0.0064  0.3729 -0.1007
19427TIP3   OH279695   5.964   6.694  10.977 -0.5327  0.0318 -0.1780
19427TIP3    H179696   6.008   6.768  11.019 -0.7879  0.4793 -0.6970
19427TIP3    H279697   5.960   6.627  11.045 -1.0509  0.8004  0.5556
19428TIP3   OH279698   0.152   1.499   2.156 -0.2183  0.0100  0.0034
19428TIP3    H179699   0.120   1.429   2.213 -0.2911  0.2628  0.2764
19428TIP3    H279700   0.245   1.504   2.175  0.2009 -1.4738 -1.6003
19429TIP3   OH279701   0.593   2.063  13.694  0.2509 -0.2416  0.2494
19429TIP3    H179702   0.500   2.044  13.686  0.1394  1.1650 -2.4679
19429TIP3    H279703   0.611   2.056  13.787 -2.9848  1.2539  1.0644
19430TIP3   OH279704   0.639   2.659   4.043 -0.1094  0.1878  0.1605
19430TIP3    H179705   0.715   2.706   4.076 -0.3827  0.9315 -0.2657
19430TIP3    H279706   0.564   2.707   4.079 -0.4111  0.9353 -1.4132
19431TIP3   OH279707   0.430   0.525  15.336  0.8479 -0.1138 -0.0071
19431TIP3    H179708   0.413   0.533  15.242  0.8879 -0.8990 -0.0807
19431TIP3    H279709   0.393   0.440  15.360  1.8128 -0.3993  0.4670
19432TIP3   OH279710   6.463   5.691  12.042 -0.2252  0.5585 -0.0343
19432TIP3    H179711   6.498   5.713  11.955  3.4286 -0.1265  1.1630
19432TIP3    H279712   6.393   5.628  12.024  0.9899 -0.1866 -2.4909
19433TIP3   OH279713   0.454   0.557  15.628 -0.1054  0.3045  0.4402
19433TIP3    H179714   0.446   0.569  15.534 -1.0943 -0.6493  0.3897
19433TIP3    H279715   0.377   0.602  15.665  0.5736  1.1582  0.8410
19434TIP3   OH279716   1.409   1.423  14.814  0.4397 -0.2469 -0.1424
19434TIP3    H179717   1.498   1.421  14.850  0.5025  0.5000 -0.2492
19434TIP3    H279718   1.374   1.509  14.839  0.2415  0.0151 -1.2572
19435TIP3   OH279719   4.606   2.504   1.898  0.1533 -0.0027  0.6092
19435TIP3    H179720   4.514   2.528   1.905 -0.4415 -1.2135 -2.3585
19435TIP3    H279721   4.616   2.428   1.956 -0.6687  0.2130  1.0327
19436TIP3   OH279722   4.146   4.711   3.086 -0.6824  0.1018 -0.3129
19436TIP3    H179723   4.129   4.805   3.093  0.1248  0.2643 -0.5104
19436TIP3    H279724   4.195   4.701   3.004  1.3253 -0.1947  0.8933
19437TIP3   OH279725   4.729   1.476  11.408  0.2316 -0.7675 -0.7589
19437TIP3    H179726   4.704   1.515  11.324 -0.2874 -0.3463 -0.4142
19437TIP3    H279727   4.796   1.535  11.442  0.2716 -0.8068 -0.7717
19438TIP3   OH279728   2.509   3.399   4.311 -0.2566 -0.0166 -0.0319
19438TIP3    H179729   2.429   3.434   4.350 -1.4877 -1.4914 -1.1433
19438TIP3    H279730   2.489   3.393   4.218  1.5720  0.6454 -0.4884
19439TIP3   OH279731   2.836   3.252  16.939  0.3678  0.5358  0.1182
19439TIP3    H179732   2.760   3.198  16.916 -0.8120  1.7827  1.0306
19439TIP3    H279733   2.844   3.242  17.034  0.7995  1.1227  0.1465
19440TIP3   OH279734   1.915   5.704   5.136  0.3216 -0.1783 -0.1944
19440TIP3    H179735   1.899   5.795   5.112  0.8953 -0.0678 -0.1515
19440TIP3    H279736   1.986   5.675   5.079 -0.2835 -0.7961 -0.6522
19441TIP3   OH279737   1.680   3.608  17.077  0.2561 -0.3385  0.0578
19441TIP3    H179738   1.744   3.658  17.127 -1.3126  0.9087  0.8724
19441TIP3    H279739   1.595   3.646  17.101 -0.5568  0.4020 -3.5972
19442TIP3   OH279740   0.553   4.740   1.686  0.1599 -0.4171  0.2291
19442TIP3    H179741   0.588   4.686   1.615 -0.5233  0.4979 -0.8199
19442TIP3    H279742   0.459   4.723   1.684  0.2864 -1.4214  1.8129
19443TIP3   OH279743   1.234   0.959   2.769  0.3892 -0.5095 -1.4887
19443TIP3    H179744   1.297   1.030   2.779 -0.2152  0.0396 -1.5581
19443TIP3    H279745   1.287   0.884   2.740  0.8653  0.1876 -2.4398
19444TIP3   OH279746   0.934   0.386   1.561  0.2778  0.2210  0.3150
19444TIP3    H179747   0.972   0.304   1.529  0.8274  0.1399  1.1616
19444TIP3    H279748   1.006   0.430   1.606 -0.2534  0.7438  0.6617
19445TIP3   OH279749   1.088   0.424   3.351  0.2500 -0.0283  0.3682
19445TIP3    H179750   1.019   0.482   3.383  0.5994  2.4369 -3.0439
19445TIP3    H279751   1.160   0.437   3.412 -0.2601  1.9392  0.5973
19446TIP3   OH279752   1.820   4.064  16.048  0.7316 -0.1713 -0.3081
19446TIP3    H179753   1.866   4.074  15.965  2.1836 -1.0525  0.3769
19446TIP3    H279754   1.766   4.143  16.055  0.9235  0.1179 -1.8697
19447TIP3   OH279755   3.456   1.686   4.639 -0.6503 -0.2060 -0.5590
19447TIP3    H179756   3.514   1.630   4.689 -0.9654  0.8311  1.0123
19447TIP3    H279757   3.422   1.749   4.703 -3.1647 -0.5257 -1.5122
19448TIP3   OH279758   6.707   0.216   5.331 -0.3201  0.1677  0.3074
19448TIP3    H179759   6.782   0.236   5.276 -0.1454  0.7115  0.7371
19448TIP3    H279760   6.739   0.230   5.421 -0.4453 -1.1886  0.5770
19449TIP3   OH279761   1.905   5.787  15.069 -0.3928  0.0633 -0.3500
19449TIP3    H179762   1.816   5.823  15.062  0.5092  2.6159  0.6596
19449TIP3    H279763   1.962   5.863  15.062  1.7401 -1.5512 -0.9854
19450TIP3   OH279764   5.181   5.747   0.410  0.8819  0.2329 -0.0240
19450TIP3    H179765   5.088   5.735   0.392  1.0276  1.3119 -1.5475
19450TIP3    H279766   5.221   5.664   0.386  0.2058 -0.5949  1.5833
19451TIP3   OH279767   5.506   1.850   4.196 -0.3585  0.1888 -0.3501
19451TIP3    H179768   5.503   1.915   4.125  0.8716 -1.6747 -2.1652
19451TIP3    H279769   5.522   1.767   4.151 -0.4861 -1.1659  2.0626
19452TIP3   OH279770   3.765   6.063   5.699 -0.1149 -0.0689 -0.4375
19452TIP3    H179771   3.766   5.983   5.751 -0.7175  0.4844  0.4327
19452TIP3    H279772   3.757   6.134   5.763 -0.0310  0.6686 -1.2279
19453TIP3   OH279773   6.498   4.617   2.476  0.5499  0.4789  0.2793
19453TIP3    H179774   6.553   4.590   2.549 -0.0541  0.4165  0.7148
19453TIP3    H279775   6.557   4.666   2.419  1.1193  0.1809  0.6079
19454TIP3   OH279776   4.457   5.608   4.817  0.2544 -0.0886  0.0501
19454TIP3    H179777   4.441   5.636   4.727 -0.2786 -1.9114 -0.4401
19454TIP3    H279778   4.512   5.531   4.809 -1.1246 -1.2304  1.1995
19455TIP3   OH279779   0.038   0.496  13.184 -0.8584 -0.2178  0.0005
19455TIP3    H179780   0.007   0.462  13.101 -0.2378  0.5773 -0.5742
19455TIP3    H279781   0.096   0.568  13.160  0.0974 -0.6013  1.0866
19456TIP3   OH279782   4.907   6.217   0.507  0.1953 -0.4020 -0.4151
19456TIP3    H179783   4.963   6.249   0.437  1.1780  1.5804  1.1969
19456TIP3    H279784   4.824   6.262   0.494  0.6580  0.6519  0.1586
19457TIP3   OH279785   0.067   1.170  14.306  0.2978 -0.4663 -0.1389
19457TIP3    H179786   0.016   1.150  14.385  1.2520 -2.3322  0.0251
19457TIP3    H279787   0.158   1.168  14.335  0.7713 -3.0466 -1.6575
19458TIP3   OH279788   1.231   6.381  15.223  0.1070 -0.4677 -0.2978
19458TIP3    H179789   1.241   6.402  15.316  0.4607  2.8980 -1.0254
19458TIP3    H279790   1.321   6.369  15.192 -0.0134 -1.6288 -0.2209
19459TIP3   OH279791   3.131   1.308   3.042 -0.4103 -0.3241 -0.0761
19459TIP3    H179792   3.114   1.388   3.091  0.4661 -1.0515  1.4526
19459TIP3    H279793   3.173   1.337   2.962  0.1205  0.7385  0.5746
19460TIP3   OH279794   1.539   4.922  15.476  0.1791 -0.4874  0.4331
19460TIP3    H179795   1.615   4.980  15.477  1.7448 -2.4597 -0.0912
19460TIP3    H279796   1.546   4.871  15.556  0.2408 -1.6842 -0.3116
19461TIP3   OH279797   6.110   2.368  14.903 -0.0065  0.4190 -0.0332
19461TIP3    H179798   6.048   2.439  14.889  0.0237  0.3650 -0.4452
19461TIP3    H279799   6.068   2.310  14.966 -1.6264 -1.1461 -2.4711
19462TIP3   OH279800   0.921   4.152   0.966  0.9512  0.2786  0.3571
19462TIP3    H179801   0.980   4.119   1.034 -0.8101  1.6034  2.5786
19462TIP3    H279802   0.934   4.247   0.968 -0.4309  0.4779  0.0887
19463TIP3   OH279803   2.005   0.951   4.924 -0.5985 -0.2467  0.2300
19463TIP3    H179804   1.995   0.986   4.836  0.8689 -1.2505 -0.3462
19463TIP3    H279805   2.097   0.967   4.946 -0.7908 -0.5871  1.3210
19464TIP3   OH279806   3.948   5.285  11.192 -0.6301  0.4799 -0.2055
19464TIP3    H179807   4.030   5.259  11.151 -0.5789 -0.4532  0.4653
19464TIP3    H279808   3.894   5.206  11.189  0.1042 -0.2626  3.3186
19465TIP3   OH279809   3.142   0.971   0.541  0.6761 -0.3631 -0.4126
19465TIP3    H179810   3.178   1.041   0.487  0.2762  0.8369  0.8445
19465TIP3    H279811   3.066   0.940   0.493 -0.4270  1.5612  0.0452
19466TIP3   OH279812   2.089   3.702   6.511  0.3457 -0.5281 -0.1876
19466TIP3    H179813   2.172   3.725   6.470 -0.0212 -0.5212 -0.9244
19466TIP3    H279814   2.113   3.645   6.584  1.2484  1.7562  1.3587
19467TIP3   OH279815   1.979   3.379  11.913  0.4385 -0.4314  0.5610
19467TIP3    H179816   2.070   3.407  11.924  0.5364 -0.9677  1.1116
19467TIP3    H279817   1.953   3.415  11.828  0.7524  0.8226  0.9813
19468TIP3   OH279818   2.117   3.338  15.713 -0.1096  0.0982  0.7238
19468TIP3    H179819   2.037   3.323  15.763 -1.0661  1.8048 -0.2514
19468TIP3    H279820   2.103   3.292  15.630 -0.6123  1.4429  0.0565
19469TIP3   OH279821   1.587   5.577   2.881 -0.7950  0.5355 -0.2730
19469TIP3    H179822   1.518   5.625   2.834  1.1058  1.8033 -1.8360
19469TIP3    H279823   1.618   5.513   2.817  0.6137  1.0973 -0.1556
19470TIP3   OH279824   1.012   4.553   2.652 -0.6474 -0.2093  0.1007
19470TIP3    H179825   0.943   4.516   2.707  1.2772 -0.2086  2.5624
19470TIP3    H279826   1.082   4.489   2.654  0.7225  1.2682  0.2728
19471TIP3   OH279827   1.474   2.730   4.224 -0.0526  0.1433  0.2611
19471TIP3    H179828   1.409   2.790   4.260 -1.7250  0.5513 -3.1936
19471TIP3    H279829   1.525   2.784   4.163 -0.0775 -1.3765 -1.1520
19472TIP3   OH279830   1.943   0.339   1.669  0.2662  0.2417  0.1519
19472TIP3    H179831   1.942   0.276   1.597 -1.1783  0.5217 -0.0934
19472TIP3    H279832   1.890   0.298   1.737 -0.4455  1.0497  0.0974
19473TIP3   OH279833   6.775   1.043   3.220 -0.4341 -0.1557 -0.0995
19473TIP3    H179834   6.780   1.137   3.235  0.9547 -0.1357 -0.6149
19473TIP3    H279835   6.742   1.034   3.130 -2.7232 -0.2034  0.7171
19474TIP3   OH279836   3.744   1.808  12.630  0.1933  0.0782  0.4995
19474TIP3    H179837   3.716   1.747  12.698 -2.9860  0.4045 -0.4362
19474TIP3    H279838   3.715   1.894  12.660  1.7412  0.6988  0.2716
19475TIP3   OH279839   2.314   0.953   3.393 -0.2245  0.2617 -0.4854
19475TIP3    H179840   2.230   0.999   3.387 -0.0550  0.5335 -0.7884
19475TIP3    H279841   2.308   0.902   3.474 -1.7077 -1.7451 -1.8351
19476TIP3   OH279842   2.446   2.070  13.107 -0.0731  0.1416  0.0386
19476TIP3    H179843   2.384   2.127  13.152 -0.3973 -0.0635 -0.1448
19476TIP3    H279844   2.399   1.986  13.098 -0.1945  0.3239 -1.1070
19477TIP3   OH279845   5.294   0.398   4.450  0.5226 -0.2547  0.5419
19477TIP3    H179846   5.251   0.391   4.535  0.5583  0.0893  0.5900
19477TIP3    H279847   5.369   0.339   4.455 -1.2329 -2.6265 -0.3542
19478TIP3   OH279848   5.371   1.997  10.798  0.5057  0.5082 -0.2036
19478TIP3    H179849   5.461   1.969  10.788 -0.2833 -2.2290  0.0064
19478TIP3    H279850   5.349   1.979  10.890 -0.2135  1.2602 -0.2159
19479TIP3   OH279851   2.914   3.171   4.063 -0.6073  0.0490 -0.4757
19479TIP3    H179852   2.832   3.129   4.089 -0.6610  0.1476 -0.4882
19479TIP3    H279853   2.897   3.265   4.070 -0.6268  0.0747 -0.8790
19480TIP3   OH279854   2.087   6.368   2.658  0.1397  0.4475 -0.1460
19480TIP3    H179855   2.039   6.286   2.648 -0.6545  0.7275  1.2866
19480TIP3    H279856   2.151   6.367   2.587  0.6069 -1.7371  0.2866
19481TIP3   OH279857   6.156   3.781   5.243  0.6699 -0.4203  0.2772
19481TIP3    H179858   6.237   3.746   5.207 -0.3782 -1.9978 -0.6181
19481TIP3    H279859   6.088   3.747   5.185 -0.5299  1.9247  0.2529
19482TIP3   OH279860   3.733   6.705   4.415  0.0794  0.1221  0.1808
19482TIP3    H179861   3.654   6.724   4.466 -0.7594  0.4501 -1.2222
19482TIP3    H279862   3.743   6.780   4.357  1.3413 -0.0038  0.2202
19483TIP3   OH279863   4.218   5.320   4.877  0.1705 -0.0239 -0.1948
19483TIP3    H179864   4.204   5.415   4.876 -1.1465 -0.2074  0.1928
19483TIP3    H279865   4.198   5.291   4.788  2.0797  0.2634 -0.7333
19484TIP3   OH279866   6.268   3.313   4.905 -0.9141 -0.3796  0.0337
19484TIP3    H179867   6.283   3.340   4.995  1.7913 -0.2279 -0.3990
19484TIP3    H279868   6.283   3.218   4.905  1.2974 -0.0562 -0.6377
19485TIP3   OH279869   0.471   1.657   4.360 -0.8938 -0.2575 -0.1617
19485TIP3    H179870   0.386   1.699   4.350 -1.2986 -0.5856  1.7880
19485TIP3    H279871   0.533   1.729   4.364 -0.9508 -0.0299 -2.3522
19486TIP3   OH279872   1.905   4.418  11.362  0.2868 -0.3615 -0.0667
19486TIP3    H179873   1.906   4.499  11.311 -0.8970 -0.0872  0.3546
19486TIP3    H279874   1.907   4.348  11.296  3.7226 -0.0410 -0.4150
19487TIP3   OH279875   1.070   1.112  11.011 -0.2116  0.4558  0.1628
19487TIP3    H179876   0.987   1.136  10.968  0.6062  0.9437 -1.1566
19487TIP3    H279877   1.055   1.023  11.043 -0.4150 -0.4221 -2.2322
19488TIP3   OH279878   1.281   2.005   4.830 -0.5066  0.0391 -0.5824
19488TIP3    H179879   1.371   2.037   4.830 -0.9239  1.2535 -1.0267
19488TIP3    H279880   1.238   2.053   4.901 -1.4861  1.5113 -2.1172
19489TIP3   OH279881   2.344   4.839   1.723 -0.2143  0.0255  0.1042
19489TIP3    H179882   2.367   4.790   1.802 -0.8210  0.4386  0.5435
19489TIP3    H279883   2.422   4.892   1.705 -0.3720  0.5565  0.9170
19490TIP3   OH279884   1.019   6.310  16.052 -0.1919  0.2300  0.1546
19490TIP3    H179885   0.973   6.360  15.984 -1.6270 -1.0104  0.1847
19490TIP3    H279886   0.949   6.267  16.102  1.0167 -1.8853  0.0884
19491TIP3   OH279887   3.993   4.035   5.532  0.0002  0.2992 -0.0808
19491TIP3    H179888   4.080   4.033   5.572 -0.8535 -3.0259  1.7308
19491TIP3    H279889   4.005   3.996   5.446  0.6240  1.6715 -0.6417
19492TIP3   OH279890   1.013   3.398   0.307 -0.3602 -0.0393  0.1137
19492TIP3    H179891   0.966   3.314   0.301 -0.2190 -0.5134  4.3519
19492TIP3    H279892   0.953   3.461   0.268 -1.7176 -1.6601 -0.5137
19493TIP3   OH279893   3.503   2.199   3.992  0.6746 -0.6919 -0.4287
19493TIP3    H179894   3.505   2.273   3.932  0.7430 -0.7083 -0.4473
19493TIP3    H279895   3.447   2.227   4.064 -0.1182 -1.0016 -0.9188
19494TIP3   OH279896   3.255   2.475   5.757  0.0044 -0.3121  0.5967
19494TIP3    H179897   3.336   2.472   5.707  0.5683 -2.6231  1.5938
19494TIP3    H279898   3.281   2.453   5.847 -1.3382  1.5653  1.4953
19495TIP3   OH279899   5.267   2.817  11.157 -0.3044  0.1537 -0.2413
19495TIP3    H179900   5.208   2.836  11.230 -0.1407  0.2975 -0.1458
19495TIP3    H279901   5.354   2.813  11.197 -0.5951 -3.3912  0.1948
19496TIP3   OH279902   5.187   6.457  16.759 -0.5877 -0.7497  0.0747
19496TIP3    H179903   5.172   6.547  16.729 -0.4984 -0.8220 -0.1958
19496TIP3    H279904   5.281   6.444  16.747 -0.2005 -0.1358  2.1915
19497TIP3   OH279905   6.215   1.430   3.832  0.2941 -0.1760 -0.0724
19497TIP3    H179906   6.226   1.430   3.737  0.7716 -0.9596 -0.0273
19497TIP3    H279907   6.213   1.522   3.856  1.1154  0.0315 -0.7421
19498TIP3   OH279908   3.259   6.007  12.518  0.5403  0.5094  0.4661
19498TIP3    H179909   3.178   5.963  12.493  0.5722 -0.1456  1.4729
19498TIP3    H279910   3.254   6.014  12.614  0.8122  2.1722  0.3760
19499TIP3   OH279911   5.441   1.225   5.212 -0.1970 -0.1063  0.3788
19499TIP3    H179912   5.490   1.278   5.275 -0.6837  1.3626 -0.4480
19499TIP3    H279913   5.451   1.272   5.129 -0.1082 -1.6680 -0.5145
19500TIP3   OH279914   3.720   3.436   3.744  0.1672  0.5028  0.1027
19500TIP3    H179915   3.707   3.371   3.676 -1.1643  0.6953  0.1693
19500TIP3    H279916   3.792   3.401   3.797  0.4857 -0.1634 -0.7508
19501TIP3   OH279917   3.584   3.930   0.490  0.2302  0.2811  0.6448
19501TIP3    H179918   3.522   3.866   0.525 -1.4702  1.8539  0.5641
19501TIP3    H279919   3.563   4.011   0.536 -1.2605  2.1010 -3.0896
19502TIP3   OH279920   2.390   2.610   5.158  0.0893 -0.2667  0.8307
19502TIP3    H179921   2.393   2.664   5.237  1.5979  1.7039 -0.5483
19502TIP3    H279922   2.297   2.610   5.133 -0.1715  0.3330  1.7651
19503TIP3   OH279923   4.757   4.610   4.137  0.2810  0.0115 -0.1193
19503TIP3    H179924   4.825   4.671   4.107 -0.4022  0.7365 -0.2028
19503TIP3    H279925   4.701   4.597   4.061  1.2163 -1.8325 -0.5218
19504TIP3   OH279926   3.274   2.249  11.355  0.2900 -0.0855  0.0998
19504TIP3    H179927   3.186   2.256  11.316 -0.7332 -1.5570  2.0596
19504TIP3    H279928   3.274   2.313  11.426  0.2224 -1.1842  1.1081
19505TIP3   OH279929   5.774   0.975  15.723 -0.4763  0.4351 -0.0837
19505TIP3    H179930   5.822   1.018  15.793 -0.4744  0.1025  0.1216
19505TIP3    H279931   5.716   0.913  15.767  1.0529 -1.3260 -0.4589
19506TIP3   OH279932   3.483   4.669  15.315  0.2319  0.7870  0.4789
19506TIP3    H179933   3.489   4.595  15.375  0.3387  1.6198  1.5143
19506TIP3    H279934   3.539   4.644  15.241 -1.2375 -0.9584 -0.0616
19507TIP3   OH279935   5.711   2.095  14.314 -0.0856 -0.2529 -0.1402
19507TIP3    H179936   5.725   2.084  14.408  2.5099 -0.8561 -0.5603
19507TIP3    H279937   5.652   2.171  14.307 -1.5341 -1.1257  1.9981
19508TIP3   OH279938   2.592   5.267   1.079 -0.0445  0.2369  0.0360
19508TIP3    H179939   2.554   5.209   1.013 -0.7894 -0.1629  0.8170
19508TIP3    H279940   2.538   5.345   1.076 -0.2693  0.0944  0.3942
19509TIP3   OH279941   4.864   5.506  13.794  0.2241 -0.6549 -0.3261
19509TIP3    H179942   4.922   5.582  13.802 -0.3603 -0.4478  2.3113
19509TIP3    H279943   4.878   5.475  13.704  1.0417  2.0848 -1.2043
19510TIP3   OH279944   1.338   1.541  13.530  0.6724 -0.4310  1.1334
19510TIP3    H179945   1.301   1.476  13.470  0.5954 -1.8368  2.6634
19510TIP3    H279946   1.393   1.597  13.475 -0.0595 -1.1721 -0.3723
19511TIP3   OH279947   4.223   5.060   1.728 -0.1333  0.2873 -0.0192
19511TIP3    H179948   4.241   4.974   1.765 -1.8223 -0.1641 -0.1920
19511TIP3    H279949   4.253   5.122   1.795  0.7989 -0.4344  0.2356
19512TIP3   OH279950   1.803   5.150  13.131 -0.0980  0.0321 -0.0324
19512TIP3    H179951   1.880   5.205  13.143  0.2250  0.1542 -2.4738
19512TIP3    H279952   1.761   5.185  13.052 -0.2878 -2.7340 -1.2130
19513TIP3   OH279953   1.983   5.141  16.377  0.1242 -0.1658 -0.4617
19513TIP3    H179954   1.989   5.169  16.286  0.4746 -1.1901 -0.7607
19513TIP3    H279955   2.057   5.082  16.389  0.0167 -0.1303  0.4615
19514TIP3   OH279956   4.720   0.656   0.581 -0.2413  0.2862 -0.1817
19514TIP3    H179957   4.763   0.598   0.644 -1.7549 -0.7668 -0.1030
19514TIP3    H279958   4.728   0.610   0.497 -1.3060  0.0328 -0.1466
19515TIP3   OH279959   4.868   0.744   2.251 -0.0360  0.3490 -0.5105
19515TIP3    H179960   4.794   0.762   2.192  2.4489 -0.1990 -3.9491
19515TIP3    H279961   4.872   0.649   2.257 -1.0208  0.4146  1.6158
19516TIP3   OH279962   6.374   0.573  11.679 -0.0430 -0.0684 -0.5256
19516TIP3    H179963   6.450   0.570  11.621 -0.8408 -0.4953 -1.5559
19516TIP3    H279964   6.304   0.609  11.625 -0.6757 -0.0336  0.3111
19517TIP3   OH279965   5.143   0.286  14.022  0.3866  0.0803 -0.1205
19517TIP3    H179966   5.140   0.316  14.113  1.0327  0.0376 -0.0837
19517TIP3    H279967   5.104   0.358  13.972  2.3790  1.2363 -0.0905
19518TIP3   OH279968   3.830   6.699  13.819 -0.2022 -0.1017 -0.0349
19518TIP3    H179969   3.850   6.790  13.795  0.8618 -0.4240 -0.4283
19518TIP3    H279970   3.774   6.667  13.749 -0.7296  0.3116  0.1992
19519TIP3   OH279971   3.768   0.938  16.540  0.2025 -0.0103 -0.0032
19519TIP3    H179972   3.686   0.986  16.526 -0.5230 -0.3035  2.9183
19519TIP3    H279973   3.742   0.846  16.540  0.9913 -0.2575 -1.7294
19520TIP3   OH279974   1.229   4.509   2.170 -0.3564  0.2990  0.2542
19520TIP3    H179975   1.192   4.481   2.254 -0.8330 -0.4649 -0.2033
19520TIP3    H279976   1.163   4.567   2.133 -1.0100 -0.8624 -0.4457
19521TIP3   OH279977   0.533   6.765   4.883  0.5183  0.0975 -0.2551
19521TIP3    H179978   0.489   6.837   4.927 -0.3731 -0.8829  0.4547
19521TIP3    H279979   0.506   6.686   4.930  3.5362 -0.4836  0.6321
19522TIP3   OH279980   4.521   6.097   4.702  0.5592 -0.3039  0.6344
19522TIP3    H179981   4.543   6.184   4.668 -0.1463 -0.1092  0.6782
19522TIP3    H279982   4.485   6.050   4.627  2.5438 -1.1461  0.1719
19523TIP3   OH279983   2.606   4.923   1.693  0.4399  0.1395  0.1950
19523TIP3    H179984   2.677   4.874   1.737  0.8299 -0.9355 -1.5792
19523TIP3    H279985   2.647   4.959   1.614 -0.9015 -0.2284 -0.6854
19524TIP3   OH279986   3.221   0.708   5.044  0.5450  0.0903 -0.0963
19524TIP3    H179987   3.312   0.708   5.014  0.1327  1.7989 -1.3927
19524TIP3    H279988   3.226   0.738   5.134  1.2079  0.8678 -0.3847
19525TIP3   OH279989   1.598   5.484  12.905  0.0853 -0.0938 -0.1774
19525TIP3    H179990   1.592   5.393  12.874  2.2129  0.1828 -1.5005
19525TIP3    H279991   1.539   5.488  12.980  0.6535 -2.8029  0.4476
19526TIP3   OH279992   1.086   4.849  10.305 -0.0169  0.4961 -0.3512
19526TIP3    H179993   1.119   4.769  10.263 -0.0275  0.8829 -1.1133
19526TIP3    H279994   0.996   4.828  10.329  0.2835 -0.0407  0.3167
19527TIP3   OH279995   2.848   1.582  16.595  0.0050  0.0599 -0.4435
19527TIP3    H179996   2.906   1.607  16.668 -0.8547 -1.2890  0.7132
19527TIP3    H279997   2.894   1.511  16.552  0.2960  0.5499 -0.9477
19528TIP3   OH279998   4.705   1.014  14.711 -0.4774  0.4248 -0.0647
19528TIP3    H179999   4.711   0.922  14.739 -1.2373  0.7710  1.2790
19528TIP3    H280000   4.787   1.053  14.742  0.8864 -0.3180 -2.6678
19529TIP3   OH280001   1.727   3.944  15.286 -0.4647 -0.2213  0.2687
19529TIP3    H180002   1.771   3.882  15.344  0.7208  0.3428 -0.0058
19529TIP3    H280003   1.642   3.904  15.268  0.5756 -2.1393 -0.5248
19530TIP3   OH280004   4.594   0.308  15.627  0.4687  0.0302  0.3705
19530TIP3    H180005   4.526   0.258  15.674 -0.1143  1.7449  1.3916
19530TIP3    H280006   4.546   0.356  15.560  0.8626  0.1665  0.1854
19531TIP3   OH280007   0.179   3.398  16.821  0.7112 -0.4764  0.3792
19531TIP3    H180008   0.225   3.481  16.836 -0.3677 -0.1134  1.7595
19531TIP3    H280009   0.198   3.346  16.899 -0.7370 -0.5320  0.7118
19532TIP3   OH280010   0.047   1.139   4.992  0.2520  0.3354  0.4460
19532TIP3    H180011   0.127   1.088   4.994 -0.6440 -1.2399 -2.1385
19532TIP3    H280012   0.007   1.125   5.078  1.0121 -1.6811  0.4759
19533TIP3   OH280013   0.444   4.295  12.449 -0.0594  0.0197 -0.0973
19533TIP3    H180014   0.396   4.331  12.374  2.0001 -0.2553 -1.5972
19533TIP3    H280015   0.440   4.364  12.516 -0.5141  0.9493 -1.0737
19534TIP3   OH280016   3.903   4.237  15.529 -0.5311  0.0751  0.2031
19534TIP3    H180017   3.970   4.170  15.545 -0.3709  0.4513  1.1231
19534TIP3    H280018   3.884   4.230  15.436  1.0299  0.1961 -0.1245
19535TIP3   OH280019   3.331   1.473   3.704  0.0156  0.3843  0.4787
19535TIP3    H180020   3.293   1.426   3.778  1.1749 -1.0603  0.1590
19535TIP3    H280021   3.288   1.559   3.706 -2.9818 -1.0639  0.3598
19536TIP3   OH280022   2.201   4.981  16.497 -0.2077 -0.5054 -0.1484
19536TIP3    H180023   2.266   4.911  16.492 -1.1492 -1.5157  1.4556
19536TIP3    H280024   2.253   5.061  16.490  1.1392 -1.3072  0.3445
19537TIP3   OH280025   5.460   4.370  16.903 -0.7414  0.3063 -0.2098
19537TIP3    H180026   5.421   4.283  16.898 -1.8024  0.8220 -0.9510
19537TIP3    H280027   5.524   4.363  16.974 -0.9678 -1.0132 -0.1230
19538TIP3   OH280028   6.285   5.614   1.066  0.5650  0.1029  0.3840
19538TIP3    H180029   6.344   5.580   0.999  0.9240  0.1296  0.6804
19538TIP3    H280030   6.237   5.685   1.023 -0.0772 -0.6816 -0.1903
19539TIP3   OH280031   0.443   3.972   5.380 -0.3114  0.1848 -0.4340
19539TIP3    H180032   0.366   3.984   5.323 -0.5877  0.0174 -0.0981
19539TIP3    H280033   0.483   4.059   5.383 -0.7098  0.3674 -0.2948
19540TIP3   OH280034   0.911   1.153  16.791 -0.2160  0.0278  0.1846
19540TIP3    H180035   0.982   1.141  16.728 -0.9063  0.6086 -0.7135
19540TIP3    H280036   0.944   1.116  16.873  0.6091 -0.8984 -0.5723
19541TIP3   OH280037   4.742   6.188   4.453 -0.0158  0.1334 -0.1048
19541TIP3    H180038   4.750   6.103   4.408 -1.0252  0.4102 -0.8406
19541TIP3    H280039   4.655   6.219   4.428 -0.9888 -0.1291  2.7849
19542TIP3   OH280040   4.644   1.930  15.057 -0.1895 -0.1942 -0.0652
19542TIP3    H180041   4.733   1.953  15.032 -0.5505  1.6996  0.3627
19542TIP3    H280042   4.638   1.953  15.150 -0.5499 -2.1090  0.4255
19543TIP3   OH280043   3.305   3.285  13.381 -0.5517  0.4253 -0.1625
19543TIP3    H180044   3.360   3.352  13.421 -1.0024  0.5666  0.2294
19543TIP3    H280045   3.286   3.319  13.293  0.9318 -0.1649 -0.7216
19544TIP3   OH280046   0.172   1.533  12.806 -1.0371  0.3393  0.7367
19544TIP3    H180047   0.251   1.573  12.841 -0.8136 -1.2248  2.0829
19544TIP3    H280048   0.196   1.441  12.792 -2.1222  0.2132 -0.3922
19545TIP3   OH280049   6.615   4.991  14.130  0.2314 -0.4169 -0.4073
19545TIP3    H180050   6.693   4.998  14.185 -0.8299 -0.2047  1.0931
19545TIP3    H280051   6.562   4.923  14.172 -1.8534  1.6805  0.4520
19546TIP3   OH280052   1.328   0.452   5.341 -0.2973  0.0322 -0.0141
19546TIP3    H180053   1.343   0.439   5.435 -1.5268  0.1219  0.1969
19546TIP3    H280054   1.313   0.546   5.332 -0.3584 -0.0029 -0.2763
19547TIP3   OH280055   3.859   3.457  16.967 -0.1448  0.5180  0.1542
19547TIP3    H180056   3.806   3.380  16.984  0.6811 -0.3141 -0.9575
19547TIP3    H280057   3.860   3.465  16.872  0.8840  1.1181  0.2068
19548TIP3   OH280058   4.024   4.631  11.644 -0.0614  0.2554  0.2923
19548TIP3    H180059   3.963   4.675  11.584  0.1963  0.8450  0.4560
19548TIP3    H280060   3.988   4.543  11.654 -0.6086  0.4373 -0.0129
19549TIP3   OH280061   2.893   3.053   0.049 -0.1160  0.0946  0.2117
19549TIP3    H180062   2.856   3.129   0.004 -1.8118 -0.2445  0.9996
19549TIP3    H280063   2.980   3.044   0.012 -0.1941  1.9348 -0.4781
19550TIP3   OH280064   4.805   2.098   6.481 -0.1605  0.0653 -0.0029
19550TIP3    H180065   4.759   2.180   6.464 -0.7580 -0.2266  0.1953
19550TIP3    H280066   4.738   2.041   6.519  0.5049 -0.1652  0.8411
19551TIP3   OH280067   3.802   3.654   0.424  0.5774  0.1623 -0.7309
19551TIP3    H180068   3.824   3.746   0.434  0.5114 -0.0837  1.7778
19551TIP3    H280069   3.884   3.607   0.443  0.2323 -0.3651 -0.5395
19552TIP3   OH280070   0.104   6.718   5.427  0.5052  0.3620  0.3678
19552TIP3    H180071   0.109   6.738   5.520  1.3327 -0.5435  0.5351
19552TIP3    H280072   0.093   6.623   5.424 -0.7782  0.5242 -0.4388
19553TIP3   OH280073   3.820   6.058   2.505 -0.2515 -0.5247  0.4201
19553TIP3    H180074   3.754   5.993   2.478 -0.8656 -0.2211  1.1637
19553TIP3    H280075   3.793   6.138   2.460 -1.8142  0.2230  2.5810
19554TIP3   OH280076   1.858   3.283   6.263  0.3399  0.0396  0.6053
19554TIP3    H180077   1.891   3.373   6.262  0.0082  0.1621 -0.7171
19554TIP3    H280078   1.893   3.245   6.343  2.2738  0.6959  0.0963
19555TIP3   OH280079   0.630   3.251  11.192  0.3177 -0.3572  0.2316
19555TIP3    H180080   0.637   3.264  11.286  2.6112  0.5427 -0.0323
19555TIP3    H280081   0.699   3.188  11.170 -0.7386 -1.2126 -0.7401
19556TIP3   OH280082   3.035   3.253  15.593 -0.0223  0.4672  0.4249
19556TIP3    H180083   3.110   3.302  15.627  0.3051  0.2981 -0.0546
19556TIP3    H280084   3.014   3.190  15.662  1.7626 -1.0871 -0.4155
19557TIP3   OH280085   4.394   4.132  14.243  0.2632 -0.3460  0.1704
19557TIP3    H180086   4.458   4.204  14.246  0.1658 -0.2367 -0.4679
19557TIP3    H280087   4.433   4.067  14.185  0.8625 -1.3067  1.5998
19558TIP3   OH280088   0.851   5.248  16.968 -0.5462 -0.0282  0.3570
19558TIP3    H180089   0.849   5.277  17.059  0.4105 -1.0616  0.7176
19558TIP3    H280090   0.854   5.153  16.973 -2.8919 -0.2082 -0.8028
19559TIP3   OH280091   1.812   5.873   1.348  0.2593 -0.1802  0.0204
19559TIP3    H180092   1.743   5.935   1.323  0.3120  0.0580  0.4705
19559TIP3    H280093   1.775   5.787   1.327 -0.4899 -0.1046  1.0063
19560TIP3   OH280094   6.486   5.424  11.385  0.2408  0.3444 -0.0989
19560TIP3    H180095   6.506   5.366  11.311  0.9516  1.1270 -0.5396
19560TIP3    H280096   6.453   5.366  11.453 -0.0155 -0.4448 -0.8833
19561TIP3   OH280097   1.798   2.083  15.078 -0.3158  0.0824 -0.1190
19561TIP3    H180098   1.790   2.137  14.999 -0.8752 -1.6642 -1.2881
19561TIP3    H280099   1.711   2.086  15.117  0.0420  1.2006  0.6304
19562TIP3   OH280100   3.697   4.718  14.056 -0.2158 -0.2592 -0.1863
19562TIP3    H180101   3.775   4.735  14.003 -0.7911  0.9031 -0.6820
19562TIP3    H280102   3.689   4.622  14.057  1.1154 -0.3832 -0.2647
19563TIP3   OH280103   4.842   4.443  12.916 -0.3772 -0.1935 -0.4898
19563TIP3    H180104   4.936   4.423  12.918 -0.3168  0.0183 -1.0270
19563TIP3    H280105   4.801   4.364  12.881 -0.4421 -0.4304  0.1108
19564TIP3   OH280106   3.069   4.580   5.407  0.0610 -0.0177  0.0799
19564TIP3    H180107   3.007   4.534   5.463  0.7248 -1.8661 -0.6590
19564TIP3    H280108   3.051   4.547   5.319  0.3467  1.3955 -0.5328
19565TIP3   OH280109   1.010   3.949   1.921  0.6754 -0.3682  0.0027
19565TIP3    H180110   0.920   3.921   1.934  1.0800 -1.5179  0.3979
19565TIP3    H280111   1.021   4.023   1.982 -0.6301  1.2248 -1.6253
19566TIP3   OH280112   3.695   5.833  14.411  0.1561  0.2613 -0.2312
19566TIP3    H180113   3.709   5.747  14.372  1.6494  0.3242  0.1401
19566TIP3    H280114   3.600   5.839  14.422 -0.1808 -0.3495 -2.4699
19567TIP3   OH280115   1.183   4.413  14.806  0.0884  0.3218 -0.1005
19567TIP3    H180116   1.184   4.423  14.711  1.0771  0.2402 -0.1057
19567TIP3    H280117   1.149   4.325  14.821 -0.0285  0.3188 -0.3727
19568TIP3   OH280118   4.523   5.900  16.569 -0.3467  0.1589  0.4153
19568TIP3    H180119   4.578   5.936  16.638 -1.5265 -0.0659  1.4925
19568TIP3    H280120   4.483   5.976  16.527  0.2037  0.2856  0.1230
19569TIP3   OH280121   5.012   4.894  16.863 -0.1241 -0.5045 -0.2044
19569TIP3    H180122   5.059   4.902  16.780 -0.0339 -0.4546 -0.1474
19569TIP3    H280123   4.986   4.801  16.866 -0.6953 -0.3614 -0.6001
19570TIP3   OH280124   1.633   6.648   1.448  0.6993 -0.5541 -0.5140
19570TIP3    H180125   1.659   6.582   1.512 -1.8160  0.1810  1.3086
19570TIP3    H280126   1.590   6.598   1.378 -0.0096 -0.9856  0.2250
19571TIP3   OH280127   1.146   5.435  14.284 -0.3788  0.4518  0.6153
19571TIP3    H180128   1.092   5.411  14.210  0.6805  0.0745 -0.0459
19571TIP3    H280129   1.106   5.391  14.359  0.1349 -1.4167 -0.1764
19572TIP3   OH280130   2.528   6.557   2.907 -0.2662 -0.3038 -0.4086
19572TIP3    H180131   2.454   6.503   2.880  0.2800 -1.5196  0.4884
19572TIP3    H280132   2.490   6.622   2.967 -0.9267  0.3440 -1.5180
19573TIP3   OH280133   5.260   5.468  12.714 -0.0331 -0.3771 -0.0044
19573TIP3    H180134   5.199   5.404  12.678 -0.1959 -1.8108  2.7239
19573TIP3    H280135   5.345   5.423  12.713 -0.0841 -0.5482  1.5778
19574TIP3   OH280136   1.114   4.571   0.456  0.1281  0.7732 -0.0951
19574TIP3    H180137   1.089   4.525   0.536  0.8947  0.7019  0.1059
19574TIP3    H280138   1.141   4.658   0.486 -1.5369  1.4559 -0.4920
19575TIP3   OH280139   6.651   2.707  11.891  0.3497 -0.5705 -0.4994
19575TIP3    H180140   6.654   2.785  11.836 -0.2111 -0.5926 -0.5550
19575TIP3    H280141   6.648   2.634  11.829  1.3369 -0.6655 -0.4575
19576TIP3   OH280142   3.110   5.924   0.570  0.2750  0.4485  0.4054
19576TIP3    H180143   3.103   5.890   0.659  0.9677  0.8663  0.6264
19576TIP3    H280144   3.197   5.897   0.541 -1.2568 -2.7527 -1.4691
19577TIP3   OH280145   5.236   0.222  12.634  0.0710 -0.3144 -0.3645
19577TIP3    H180146   5.237   0.142  12.686  0.6390  1.2983  2.1939
19577TIP3    H280147   5.143   0.238  12.618 -0.0728 -1.1991 -0.4455
19578TIP3   OH280148   4.515   3.115  15.923  0.2360  0.7419  0.2473
19578TIP3    H180149   4.495   3.199  15.963  1.4440  0.2423  1.9134
19578TIP3    H280150   4.610   3.112  15.918  0.2336 -0.8421  0.8944
19579TIP3   OH280151   4.516   1.214   4.123 -0.0721  0.4083 -0.0107
19579TIP3    H180152   4.584   1.244   4.064 -0.8588 -0.9857 -1.6589
19579TIP3    H280153   4.546   1.128   4.153 -0.3185  0.5173  0.5533
19580TIP3   OH280154   0.593   3.874   1.517  0.3526 -0.0204 -0.1255
19580TIP3    H180155   0.524   3.813   1.490  2.2451 -1.6350 -1.3940
19580TIP3    H280156   0.574   3.954   1.469 -0.2306 -0.6729 -0.9964
19581TIP3   OH280157   2.081   0.615  13.254 -0.1773 -0.2501 -0.0359
19581TIP3    H180158   2.044   0.533  13.287 -0.2994 -1.4221 -2.9405
19581TIP3    H280159   2.005   0.669  13.233 -0.1715 -0.6087 -1.0149
19582TIP3   OH280160   5.404   3.136   2.049 -0.4233  0.7656  0.5479
19582TIP3    H180161   5.356   3.070   1.999 -0.2634  0.6869  0.4972
19582TIP3    H280162   5.401   3.105   2.140 -0.4349  0.7409  0.5390
19583TIP3   OH280163   4.352   2.586   5.030  0.1268  0.0025 -0.1323
19583TIP3    H180164   4.361   2.589   5.126  2.2751 -0.7939 -0.2713
19583TIP3    H280165   4.338   2.676   5.004 -0.9906  0.1612  0.9848
19584TIP3   OH280166   0.712   3.284  15.592 -0.3121  0.0608  0.1619
19584TIP3    H180167   0.752   3.206  15.631 -1.0320 -0.2229  0.3412
19584TIP3    H280168   0.786   3.341  15.571  0.3912 -1.4495 -1.6683
19585TIP3   OH280169   1.441   3.833   1.192  0.1248  0.0299 -0.2272
19585TIP3    H180170   1.465   3.773   1.121 -1.3487  0.5690 -1.2083
19585TIP3    H280171   1.480   3.917   1.167  1.0186 -0.1705  0.4573
19586TIP3   OH280172   4.832   3.506   3.261  0.2623  0.0647  0.0475
19586TIP3    H180173   4.868   3.417   3.252  0.9450  0.1976  1.3933
19586TIP3    H280174   4.842   3.544   3.174 -1.4988 -1.7212 -0.9704
19587TIP3   OH280175   0.406   3.502  10.967  0.8299  0.1527 -0.1505
19587TIP3    H180176   0.329   3.448  10.984  0.1710  0.0437 -3.2185
19587TIP3    H280177   0.473   3.441  10.936  1.4085  0.5557  0.2781
19588TIP3   OH280178   3.707   4.802  14.608  0.6835  0.0465  0.2012
19588TIP3    H180179   3.719   4.894  14.585 -0.7642  1.1981  3.7447
19588TIP3    H280180   3.620   4.780  14.573  0.8155  0.1759 -0.2084
19589TIP3   OH280181   2.712   3.888   2.361  0.2700 -0.4858 -0.3416
19589TIP3    H180182   2.705   3.943   2.439  1.2885 -1.7009  0.6341
19589TIP3    H280183   2.753   3.944   2.295  1.2696 -0.0534  0.6235
19590TIP3   OH280184   2.614   4.997  16.086  1.2745 -0.4943 -0.0234
19590TIP3    H180185   2.630   5.059  16.158  0.5616 -0.6101  0.2398
19590TIP3    H280186   2.595   5.053  16.011  0.9805 -0.3948  0.1278
19591TIP3   OH280187   3.418   6.444   4.539  0.2153 -0.3303 -0.3503
19591TIP3    H180188   3.441   6.432   4.631 -1.8905  1.7393  0.4944
19591TIP3    H280189   3.456   6.528   4.514 -1.1627  0.2248 -0.6671
19592TIP3   OH280190   6.237   1.723   4.538  0.1481  0.0988 -0.5216
19592TIP3    H180191   6.166   1.774   4.577  0.0846  0.7532 -1.4929
19592TIP3    H280192   6.302   1.716   4.608 -0.5296  0.1540  0.1182
19593TIP3   OH280193   5.956   4.785  15.588  0.1285 -0.0200 -0.4656
19593TIP3    H180194   5.957   4.689  15.599 -0.5559  0.0309  0.0550
19593TIP3    H280195   5.961   4.798  15.493  2.1147 -0.5425 -0.4617
19594TIP3   OH280196   1.415   0.176   3.511 -0.0418 -0.5300 -0.2467
19594TIP3    H180197   1.439   0.160   3.602 -0.7137 -0.4440 -0.0476
19594TIP3    H280198   1.453   0.261   3.490 -2.0597  0.6525  0.7629
19595TIP3   OH280199   3.636   6.374  15.600 -0.0818 -0.0412 -0.1261
19595TIP3    H180200   3.621   6.469  15.602 -1.4943 -0.2699  2.1524
19595TIP3    H280201   3.553   6.338  15.568  0.6761 -0.4744 -1.6054
19596TIP3   OH280202   3.562   1.178  12.369  0.3275  0.2677 -0.3912
19596TIP3    H180203   3.647   1.172  12.412  1.1660  1.1418 -1.8654
19596TIP3    H280204   3.498   1.153  12.436  1.8096 -1.3898  0.4347
19597TIP3   OH280205   0.550   2.340  16.394 -0.7245  0.5839  0.5469
19597TIP3    H180206   0.577   2.327  16.303 -0.1500  0.5354  0.7220
19597TIP3    H280207   0.568   2.255  16.436 -2.0354  0.2512  0.4475
19598TIP3   OH280208   1.268   4.162   5.690 -0.6585  0.1087 -0.6301
19598TIP3    H180209   1.185   4.209   5.680 -0.2491  0.6435 -1.5860
19598TIP3    H280210   1.301   4.152   5.600 -0.2013 -1.0216 -0.3443
19599TIP3   OH280211   0.067   3.077   4.453 -0.4078 -0.1901  0.3609
19599TIP3    H180212   0.032   3.158   4.491 -0.8027 -0.0018 -0.4000
19599TIP3    H280213  -0.000   3.048   4.391 -0.8610 -1.8138  1.5727
19600TIP3   OH280214   2.306   0.722  16.455  0.4540 -0.3126 -0.0038
19600TIP3    H180215   2.393   0.696  16.484  0.5238 -1.0797 -0.8696
19600TIP3    H280216   2.290   0.670  16.377 -1.0840 -0.7368  0.5629
19601TIP3   OH280217   6.649   5.880   2.970 -0.3649  0.2335  0.4193
19601TIP3    H180218   6.578   5.938   2.999 -2.8193 -2.2659 -0.3895
19601TIP3    H280219   6.665   5.905   2.879  0.0372  1.0088  0.6962
19602TIP3   OH280220   3.547   1.867  16.167 -0.0054  0.4578  0.5973
19602TIP3    H180221   3.635   1.904  16.169  0.0826  0.3363 -0.6023
19602TIP3    H280222   3.559   1.780  16.130 -0.8257  1.0117 -1.0003
19603TIP3   OH280223   0.316   4.015  16.042 -0.0092 -0.0411  0.0831
19603TIP3    H180224   0.344   4.028  16.133  0.1367  0.6119 -0.0502
19603TIP3    H280225   0.252   4.085  16.026 -0.1527 -0.2489 -0.2615
19604TIP3   OH280226   3.369   4.958  13.745  0.1438 -0.3535 -0.4111
19604TIP3    H180227   3.294   4.916  13.702 -0.3544  1.7899 -1.7122
19604TIP3    H280228   3.440   4.894  13.735 -1.1069 -1.7792 -0.4784
19605TIP3   OH280229   2.796   3.265  14.381 -0.4796 -0.4926  0.0360
19605TIP3    H180230   2.743   3.243  14.457 -0.7597 -1.1716 -0.3445
19605TIP3    H280231   2.798   3.360  14.379  0.9030 -0.4741  1.8290
19606TIP3   OH280232   4.571   2.869  16.160  0.2418  0.2417 -0.0431
19606TIP3    H180233   4.555   2.873  16.066 -2.8364  2.0270  0.4623
19606TIP3    H280234   4.554   2.778  16.183 -1.1532  0.2603 -0.9228
19607TIP3   OH280235   3.197   6.102   4.463 -0.1369  0.0134 -0.3625
19607TIP3    H180236   3.270   6.045   4.486 -0.1477 -0.3025 -1.1022
19607TIP3    H280237   3.119   6.056   4.493 -0.0846  0.0083 -0.2380
19608TIP3   OH280238   4.625   4.097  11.750  0.0049  0.0955  0.9128
19608TIP3    H180239   4.568   4.036  11.702  0.2375  0.5681  0.0229
19608TIP3    H280240   4.714   4.073  11.724  0.0764  1.1301  0.1626
19609TIP3   OH280241   2.007   5.301   1.343 -0.1533 -0.3112  0.6054
19609TIP3    H180242   1.985   5.380   1.293  0.9807 -0.8389 -0.7784
19609TIP3    H280243   1.945   5.235   1.312  1.0590 -0.8503 -0.6962
19610TIP3   OH280244   2.260   0.730  16.010  0.2173  0.0739  0.5796
19610TIP3    H180245   2.232   0.703  16.098 -0.2812 -2.0570 -0.1910
19610TIP3    H280246   2.353   0.709  16.007  0.1634 -0.1576  0.4958
19611TIP3   OH280247   3.704   2.905   4.852 -0.5682  0.1567  0.1165
19611TIP3    H180248   3.674   2.834   4.795 -2.4975  1.2009 -0.2218
19611TIP3    H280249   3.679   2.878   4.940 -1.3968  0.4329 -0.0243
19612TIP3   OH280250   6.713   1.555   4.059  0.3958  0.1899  0.0941
19612TIP3    H180251   6.702   1.645   4.030  0.8840  1.2320  2.9486
19612TIP3    H280252   6.625   1.527   4.084  0.7069  0.9950  2.1896
19613TIP3   OH280253   5.603   6.537   0.766  0.4068  0.1505 -0.7872
19613TIP3    H180254   5.656   6.607   0.803 -0.7169  0.1702  0.8239
19613TIP3    H280255   5.655   6.458   0.781 -0.7375 -0.0873  2.4562
19614TIP3   OH280256   4.211   6.359   0.438 -0.6037  0.1027 -0.0754
19614TIP3    H180257   4.145   6.427   0.427 -0.1009  0.3983 -1.2721
19614TIP3    H280258   4.169   6.294   0.495 -1.8914  0.3476 -0.7292
19615TIP3   OH280259   2.834   0.155   2.851 -0.0062  0.2972 -0.3370
19615TIP3    H180260   2.762   0.138   2.790  0.6564  0.4475 -1.1732
19615TIP3    H280261   2.794   0.208   2.921 -1.4933 -2.4932  1.0117
19616TIP3   OH280262   2.566   5.158   4.271 -0.1888 -0.7064  0.1087
19616TIP3    H180263   2.557   5.253   4.273 -2.4233 -0.8688 -0.9141
19616TIP3    H280264   2.486   5.125   4.313  0.2532 -2.1467 -0.1400
19617TIP3   OH280265   2.189   5.867   1.705  0.2415 -0.7237  0.7813
19617TIP3    H180266   2.124   5.875   1.636  0.4374 -0.6577  0.6040
19617TIP3    H280267   2.273   5.870   1.659  0.3727 -0.5900  1.0298
19618TIP3   OH280268   5.157   4.341   3.639 -0.2196  0.1920  0.3522
19618TIP3    H180269   5.195   4.408   3.695 -0.0139 -0.0086  0.4513
19618TIP3    H280270   5.076   4.380   3.606  1.4714  1.7287 -2.1705
19619TIP3   OH280271   5.387   0.412   1.753 -0.0827 -0.0890  0.6560
19619TIP3    H180272   5.394   0.504   1.729  1.2721 -0.6091 -1.0909
19619TIP3    H280273   5.302   0.405   1.796 -0.7168  1.7520 -0.2175
19620TIP3   OH280274   0.159   5.024   3.498 -0.0719  0.3305 -0.3438
19620TIP3    H180275   0.209   5.033   3.579  1.5874 -0.3755 -1.2763
19620TIP3    H280276   0.102   5.100   3.496  0.0900  0.5049  1.3416
19621TIP3   OH280277   3.943   2.342   5.082 -0.4619 -0.1248 -0.4147
19621TIP3    H180278   4.033   2.331   5.052  0.0551 -0.8346  1.3022
19621TIP3    H280279   3.888   2.316   5.008  0.7397  0.4258 -1.5030
19622TIP3   OH280280   3.075   4.345  13.201 -0.5044 -0.0667 -0.1985
19622TIP3    H180281   3.156   4.295  13.197 -0.3318  0.3132 -1.9461
19622TIP3    H280282   3.099   4.434  13.175 -0.7591  1.0682  3.1422
19623TIP3   OH280283   3.538   1.322  16.932 -1.2843 -0.3696 -0.1504
19623TIP3    H180284   3.537   1.242  16.986 -0.6989 -1.6922 -2.0618
19623TIP3    H280285   3.621   1.364  16.955 -1.5403 -0.3569  0.7939
19624TIP3   OH280286   2.538   5.644  10.276 -0.8341  0.2723 -0.3476
19624TIP3    H180287   2.460   5.679  10.232 -0.9844  0.1585 -0.1723
19624TIP3    H280288   2.509   5.561  10.313  0.0110 -0.9410 -2.3232
19625TIP3   OH280289   3.790   5.744   2.901 -0.0628 -0.0686  0.1272
19625TIP3    H180290   3.862   5.727   2.962  0.2293 -0.6986 -0.3882
19625TIP3    H280291   3.831   5.790   2.828 -0.4009  0.6300  0.3779
19626TIP3   OH280292   1.800   5.975  15.335 -0.0640  0.0946  0.1914
19626TIP3    H180293   1.734   5.907  15.341  0.6658 -0.6360  0.0388
19626TIP3    H280294   1.843   5.975  15.420 -1.2265  1.5827  0.8089
19627TIP3   OH280295   2.467   2.954   1.322 -0.1075 -0.0595 -0.0294
19627TIP3    H180296   2.397   2.890   1.335 -1.7853  1.4285 -1.4095
19627TIP3    H280297   2.529   2.911   1.263 -0.0423 -1.2362  0.8767
19628TIP3   OH280298   6.500   1.280  12.502 -0.1829 -0.1182 -0.6913
19628TIP3    H180299   6.515   1.252  12.593 -3.0790 -1.3744 -0.5312
19628TIP3    H280300   6.545   1.214  12.449  1.0961  0.3333 -0.1899
19629TIP3   OH280301   2.898   0.725  11.538 -0.0071 -0.0047 -0.7924
19629TIP3    H180302   2.867   0.637  11.558  1.1777 -0.7439 -2.0968
19629TIP3    H280303   2.819   0.775  11.520 -0.8550 -0.2335  1.9879
19630TIP3   OH280304   3.502   5.423   3.845  0.1216 -0.2381  0.5142
19630TIP3    H180305   3.432   5.469   3.892 -1.1156 -0.0748 -1.4355
19630TIP3    H280306   3.466   5.408   3.758  1.3643 -2.9598  0.4399
19631TIP3   OH280307   2.961   2.028  15.287 -0.3774 -0.3772 -0.1353
19631TIP3    H180308   2.878   1.991  15.259 -0.5585  0.1880 -0.3451
19631TIP3    H280309   3.019   1.952  15.299 -1.6294 -0.9727  2.3646
19632TIP3   OH280310   4.476   5.345  16.764  0.1403  0.0158  0.4420
19632TIP3    H180311   4.474   5.438  16.740  1.2516  0.2384  1.2011
19632TIP3    H280312   4.438   5.300  16.689 -0.1611  1.0619 -0.0336
19633TIP3   OH280313   0.601   0.060  10.965  0.2526  0.4165  0.3865
19633TIP3    H180314   0.599   0.072  11.060  0.2922 -1.3638  0.6215
19633TIP3    H280315   0.518   0.096  10.934  0.4312  1.4113  1.0335
19634TIP3   OH280316   2.800   4.700  15.834  0.4112  0.0482 -0.1007
19634TIP3    H180317   2.709   4.680  15.853 -0.5504  4.1459 -0.0686
19634TIP3    H280318   2.849   4.663  15.908 -1.2472 -1.5318  0.2315
19635TIP3   OH280319   0.038   4.644  13.285 -0.0723 -0.0700  0.2742
19635TIP3    H180320  -0.003   4.727  13.260  1.1790  0.6223  0.4740
19635TIP3    H280321   0.129   4.667  13.302  0.5955 -1.7253 -0.9361
19636TIP3   OH280322   1.120   3.253  15.252 -0.2857  0.0931  0.4472
19636TIP3    H180323   1.096   3.332  15.204 -1.2723  0.3434  1.3450
19636TIP3    H280324   1.129   3.282  15.343 -0.3130 -0.7524  0.7209
19637TIP3   OH280325   3.083   6.161  17.013 -0.1596  0.4309 -0.0222
19637TIP3    H180326   2.991   6.167  16.988 -0.1116 -1.7780 -0.8415
19637TIP3    H280327   3.091   6.077  17.057  0.7869  2.1279  3.1964
19638TIP3   OH280328   6.296   1.011   4.627 -0.1547  0.7975 -0.1793
19638TIP3    H180329   6.309   1.073   4.554 -1.0812 -1.3113 -2.2157
19638TIP3    H280330   6.227   1.051   4.680  0.1563  2.1331 -0.7488
19639TIP3   OH280331   0.330   6.714  15.904  0.3638 -0.4871 -0.3358
19639TIP3    H180332   0.344   6.683  15.814 -0.2800 -0.7333 -0.3544
19639TIP3    H280333   0.237   6.696  15.921  0.5679 -0.7549  0.5030
19640TIP3   OH280334   5.508   2.331   3.698 -0.3693 -0.1739  0.7729
19640TIP3    H180335   5.498   2.402   3.634  2.8135 -0.2856  0.0631
19640TIP3    H280336   5.540   2.373   3.777  1.6737 -0.7792  0.3066
19641TIP3   OH280337   3.081   6.662  15.331 -0.0208 -0.0800 -0.5731
19641TIP3    H180338   3.148   6.664  15.399 -1.2618  1.2663  0.6359
19641TIP3    H280339   3.131   6.658  15.249  1.6193  2.6424  0.2168
19642TIP3   OH280340   0.665   5.078  13.939  0.0090  0.5649 -0.0839
19642TIP3    H180341   0.720   5.015  13.892 -0.6040  0.2964 -0.4424
19642TIP3    H280342   0.624   5.026  14.008  1.7168  1.1732  1.4242
19643TIP3   OH280343   3.626   1.609  16.140 -0.1089  0.0115 -0.1448
19643TIP3    H180344   3.664   1.534  16.094  2.4150  0.8767  0.4481
19643TIP3    H280345   3.646   1.593  16.232 -1.5765  0.3110  0.2486
19644TIP3   OH280346   0.425   1.511   2.214 -0.4787  0.1701  0.6203
19644TIP3    H180347   0.429   1.606   2.217 -0.3884  0.2456 -1.5165
19644TIP3    H280348   0.516   1.482   2.210 -0.5890  0.1115 -1.6376
19645TIP3   OH280349   5.796   5.732   1.708 -0.6123 -0.0138  0.4722
19645TIP3    H180350   5.883   5.769   1.691 -0.5228 -0.0408  0.8634
19645TIP3    H280351   5.788   5.661   1.645 -0.8250  0.7296 -0.3472
19646TIP3   OH280352   5.340   4.911  12.131 -0.1328 -0.5880 -0.2829
19646TIP3    H180353   5.428   4.932  12.161  0.8469 -3.9279 -0.7148
19646TIP3    H280354   5.341   4.928  12.037 -0.0342 -0.3987 -0.2481
19647TIP3   OH280355   2.204   4.971   2.115 -0.1963 -0.2071  0.0691
19647TIP3    H180356   2.179   4.961   2.023  0.1793 -1.4373  0.1025
19647TIP3    H280357   2.299   4.969   2.114 -0.1220  2.0148  0.2352
19648TIP3   OH280358   3.883   0.624   2.364 -0.1523  0.2009  0.0001
19648TIP3    H180359   3.792   0.621   2.335 -0.2177  0.5716  0.1593
19648TIP3    H280360   3.879   0.616   2.459 -0.1050  1.4220  0.1182
19649TIP3   OH280361   3.475   4.317   5.903 -0.1686 -0.2465  0.0796
19649TIP3    H180362   3.543   4.290   5.841 -0.9096 -0.8912 -0.4715
19649TIP3    H280363   3.430   4.235   5.925 -2.2482  0.4512 -1.3599
19650TIP3   OH280364   2.150   4.839   4.535 -0.3008  0.2534  0.6709
19650TIP3    H180365   2.113   4.778   4.471 -0.0467 -0.6154  1.3473
19650TIP3    H280366   2.074   4.875   4.580 -0.4136 -0.1265  0.7828
19651TIP3   OH280367   5.150   2.218   0.015  0.4691  0.0691  0.3986
19651TIP3    H180368   5.058   2.207  -0.011  0.7417  1.1376 -1.0788
19651TIP3    H280369   5.197   2.152  -0.037  1.0912  2.6086 -2.3689
19652TIP3   OH280370   2.970   1.453  10.659 -0.6409 -0.0038 -0.0683
19652TIP3    H180371   3.018   1.536  10.659 -2.0223  0.8345  0.8824
19652TIP3    H280372   2.911   1.460  10.734 -1.8567 -1.2095 -0.8881
19653TIP3   OH280373   2.616   4.006   1.506 -0.2779 -0.1404 -0.0328
19653TIP3    H180374   2.536   4.049   1.537  0.4531 -0.0567  1.7819
19653TIP3    H280375   2.686   4.068   1.525  0.4590 -1.0135  0.1421
19654TIP3   OH280376   1.952   4.019  14.185 -0.0436  0.0108  0.5169
19654TIP3    H180377   1.949   4.016  14.090  1.1423 -1.0398  0.4956
19654TIP3    H280378   1.862   4.001  14.213 -0.3098 -0.0688 -0.3911
19655TIP3   OH280379   1.680   6.376   3.204 -0.0358  0.3693 -0.4269
19655TIP3    H180380   1.644   6.318   3.136  0.0452 -1.2144  0.8396
19655TIP3    H280381   1.668   6.464   3.169 -0.8618 -0.3649 -2.0797
19656TIP3   OH280382   4.212   0.281  15.389  0.2077 -0.3039 -0.2987
19656TIP3    H180383   4.123   0.315  15.397  0.3578  0.2090 -0.7943
19656TIP3    H280384   4.205   0.214  15.321  1.0105  2.6413 -3.3920
19657TIP3   OH280385   4.464   2.153  13.935 -0.0921  0.1798  0.3251
19657TIP3    H180386   4.551   2.156  13.895 -0.2319 -0.8265 -0.0423
19657TIP3    H280387   4.454   2.063  13.965 -0.3406  0.6881  1.8625
19658TIP3   OH280388   6.024   2.607  13.899 -0.0632 -0.0488  0.2648
19658TIP3    H180389   6.047   2.651  13.817  2.2124 -0.8508  0.4312
19658TIP3    H280390   5.994   2.677  13.956  1.6737  1.0618 -0.1148
19659TIP3   OH280391   6.362   2.793  12.381  0.2008  0.0800  0.9778
19659TIP3    H180392   6.404   2.751  12.306 -0.2582 -1.1530  1.4141
19659TIP3    H280393   6.385   2.886  12.371 -1.1889  0.2171 -1.5914
19660TIP3   OH280394   0.306   1.865  13.562 -0.2747 -0.3245  0.1239
19660TIP3    H180395   0.221   1.827  13.543  0.8114 -2.1292 -1.2779
19660TIP3    H280396   0.351   1.799  13.615  1.0671 -0.3771 -1.0380
19661TIP3   OH280397   3.249   6.582   3.431 -0.5954 -0.6228 -0.0439
19661TIP3    H180398   3.304   6.532   3.370 -1.2800 -1.0794 -0.2966
19661TIP3    H280399   3.159   6.564   3.402 -0.8916 -0.1813  0.5929
19662TIP3   OH280400   1.492   6.525  12.910 -0.4298  0.3090  0.5295
19662TIP3    H180401   1.444   6.526  12.993 -1.5028  0.2823 -0.0768
19662TIP3    H280402   1.457   6.449  12.864 -1.4322  1.5665 -0.8437
19663TIP3   OH280403   3.758   2.664   4.457 -0.1835  0.4260  0.5813
19663TIP3    H180404   3.834   2.717   4.434 -0.0852  0.5036  1.0832
19663TIP3    H280405   3.709   2.655   4.375  0.5697  0.0473  0.1668
19664TIP3   OH280406   1.286   6.507  14.763  0.1080 -0.8979 -0.1243
19664TIP3    H180407   1.237   6.570  14.815 -1.1247  0.1925 -2.5415
19664TIP3    H280408   1.364   6.488  14.815  0.8723  3.1837  0.3875
19665TIP3   OH280409   2.147   2.844  14.887 -0.1562 -0.0583 -0.1331
19665TIP3    H180410   2.139   2.923  14.834  3.2516  1.8467  1.9720
19665TIP3    H280411   2.153   2.773  14.823  0.9059  1.8515 -2.2245
19666TIP3   OH280412   0.589   2.870   2.567 -0.0102 -0.0546  0.6633
19666TIP3    H180413   0.669   2.862   2.619  0.4414 -1.6875 -0.2402
19666TIP3    H280414   0.586   2.962   2.542  0.7495  0.3465  2.0241
19667TIP3   OH280415   1.988   1.388   2.473 -0.3092 -0.4554  0.3438
19667TIP3    H180416   1.955   1.472   2.439 -0.3319 -0.0376  1.3796
19667TIP3    H280417   1.958   1.323   2.409 -0.5279  0.2937 -0.3236
19668TIP3   OH280418   0.355   2.154   3.689 -0.2735  0.4321  0.2101
19668TIP3    H180419   0.402   2.085   3.735 -0.9038  0.8280  1.4783
19668TIP3    H280420   0.333   2.116   3.605 -0.3762 -0.8221  0.7937
19669TIP3   OH280421   3.031   5.489   3.381  0.4442  0.0586  0.1728
19669TIP3    H180422   3.010   5.582   3.387  0.1721  0.0990 -1.1748
19669TIP3    H280423   3.126   5.485   3.383  0.4969  0.4788 -0.9799
19670TIP3   OH280424   0.030   5.007  15.084 -0.6010 -0.9683  0.1551
19670TIP3    H180425   0.116   4.984  15.120 -0.8357 -0.1162  1.2647
19670TIP3    H280426   0.050   5.053  15.002  0.0554  0.5001  1.1254
19671TIP3   OH280427   5.120   3.286  16.855 -0.2471  0.0259  0.0823
19671TIP3    H180428   5.052   3.353  16.845 -1.4226 -1.1227  0.2766
19671TIP3    H280429   5.187   3.328  16.910 -1.3422  0.7656  0.8705
19672TIP3   OH280430   6.374   2.388   0.726 -0.1613 -0.0490  0.6474
19672TIP3    H180431   6.323   2.345   0.657 -0.5283  1.2028  0.1226
19672TIP3    H280432   6.462   2.353   0.716 -0.2824 -0.0982 -0.2751
19673TIP3   OH280433   6.318   6.255   1.832  0.4465 -0.4643 -0.0822
19673TIP3    H180434   6.240   6.215   1.871 -0.3590  1.1995  0.0615
19673TIP3    H280435   6.284   6.311   1.762  1.2257  2.5391  1.8460
19674TIP3   OH280436   1.896   0.395  12.305 -0.4904  0.1474 -0.6023
19674TIP3    H180437   1.984   0.423  12.330 -0.1915 -1.2172 -0.0665
19674TIP3    H280438   1.845   0.475  12.301  0.1625  0.7003  1.5496
19675TIP3   OH280439   5.194   6.202   5.738 -1.6015  0.1099 -0.0962
19675TIP3    H180440   5.168   6.257   5.664 -0.7816 -0.3322 -0.7163
19675TIP3    H280441   5.170   6.254   5.815 -3.2200  0.2172 -0.6468
19676TIP3   OH280442   3.597   5.242  11.804 -0.0429 -0.2781  0.4687
19676TIP3    H180443   3.688   5.266  11.785  1.2660 -2.6668  3.2706
19676TIP3    H280444   3.555   5.323  11.832  1.5767  0.5909  0.4022
19677TIP3   OH280445   6.542   3.573   4.945  1.0206  0.7029 -0.9438
19677TIP3    H180446   6.558   3.490   4.991  0.3042  1.3724  0.5135
19677TIP3    H280447   6.527   3.546   4.854  1.6790 -0.6867 -0.6665
19678TIP3   OH280448   4.925   0.970   5.927 -0.3858  0.0745 -0.0210
19678TIP3    H180449   4.841   0.969   5.972  0.4646  0.5018  1.6424
19678TIP3    H280450   4.935   1.061   5.897 -0.7183 -0.0818 -0.5970
19679TIP3   OH280451   1.672   5.996   3.117  0.0904  0.9044  0.1012
19679TIP3    H180452   1.668   5.929   3.185 -1.0958  1.4426  0.5780
19679TIP3    H280453   1.761   6.030   3.123  1.4078 -2.0892 -1.5988
19680TIP3   OH280454   4.781   4.898   3.497  0.1227  0.4301  0.3717
19680TIP3    H180455   4.845   4.888   3.568  0.3449  0.0146  0.1140
19680TIP3    H280456   4.710   4.839   3.521  0.6342 -0.4412 -0.2451
19681TIP3   OH280457   6.202   1.607  11.934 -0.0436  0.0212  0.1281
19681TIP3    H180458   6.246   1.579  12.014  0.8414 -0.4913 -0.5247
19681TIP3    H280459   6.143   1.677  11.962  0.7202  0.2780  1.1224
19682TIP3   OH280460   0.692   3.633   2.598 -0.1720  0.5928 -0.4462
19682TIP3    H180461   0.670   3.669   2.512 -0.4833  0.2342 -0.5156
19682TIP3    H280462   0.621   3.663   2.655 -0.5069 -0.0345 -0.5346
19683TIP3   OH280463   3.508   0.036  16.390 -0.5637 -0.0196  0.2841
19683TIP3    H180464   3.539  -0.011  16.313  0.3119  0.5515  0.2808
19683TIP3    H280465   3.519  -0.026  16.462 -0.6844 -0.2916  0.0658
19684TIP3   OH280466   4.446   3.456   0.657  0.0254 -0.6927 -0.1733
19684TIP3    H180467   4.517   3.485   0.599  0.0379  0.4935  0.4302
19684TIP3    H280468   4.466   3.364   0.673  2.0310 -0.1233  0.8093
19685TIP3   OH280469   6.310   5.412   6.165 -0.2225 -0.1042  0.4983
19685TIP3    H180470   6.319   5.352   6.238  3.0681 -0.1712  0.0941
19685TIP3    H280471   6.350   5.494   6.196 -1.5885  0.8295 -0.1475
19686TIP3   OH280472   1.892   4.178   3.039 -0.0332  0.6719 -0.2111
19686TIP3    H180473   1.804   4.141   3.025  0.7078 -1.1615 -0.1146
19686TIP3    H280474   1.930   4.125   3.109  0.4296  2.7330  1.1390
19687TIP3   OH280475   2.864   3.198  11.463  0.4794  0.1471 -0.0674
19687TIP3    H180476   2.916   3.279  11.460  2.3192 -0.9158  1.8262
19687TIP3    H280477   2.896   3.146  11.390  1.9425 -0.3977  0.9440
19688TIP3   OH280478   6.566   0.317   3.431  0.1839  0.2208  0.7091
19688TIP3    H180479   6.572   0.221   3.438  0.5000  0.3223  2.0131
19688TIP3    H280480   6.632   0.350   3.493 -0.4732  1.2735  0.8638
19689TIP3   OH280481   2.922   3.050  15.410 -0.2735 -0.1241  0.1229
19689TIP3    H180482   2.991   3.008  15.462  0.1924  1.5336  0.8964
19689TIP3    H280483   2.940   3.144  15.419 -2.1720  0.2982 -0.3070
19690TIP3   OH280484   3.839   2.997  13.018  0.0907 -0.0688  0.0865
19690TIP3    H180485   3.860   2.987  12.925 -0.9351 -2.9259  0.1081
19690TIP3    H280486   3.744   3.007  13.021  0.0680 -0.4005  0.8232
19691TIP3   OH280487   3.476   5.176  12.389 -0.1326  0.2743  0.1565
19691TIP3    H180488   3.387   5.189  12.421 -0.7085 -0.0767 -1.2861
19691TIP3    H280489   3.511   5.105  12.443 -0.9572 -0.0488  0.2685
19692TIP3   OH280490   6.724   1.435   4.345 -0.3597  0.0900  0.3299
19692TIP3    H180491   6.737   1.486   4.265 -1.5802  0.5139  0.3988
19692TIP3    H280492   6.762   1.489   4.414  1.1024 -0.4763 -0.0066
19693TIP3   OH280493   3.030   3.009   2.289  0.1679  0.1057  0.3183
19693TIP3    H180494   2.958   2.990   2.349 -0.2306  0.3917 -0.0700
19693TIP3    H280495   3.065   2.923   2.266 -0.3523 -0.0602  0.1366
19694TIP3   OH280496   0.655   0.822   4.497  0.3035 -0.1359 -0.3414
19694TIP3    H180497   0.717   0.870   4.442  1.0220  0.7022  1.1956
19694TIP3    H280498   0.709   0.765   4.551 -0.4219 -1.1287 -0.6299
19695TIP3   OH280499   4.011   1.098  11.989  0.3624  0.5763  0.0128
19695TIP3    H180500   3.934   1.112  12.045  0.0788 -1.8176  0.2690
19695TIP3    H280501   4.025   1.183  11.947 -1.3770  1.5315  1.2634
19696TIP3   OH280502   0.331   4.563  15.067  0.0706  0.3362  0.6718
19696TIP3    H180503   0.313   4.582  14.975  0.8494 -2.4004 -0.0705
19696TIP3    H280504   0.403   4.622  15.090  0.5903  0.2723 -0.7786
19697TIP3   OH280505   2.158   1.174   3.206 -0.1553 -0.3924 -0.4053
19697TIP3    H180506   2.120   1.262   3.212  0.1065 -0.3080  0.0629
19697TIP3    H280507   2.134   1.132   3.288  0.2875 -0.5316 -0.3478
19698TIP3   OH280508   6.164   5.835   2.079 -0.1108 -0.4252 -0.0002
19698TIP3    H180509   6.227   5.854   2.009  1.1478 -0.2769  1.1507
19698TIP3    H280510   6.079   5.847   2.038  0.6117  2.3116 -0.8038
19699TIP3   OH280511   0.879   2.929   3.767  0.0201  0.8797 -0.3007
19699TIP3    H180512   0.804   2.964   3.816 -0.9828 -0.1612 -1.0656
19699TIP3    H280513   0.945   2.998   3.772  0.3240  0.3982  3.3431
19700TIP3   OH280514   5.619   3.518   5.955  0.0525 -0.8638 -0.3779
19700TIP3    H180515   5.528   3.487   5.958  0.0772 -0.8524  0.9248
19700TIP3    H280516   5.612   3.612   5.971  0.3692 -1.0445  0.8927
19701TIP3   OH280517   6.390   0.860   0.196  0.2990  0.4320  0.0024
19701TIP3    H180518   6.319   0.835   0.136 -1.9914 -1.9569  3.4912
19701TIP3    H280519   6.355   0.934   0.244 -0.1700 -1.1602  2.1865
19702TIP3   OH280520   1.493   6.523  13.247 -0.5733 -0.4753  0.1511
19702TIP3    H180521   1.521   6.567  13.328 -2.0077 -0.1031  0.4554
19702TIP3    H280522   1.571   6.475  13.218  0.5329  0.9428  0.7075
19703TIP3   OH280523   5.009   0.715   1.480  0.0543  0.1983 -0.5800
19703TIP3    H180524   5.088   0.683   1.523 -1.1696 -0.4924  1.2330
19703TIP3    H280525   4.957   0.636   1.463 -2.2812  0.9615  2.4755
19704TIP3   OH280526   1.236   4.279  10.775  0.4849 -0.3230  0.1636
19704TIP3    H180527   1.202   4.368  10.774  0.4381 -0.3501 -0.6596
19704TIP3    H280528   1.181   4.234  10.840 -0.5447 -0.1598 -0.5842
19705TIP3   OH280529   0.257   0.715   5.000 -0.2703 -0.5310 -0.2973
19705TIP3    H180530   0.235   0.640   5.056 -2.4381  0.2009 -0.1224
19705TIP3    H280531   0.210   0.789   5.040  0.5356  0.5867 -1.3922
19706TIP3   OH280532   1.624   3.037   5.801  0.2297  0.2682  0.4656
19706TIP3    H180533   1.585   2.974   5.740 -1.4523  0.4546  1.3338
19706TIP3    H280534   1.574   3.026   5.882  0.0635  2.5594  0.6998
19707TIP3   OH280535   3.838   5.805  14.673 -0.0352  0.6219 -0.2741
19707TIP3    H180536   3.840   5.711  14.653  0.9819  0.3071  1.1905
19707TIP3    H280537   3.762   5.838  14.626 -0.9728 -1.1320 -0.0308
19708TIP3   OH280538   6.286   2.083  11.231  0.1830 -0.4271  0.5494
19708TIP3    H180539   6.254   2.079  11.141 -1.2750  3.7254  0.7798
19708TIP3    H280540   6.381   2.085  11.222  0.0318  0.7501 -0.9484
19709TIP3   OH280541   5.610   0.908   6.187  0.6868  0.3249 -0.9869
19709TIP3    H180542   5.557   0.842   6.232 -0.9405  0.8899 -2.0153
19709TIP3    H280543   5.608   0.984   6.244 -0.7510  0.7880 -1.6203
19710TIP3   OH280544   2.830   2.291   3.046  0.0033 -0.3541 -0.2083
19710TIP3    H180545   2.920   2.282   3.014  0.7841  0.2833  1.7814
19710TIP3    H280546   2.810   2.384   3.032 -1.9667 -1.2935 -4.7296
19711TIP3   OH280547   6.307   5.095  16.251 -0.0816  0.6031  0.3896
19711TIP3    H180548   6.344   5.033  16.188  0.2034  0.6469  0.5141
19711TIP3    H280549   6.217   5.065  16.263 -0.9171  2.0880 -1.9326
19712TIP3   OH280550   4.936   4.351   1.442 -0.2831  0.0948 -0.0832
19712TIP3    H180551   5.008   4.372   1.502 -0.1287 -2.2614  0.6378
19712TIP3    H280552   4.978   4.299   1.373 -0.9495  0.4251 -0.7369
19713TIP3   OH280553   0.294   0.766   2.932  0.0581 -0.3754 -0.5415
19713TIP3    H180554   0.208   0.784   2.970 -0.3536 -1.0026 -1.1736
19713TIP3    H280555   0.347   0.736   3.006 -0.1983  0.2329 -0.1079
19714TIP3   OH280556   2.895   2.538   3.891  0.1545 -0.1368  0.0568
19714TIP3    H180557   2.917   2.620   3.935 -0.0644  1.4442 -2.6384
19714TIP3    H280558   2.930   2.548   3.802 -3.0770 -1.3916 -1.4675
19715TIP3   OH280559   1.765   6.011   0.547  0.4652 -0.3940  0.1409
19715TIP3    H180560   1.835   6.067   0.514 -0.3909 -1.7620 -4.2883
19715TIP3    H280561   1.810   5.934   0.582  1.2797  0.0425  0.0570
19716TIP3   OH280562   5.257   0.082   0.573  0.7023  0.1000  0.2785
19716TIP3    H180563   5.341   0.099   0.617  1.0027 -0.5355 -0.0442
19716TIP3    H280564   5.230  -0.004   0.607 -0.0969  0.5580  0.8115
19717TIP3   OH280565   2.314   3.532   4.540  0.0054 -0.1210  0.1760
19717TIP3    H180566   2.377   3.579   4.595 -0.7344 -1.1790  1.9912
19717TIP3    H280567   2.229   3.568   4.564 -0.4270 -1.3037  0.4851
19718TIP3   OH280568   5.687   2.594   3.707 -0.3660  0.1175 -0.1577
19718TIP3    H180569   5.758   2.648   3.739  0.1390 -1.1694  0.9139
19718TIP3    H280570   5.702   2.508   3.746 -1.5487 -0.6184 -1.2694
19719TIP3   OH280571   6.571   3.032   6.734  0.4747  0.2709  0.1220
19719TIP3    H180572   6.608   2.944   6.734 -1.5004 -0.5900 -0.5389
19719TIP3    H280573   6.551   3.050   6.642  0.0433  1.0332  0.3624
19720TIP3   OH280574   2.112   0.340  11.599  0.2531  0.0860  0.3700
19720TIP3    H180575   2.197   0.380  11.581  0.0762  0.4663  0.3801
19720TIP3    H280576   2.067   0.339  11.515 -0.2538  1.1167  0.6188
19721TIP3   OH280577   1.236   4.772  14.596  0.3867 -0.0329 -0.6063
19721TIP3    H180578   1.241   4.859  14.635  0.7638  0.1839 -1.1290
19721TIP3    H280579   1.309   4.724  14.634  1.0792  0.3434 -1.4322
19722TIP3   OH280580   1.062   2.386  12.459 -0.2359  0.6041  0.2336
19722TIP3    H180581   1.063   2.482  12.463 -0.2395  0.5706  1.1795
19722TIP3    H280582   0.970   2.364  12.444  0.0419  0.8009 -1.9737
19723TIP3   OH280583   2.684   1.035  15.743 -0.6453 -0.7252  0.1968
19723TIP3    H180584   2.671   1.130  15.742 -2.2599 -0.9165 -3.4600
19723TIP3    H280585   2.778   1.024  15.733 -0.3952  0.4858  1.0277
19724TIP3   OH280586   1.223   5.999   4.147  0.2855 -0.0843 -0.2903
19724TIP3    H180587   1.173   5.953   4.079  0.7577 -0.0546 -0.6616
19724TIP3    H280588   1.306   6.021   4.104 -0.5764  2.6288 -0.6782
19725TIP3   OH280589   5.597   0.666   0.030  1.3498 -0.2642  0.4364
19725TIP3    H180590   5.563   0.578   0.045 -0.3167 -0.0247 -1.7122
19725TIP3    H280591   5.677   0.671   0.084 -0.0428 -2.0932  2.7435
19726TIP3   OH280592   1.554   2.701   4.744  0.5248 -0.2140  0.3439
19726TIP3    H180593   1.576   2.736   4.831  1.0681 -2.0936  0.9753
19726TIP3    H280594   1.507   2.620   4.761  0.2324 -0.3748 -1.1278
19727TIP3   OH280595   3.077   0.909   5.543 -0.5215  0.3333  0.3136
19727TIP3    H180596   3.111   0.823   5.518 -0.2873  0.6317 -0.4228
19727TIP3    H280597   3.105   0.921   5.633  0.3944  0.1034  0.0663
19728TIP3   OH280598   5.510   0.704  15.012  0.0654  0.1696 -0.5570
19728TIP3    H180599   5.542   0.620  15.045  3.9509  2.4864  1.8964
19728TIP3    H280600   5.486   0.754  15.090 -3.5483  0.9436 -2.0482
19729TIP3   OH280601   5.205   5.958  11.527 -0.2012  0.1930 -0.4354
19729TIP3    H180602   5.234   6.004  11.448 -2.8354  0.8885 -1.0495
19729TIP3    H280603   5.188   5.869  11.498  0.5071 -0.0051 -0.2526
19730TIP3   OH280604   4.229   0.536  12.973 -0.1304  0.6821  0.4348
19730TIP3    H180605   4.223   0.598  12.901  0.2499  1.3233  0.9375
19730TIP3    H280606   4.226   0.450  12.932  0.2673  1.0419 -0.3633
19731TIP3   OH280607   6.152   2.816  10.587 -0.2360  0.0829  0.5003
19731TIP3    H180608   6.206   2.791  10.512 -0.4022  0.5155  0.2340
19731TIP3    H280609   6.212   2.861  10.646 -1.0630  4.0423 -1.5286
19732TIP3   OH280610   5.587   4.954  13.404  0.1093 -0.3707 -0.3477
19732TIP3    H180611   5.518   4.952  13.471  0.8373 -1.0549  0.3871
19732TIP3    H280612   5.562   5.028  13.348 -0.6790  0.0281  0.4949
19733TIP3   OH280613   5.049   0.319   2.533 -0.3503  0.3857 -0.7943
19733TIP3    H180614   5.013   0.235   2.562  1.6412 -0.5965 -1.0912
19733TIP3    H280615   5.009   0.383   2.592  2.1682 -1.3583  3.0184
19734TIP3   OH280616   4.421   4.269   1.731  0.0713  0.7469  0.4467
19734TIP3    H180617   4.373   4.344   1.766 -0.7869 -0.3200  1.6292
19734TIP3    H280618   4.454   4.224   1.809  1.3136  0.3816 -0.2924
19735TIP3   OH280619   4.423   2.489  12.269  0.1042 -0.2229 -0.7238
19735TIP3    H180620   4.376   2.463  12.190  0.4314  0.4398 -1.1367
19735TIP3    H280621   4.382   2.438  12.339 -1.3021  0.4302 -1.0601
19736TIP3   OH280622   2.072   0.747   2.492 -0.3439  0.6384  0.1858
19736TIP3    H180623   2.035   0.729   2.406 -1.1507  0.9668  0.4590
19736TIP3    H280624   2.003   0.794   2.539 -0.0912  0.0273  1.1845
19737TIP3   OH280625   4.722   4.104   0.747  0.1621  0.0730 -0.0153
19737TIP3    H180626   4.653   4.150   0.794 -0.3422 -0.2856 -0.3944
19737TIP3    H280627   4.803   4.141   0.780 -0.1153 -1.3631  2.4180
19738TIP3   OH280628   0.366   0.493   1.782  0.5409  0.1146 -0.2583
19738TIP3    H180629   0.288   0.437   1.773  0.9988 -0.6292  0.2414
19738TIP3    H280630   0.403   0.498   1.694 -0.2091  0.6839 -0.5495
19739TIP3   OH280631   5.126   2.288  16.972 -0.5243  0.4442  0.1395
19739TIP3    H180632   5.155   2.329  16.891  0.9920  2.1196  1.4685
19739TIP3    H280633   5.172   2.204  16.973  1.9960  1.7481  0.7107
19740TIP3   OH280634   6.556   5.166  16.023  0.5353 -0.2606  0.0326
19740TIP3    H180635   6.500   5.205  15.956  0.1852 -1.4754 -0.3981
19740TIP3    H280636   6.585   5.084  15.985  1.4953 -0.2921  0.8103
19741TIP3   OH280637   2.555   1.866  16.260  0.0167  0.1493 -0.0816
19741TIP3    H180638   2.556   1.956  16.293  0.4429  0.5134 -1.0813
19741TIP3    H280639   2.606   1.817  16.324 -0.2853  0.6057  0.5116
19742TIP3   OH280640   3.132   5.611  16.521  0.7879  0.1109  0.0981
19742TIP3    H180641   3.168   5.522  16.527 -0.0867 -0.2647 -0.1500
19742TIP3    H280642   3.048   5.606  16.568  0.8354  0.8625  0.2673
19743TIP3   OH280643   4.429   1.303  13.122  0.5611 -0.4297 -0.0173
19743TIP3    H180644   4.341   1.292  13.160  0.4155  0.5165 -0.0552
19743TIP3    H280645   4.436   1.234  13.056 -1.0396  0.8686 -1.6027
19744TIP3   OH280646   1.176   1.404   2.495  0.4815  0.0313  0.1918
19744TIP3    H180647   1.113   1.461   2.538 -0.3045  0.1084 -1.0176
19744TIP3    H280648   1.122   1.343   2.444  1.3663 -0.2216 -0.4567
19745TIP3   OH280649   4.418   0.547  16.522 -0.0516 -0.2230  0.1632
19745TIP3    H180650   4.496   0.492  16.516 -0.2990 -0.6476  0.7804
19745TIP3    H280651   4.443   0.618  16.581  0.2541  0.3136 -0.5974
19746TIP3   OH280652   2.771   0.290   0.569 -0.7067 -0.2862 -0.1785
19746TIP3    H180653   2.759   0.207   0.616 -2.3918 -0.9670 -1.7025
19746TIP3    H280654   2.854   0.280   0.523  1.0544  0.4600  2.6993
19747TIP3   OH280655   3.313   0.299  15.816  0.1965  0.6785  0.0568
19747TIP3    H180656   3.384   0.297  15.752 -0.1873  0.2312 -0.3625
19747TIP3    H280657   3.354   0.268  15.897  0.5715  0.7979 -0.0857
19748TIP3   OH280658   3.990   5.458   3.220  0.1872  0.0655  0.3448
19748TIP3    H180659   4.054   5.387   3.227 -0.6690 -0.6293  1.1745
19748TIP3    H280660   3.915   5.428   3.271 -0.3205  1.4137  0.4121
19749TIP3   OH280661   1.046   0.945  12.674  0.1415  0.6902 -0.1729
19749TIP3    H180662   1.040   0.904  12.588  1.2974 -0.3542  0.2269
19749TIP3    H280663   0.987   0.895  12.730  0.4639  0.4660 -0.0288
19750TIP3   OH280664   0.835   0.762   0.989  0.3696  0.7503  0.2506
19750TIP3    H180665   0.882   0.784   0.909  0.5120 -2.1887 -0.5564
19750TIP3    H280666   0.868   0.675   1.013 -2.4128 -0.0872  1.3307
19751TIP3   OH280667   1.837   2.077   4.030 -0.0911  0.3176 -0.4983
19751TIP3    H180668   1.880   2.022   4.095 -0.7703 -1.1898 -1.2967
19751TIP3    H280669   1.843   2.166   4.066  0.1517 -0.3962  1.2717
19752TIP3   OH280670   4.386   1.220   1.287 -0.2819 -0.3297  0.4041
19752TIP3    H180671   4.411   1.300   1.241  1.0452 -1.2018 -0.4068
19752TIP3    H280672   4.361   1.159   1.218 -1.3417 -0.6110  1.0235
19753TIP3   OH280673   6.420   5.287   1.423  0.7758 -0.4150  0.1452
19753TIP3    H180674   6.403   5.316   1.333  3.1842 -1.1018 -0.5631
19753TIP3    H280675   6.333   5.263   1.457 -0.2840  0.6890 -1.6841
19754TIP3   OH280676   3.808   1.204   4.196  0.2390 -0.6636 -0.0722
19754TIP3    H180677   3.903   1.215   4.198  0.1085  0.6419 -0.5807
19754TIP3    H280678   3.794   1.126   4.144  1.0372 -0.8554 -0.0015
19755TIP3   OH280679   6.217   6.200   3.588 -0.2157 -0.1934 -0.4092
19755TIP3    H180680   6.282   6.234   3.649 -0.8288  0.3788 -0.0565
19755TIP3    H280681   6.160   6.145   3.641 -0.7359  0.2825 -0.4663
19756TIP3   OH280682   5.409   3.859   0.223  0.0364 -0.3936  0.5360
19756TIP3    H180683   5.442   3.785   0.173  2.7966  1.1520 -0.0094
19756TIP3    H280684   5.481   3.884   0.280 -0.1810  2.9974 -0.5846
19757TIP3   OH280685   5.038   3.285  11.262  0.1769 -0.2660  0.7938
19757TIP3    H180686   4.988   3.318  11.336 -0.3471 -1.6898  1.1022
19757TIP3    H280687   5.036   3.356  11.198  0.3420  0.8445  1.9954
19758TIP3   OH280688   3.499   6.404   3.574 -0.4925  0.0070 -0.1944
19758TIP3    H180689   3.437   6.429   3.505 -0.0080  2.0544  0.0799
19758TIP3    H280690   3.513   6.484   3.624  0.3797 -1.0794  1.3378
19759TIP3   OH280691   4.966   0.416   3.128  0.1696  0.3727  0.4041
19759TIP3    H180692   4.887   0.435   3.076 -1.1112 -0.2720  2.0559
19759TIP3    H280693   4.978   0.494   3.182 -0.7068 -0.4448  1.8096
19760TIP3   OH280694   6.288   1.896  16.619  0.2440  0.0054  0.3939
19760TIP3    H180695   6.379   1.895  16.590  0.6865 -1.7572  1.8115
19760TIP3    H280696   6.292   1.880  16.713 -1.6659 -2.8039  0.0449
19761TIP3   OH280697   4.950   2.992   5.336 -0.2265  0.6087 -0.3834
19761TIP3    H180698   5.011   3.059   5.368 -0.4339  0.7674 -0.3221
19761TIP3    H280699   4.863   3.031   5.347 -0.2992  0.6559 -1.1137
19762TIP3   OH280700   0.397   3.784  15.204  0.6592  0.1178  0.1233
19762TIP3    H180701   0.432   3.695  15.213  0.5531  0.1837  1.2379
19762TIP3    H280702   0.459   3.828  15.146  1.9815 -0.0172  1.4002
19763TIP3   OH280703   3.825   4.930   5.303  0.6953  0.0631 -0.3887
19763TIP3    H180704   3.891   4.933   5.372  0.4901  0.9585 -0.2150
19763TIP3    H280705   3.874   4.930   5.221  1.0667 -4.6136 -0.2783
19764TIP3   OH280706   3.506   3.837   1.685  0.4145  0.6081 -0.1886
19764TIP3    H180707   3.475   3.903   1.623 -1.8847  0.2568  0.5312
19764TIP3    H280708   3.471   3.865   1.769  2.4664  0.4033  0.7669
19765TIP3   OH280709   3.713   1.583  15.629 -0.1007  0.2957 -0.5774
19765TIP3    H180710   3.772   1.576  15.704  1.1731 -2.4378 -1.7464
19765TIP3    H280711   3.630   1.612  15.665  0.9279  0.5267  1.6542
19766TIP3   OH280712   1.239   2.806  14.605  0.3454  0.6155 -0.5365
19766TIP3    H180713   1.237   2.898  14.631  0.7633  0.3832  0.3268
19766TIP3    H280714   1.176   2.800  14.533  0.9605  1.7526 -1.1888
19767TIP3   OH280715   6.484   6.150  10.322 -0.5387  0.3111  0.5127
19767TIP3    H180716   6.528   6.152  10.237 -0.5078 -2.3660  0.4306
19767TIP3    H280717   6.396   6.184  10.305  0.0576  1.5149 -0.1987
19768TIP3   OH280718   2.177   5.770   2.537 -0.0828  0.2898 -0.4412
19768TIP3    H180719   2.148   5.804   2.621  0.4482 -1.1630  0.3383
19768TIP3    H280720   2.186   5.675   2.550  2.6077  0.3784 -1.3477
19769TIP3   OH280721   4.453   0.144  13.344 -0.1238 -0.4968 -0.0135
19769TIP3    H180722   4.381   0.122  13.284  0.4391  0.0736 -0.8950
19769TIP3    H280723   4.410   0.152  13.430 -0.9764 -1.0228 -0.3826
19770TIP3   OH280724   0.991   0.625   0.679  0.0831 -0.7728 -0.5395
19770TIP3    H180725   0.899   0.602   0.688 -0.4464  1.3906 -0.0609
19770TIP3    H280726   0.996   0.669   0.594  0.8514 -1.6779 -0.9676
19771TIP3   OH280727   0.515   6.606   5.524 -0.4708 -0.2566 -0.1917
19771TIP3    H180728   0.483   6.553   5.452 -2.4998  2.1393 -1.0992
19771TIP3    H280729   0.483   6.561   5.603 -3.4206  0.4032 -0.9889
19772TIP3   OH280730   3.169   6.496  13.385 -0.0075  0.0232  0.2598
19772TIP3    H180731   3.109   6.469  13.454  0.6152 -1.0587  0.4066
19772TIP3    H280732   3.124   6.473  13.304  0.4836 -1.4243  0.3837
19773TIP3   OH280733   4.622   6.159   3.229  0.3449  0.2724  0.4679
19773TIP3    H180734   4.598   6.068   3.212  0.6563  0.4896 -1.2734
19773TIP3    H280735   4.699   6.154   3.286  1.0525 -0.5888 -0.5524
19774TIP3   OH280736   4.101   4.270  16.223  0.0216  0.3106 -0.0911
19774TIP3    H180737   4.058   4.351  16.252  2.2390  1.6613 -0.4861
19774TIP3    H280738   4.177   4.300  16.175 -0.0237 -2.0292 -1.6608
19775TIP3   OH280739   6.436   4.019   5.397 -1.0226  0.0275  1.1373
19775TIP3    H180740   6.414   3.935   5.436 -0.0747 -0.6948  0.1593
19775TIP3    H280741   6.364   4.037   5.336 -0.3899 -0.9122  0.0936
19776TIP3   OH280742   0.973   0.153   4.848  0.6957 -0.3573 -0.3556
19776TIP3    H180743   1.048   0.165   4.906  2.2066  0.4181 -2.4161
19776TIP3    H280744   0.958   0.239   4.809 -1.9425 -0.2554  0.8168
19777TIP3   OH280745   4.448   3.066   5.923  0.1217  0.6645  0.0437
19777TIP3    H180746   4.504   3.138   5.950 -0.5605  1.1911  0.0655
19777TIP3    H280747   4.503   2.988   5.931  0.4875  1.0362  1.1541
19778TIP3   OH280748   0.614   5.627  15.011 -0.2550  0.0709 -0.0390
19778TIP3    H180749   0.521   5.604  15.009  0.3024 -2.2252 -0.9479
19778TIP3    H280750   0.658   5.546  15.038  1.5570  0.9070 -0.4175
19779TIP3   OH280751   2.982   1.258  14.198  0.1913 -0.4650  0.4797
19779TIP3    H180752   3.029   1.282  14.118  0.1982 -0.4722  0.4811
19779TIP3    H280753   3.042   1.198  14.243  0.1855 -0.4642  0.4880
19780TIP3   OH280754   1.070   1.507  15.822 -0.3445 -0.0954  0.2893
19780TIP3    H180755   0.982   1.541  15.838 -0.8094 -0.6120 -1.0785
19780TIP3    H280756   1.056   1.417  15.793  0.5144  0.2824 -1.4081
19781TIP3   OH280757   4.172   2.638  12.871  0.6677  0.1032  0.4434
19781TIP3    H180758   4.120   2.584  12.931 -0.3431  0.5846  0.0125
19781TIP3    H280759   4.216   2.702  12.928  0.2119  0.1523  0.7448
19782TIP3   OH280760   1.309   3.071   1.543  0.5612  0.0975  0.4310
19782TIP3    H180761   1.268   2.994   1.583 -1.8273  0.5360 -1.0118
19782TIP3    H280762   1.338   3.041   1.457 -1.8349  1.1075 -0.8059
19783TIP3   OH280763   3.125   3.591   5.591  0.8875 -0.2754  0.7297
19783TIP3    H180764   3.157   3.617   5.677  0.4906  0.3270  0.6970
19783TIP3    H280765   3.098   3.673   5.550  1.8917 -0.4569 -0.3061
19784TIP3   OH280766   4.561   0.943   5.365  0.2043  0.0900 -0.3668
19784TIP3    H180767   4.622   1.011   5.337 -0.5567  1.0758  0.3433
19784TIP3    H280768   4.526   0.907   5.284  0.8082  0.3666 -0.7520
19785TIP3   OH280769   2.091   6.669   5.538 -0.0524 -0.3016  1.1757
19785TIP3    H180770   2.020   6.607   5.557 -0.1941 -0.0615  1.4321
19785TIP3    H280771   2.090   6.679   5.443 -0.1033 -0.6053  1.1444
19786TIP3   OH280772   1.004   1.630  16.683  0.3085  0.5017 -0.4776
19786TIP3    H180773   1.089   1.590  16.700 -0.2161 -0.4941 -0.1421
19786TIP3    H280774   1.014   1.721  16.711  0.5586 -0.1935  1.7848
19787TIP3   OH280775   3.601   2.847   3.673  0.2920  0.0290 -0.5880
19787TIP3    H180776   3.644   2.912   3.729 -0.5086  0.8556 -0.9187
19787TIP3    H280777   3.672   2.810   3.620  0.9647 -0.3545  0.5764
19788TIP3   OH280778   4.930   5.162  16.445 -0.5580  0.5538 -0.0599
19788TIP3    H180779   4.927   5.067  16.437 -0.3069  0.6316 -1.1904
19788TIP3    H280780   5.019   5.186  16.419 -0.9181  1.1689 -0.7486
19789TIP3   OH280781   2.232   0.694  14.516  0.0383  0.3603  0.4195
19789TIP3    H180782   2.272   0.781  14.510  2.0756 -0.6399 -1.2212
19789TIP3    H280783   2.146   0.710  14.555  0.4546  3.0769  0.3443
19790TIP3   OH280784   0.073   5.860   0.817  0.0870 -0.3141 -0.1541
19790TIP3    H180785   0.079   5.953   0.838 -0.8841 -0.5599  1.2790
19790TIP3    H280786  -0.010   5.851   0.770 -0.4694 -0.6740  0.8982
19791TIP3   OH280787   6.615   0.611  14.933  0.0427 -0.3691  0.2961
19791TIP3    H180788   6.690   0.670  14.921 -0.1385  0.1080  1.4058
19791TIP3    H280789   6.642   0.529  14.892  0.4974  0.3258 -0.8190
19792TIP3   OH280790   1.329   0.474  14.237 -0.2672  0.8131  0.2152
19792TIP3    H180791   1.378   0.517  14.167 -1.3414  1.6708 -0.0238
19792TIP3    H280792   1.392   0.414  14.277  0.4513  0.5641 -1.2636
19793TIP3   OH280793   0.633   4.536   6.353  0.6376 -0.7180 -0.2228
19793TIP3    H180794   0.590   4.450   6.347  2.0357 -1.3982 -0.6796
19793TIP3    H280795   0.718   4.523   6.311  1.0849  0.7544  0.2084
19794TIP3   OH280796   3.407   3.044  10.818 -0.2121  0.3865 -0.1259
19794TIP3    H180797   3.499   3.043  10.842 -0.3689  0.5495  0.5000
19794TIP3    H280798   3.377   3.132  10.842 -0.5475  0.3098 -0.2546
19795TIP3   OH280799   1.801   3.532   4.984 -0.0570 -0.1023  0.2821
19795TIP3    H180800   1.889   3.501   4.964 -0.3891  0.2521 -1.8696
19795TIP3    H280801   1.812   3.588   5.061  2.0901  2.2168 -1.6174
19796TIP3   OH280802   2.093   1.752   2.723  0.1338 -0.7020  0.2540
19796TIP3    H180803   2.139   1.789   2.647  0.3341 -1.1685  0.1449
19796TIP3    H280804   2.119   1.660   2.724  1.8543 -0.2065  2.2015
19797TIP3   OH280805   3.605   5.555   6.002 -0.0808  0.3348 -0.3550
19797TIP3    H180806   3.529   5.572   5.946 -0.4790  1.4137  0.5028
19797TIP3    H280807   3.669   5.516   5.943 -0.6651  1.0136 -1.4684
19798TIP3   OH280808   4.543   3.530  10.436  0.3940 -0.7158 -0.0966
19798TIP3    H180809   4.604   3.570  10.498  1.3311 -0.0993 -1.3897
19798TIP3    H280810   4.579   3.552  10.350 -0.5251 -2.1301 -0.8535
19799TIP3   OH280811   6.034   0.007   0.634  0.3889 -0.2588 -0.0251
19799TIP3    H180812   5.957  -0.038   0.669 -0.7883  0.9908 -0.9407
19799TIP3    H280813   6.108  -0.036   0.676 -0.8940 -0.0206  2.6105
19800TIP3   OH280814   4.641   6.433   6.096 -0.0687  0.4314  0.2693
19800TIP3    H180815   4.684   6.355   6.131 -0.5196  1.0884  2.3731
19800TIP3    H280816   4.604   6.477   6.173 -3.7522  0.3563 -1.3414
19801TIP3   OH280817   3.982   6.451  16.576  0.5673 -0.0933 -0.3647
19801TIP3    H180818   3.929   6.409  16.508  0.5934  0.6171 -0.8377
19801TIP3    H280819   3.924   6.459  16.651  0.1876  0.1479 -0.6847
19802TIP3   OH280820   2.319   2.031  13.922  0.2145  0.4959  0.1370
19802TIP3    H180821   2.351   1.941  13.909 -0.3016  0.1550  1.1214
19802TIP3    H280822   2.269   2.051  13.843  1.1214  0.2650 -0.5001
19803TIP3   OH280823   0.661   5.399   4.744  0.5692  0.2606  0.0750
19803TIP3    H180824   0.632   5.418   4.655 -1.0205 -0.3283  0.4443
19803TIP3    H280825   0.633   5.475   4.795  0.6293  0.1701  0.2441
19804TIP3   OH280826   1.935   6.400  11.567 -0.0365  0.1169 -0.1392
19804TIP3    H180827   1.980   6.465  11.513 -0.6754  1.3084  0.7534
19804TIP3    H280828   1.943   6.318  11.517  0.2920  0.9795 -1.5352
19805TIP3   OH280829   0.626   5.991   2.896  0.0918 -0.1797 -0.3024
19805TIP3    H180830   0.579   6.010   2.977 -1.7105 -2.2052 -0.8397
19805TIP3    H280831   0.605   6.065   2.839 -1.1087 -0.2414  0.0420
19806TIP3   OH280832   3.653   6.130  16.994 -0.1354  0.1246  0.2880
19806TIP3    H180833   3.590   6.075  17.040 -0.8548  0.6945 -0.0138
19806TIP3    H280834   3.600   6.183  16.934  0.4042  2.0731  1.5031
19807TIP3   OH280835   5.425   6.390  14.719  0.3413 -0.3608  0.7462
19807TIP3    H180836   5.392   6.367  14.633  0.1156 -1.2243  1.0591
19807TIP3    H280837   5.483   6.465  14.704 -1.0262  0.5891  0.0714
19808TIP3   OH280838   2.083   6.395   5.851  0.2409 -0.0482  0.5017
19808TIP3    H180839   2.149   6.341   5.893  0.0985  0.0540  0.8521
19808TIP3    H280840   1.999   6.356   5.877  0.1308  0.5313  1.0076
19809TIP3   OH280841   1.720   3.385  12.400 -0.3795 -0.1986  0.0857
19809TIP3    H180842   1.776   3.364  12.326  0.0811  0.8109  0.1402
19809TIP3    H280843   1.719   3.305  12.453  2.7900  0.4628  1.2207
19810TIP3   OH280844   6.781   5.857   2.129  0.1659  0.0593  0.5434
19810TIP3    H180845   6.701   5.907   2.113  0.4802  0.3357 -0.2337
19810TIP3    H280846   6.791   5.857   2.224 -3.0487 -3.6518  0.9727
19811TIP3   OH280847   4.925   3.468  16.881  0.2921 -0.1374  0.5655
19811TIP3    H180848   4.900   3.521  16.956  2.2059 -0.0363  1.1488
19811TIP3    H280849   4.845   3.460  16.829 -0.7121  0.8861  1.9426
19812TIP3   OH280850   3.942   4.223   0.494  0.7988 -0.0723  0.2419
19812TIP3    H180851   3.923   4.313   0.522 -1.1157 -0.5991  0.7294
19812TIP3    H280852   3.954   4.175   0.575 -0.7287 -0.7751  0.0577
19813TIP3   OH280853   1.133   6.683  10.205  0.0399 -0.3563  0.6201
19813TIP3    H180854   1.206   6.744  10.205 -0.5344  0.3373  0.7584
19813TIP3    H280855   1.168   6.603  10.244  0.3201  0.4547  2.0526
19814TIP3   OH280856   1.213   4.684   1.482 -0.0760 -0.1596  0.3272
19814TIP3    H180857   1.251   4.722   1.561 -1.3808 -1.4141  1.6073
19814TIP3    H280858   1.270   4.610   1.461 -0.5300 -0.7061  0.9690
19815TIP3   OH280859   5.602   3.139  13.081  0.1554 -0.1253  0.3309
19815TIP3    H180860   5.614   3.167  12.990 -0.4013 -2.2834 -0.4158
19815TIP3    H280861   5.679   3.174  13.127  0.7948  0.3667 -1.0928
19816TIP3   OH280862   4.937   0.536  15.455 -0.0326 -0.2777  0.3562
19816TIP3    H180863   4.849   0.559  15.424 -0.3228  0.0501  1.3793
19816TIP3    H280864   4.923   0.465  15.518  0.3685  0.1658  0.9565
19817TIP3   OH280865   3.476   3.327   1.653  0.1861  0.2719  0.9098
19817TIP3    H180866   3.413   3.390   1.617  0.1309  1.3245  2.7884
19817TIP3    H280867   3.440   3.242   1.632 -1.7218  0.8734  1.6946
19818TIP3   OH280868   6.659   5.654  16.304 -0.1947 -0.5712  0.2358
19818TIP3    H180869   6.658   5.629  16.396 -0.2128 -0.0517  0.3746
19818TIP3    H280870   6.713   5.732  16.300 -0.3335 -0.4927 -0.1697
19819TIP3   OH280871   0.090   3.795   3.615 -0.0522  0.1441 -0.3611
19819TIP3    H180872   0.114   3.771   3.704 -2.3438 -1.3481 -0.1084
19819TIP3    H280873   0.161   3.759   3.561  0.9663  0.4011  0.7767
19820TIP3   OH280874   4.390   1.933   0.697  0.2846  0.4041  0.9438
19820TIP3    H180875   4.387   1.942   0.793  0.2348  1.9581  0.7967
19820TIP3    H280876   4.376   2.021   0.664  0.2569 -0.1418 -0.5120
19821TIP3   OH280877   6.307   6.484   0.235  0.6098  0.2000  0.0713
19821TIP3    H180878   6.395   6.448   0.228  0.7808  0.2793  1.7006
19821TIP3    H280879   6.319   6.578   0.242  0.2435  0.4733 -2.3521
19822TIP3   OH280880   1.117   3.551   4.760  0.0139  0.0328  0.1135
19822TIP3    H180881   1.032   3.594   4.759 -0.0800 -0.1098  0.9034
19822TIP3    H280882   1.131   3.520   4.671 -0.3343  0.8851 -0.2341
19823TIP3   OH280883   2.365   1.290  16.695  0.1911  0.0617 -0.2742
19823TIP3    H180884   2.361   1.347  16.772 -0.0425 -1.1064  0.5906
19823TIP3    H280885   2.458   1.290  16.671  0.1317  1.1225 -0.5221
19824TIP3   OH280886   4.890   4.280  15.112  0.3326 -0.2408  0.4361
19824TIP3    H180887   4.965   4.258  15.166 -0.2775  1.0848  1.8480
19824TIP3    H280888   4.866   4.197  15.069  3.3217 -0.4303 -0.9947
19825TIP3   OH280889   4.115   0.231   0.680 -0.2512  0.2088 -0.1664
19825TIP3    H180890   4.111   0.324   0.702  0.0339  0.0033  0.7555
19825TIP3    H280891   4.175   0.193   0.744  0.7558 -0.3646 -1.4045
19826TIP3   OH280892   5.842   3.064  12.284  0.8035 -0.5313  0.1842
19826TIP3    H180893   5.775   2.997  12.268  0.0265  0.6541 -1.6163
19826TIP3    H280894   5.794   3.137  12.322  1.3485 -0.2738  0.3762
19827TIP3   OH280895   2.873   4.652   4.348 -0.3104 -0.4129 -0.3001
19827TIP3    H180896   2.779   4.668   4.360 -0.2184 -0.0295 -0.0785
19827TIP3    H280897   2.915   4.735   4.373  0.0562 -0.4229 -0.8851
19828TIP3   OH280898   2.303   5.493  14.906 -0.7651 -0.6909  0.3198
19828TIP3    H180899   2.254   5.452  14.835 -0.4280 -0.3386 -0.1193
19828TIP3    H280900   2.238   5.508  14.974 -1.5134  0.7565 -0.6780
19829TIP3   OH280901   6.410   2.264  15.623  0.7179 -0.1510 -0.0717
19829TIP3    H180902   6.358   2.343  15.607 -0.3207 -0.6128  0.9123
19829TIP3    H280903   6.500   2.296  15.634  0.3575  0.8588 -0.0027
19830TIP3   OH280904   4.096   2.487  13.878 -0.4099 -0.0489  0.5001
19830TIP3    H180905   4.029   2.554  13.863 -0.1677 -0.4701 -2.8977
19830TIP3    H280906   4.046   2.407  13.891 -0.6149 -0.2270 -1.2856
19831TIP3   OH280907   2.114   0.043  12.331 -0.2439 -0.2697 -0.0898
19831TIP3    H180908   2.181   0.031  12.398 -0.8418 -1.7735  0.2601
19831TIP3    H280909   2.039   0.080  12.378  0.4795  1.8541 -0.5681
19832TIP3   OH280910   3.524   2.143  11.250  0.7579 -0.2371  0.0246
19832TIP3    H180911   3.448   2.166  11.304 -0.0655  1.4733 -1.7889
19832TIP3    H280912   3.520   2.048  11.241  0.7140 -0.5184  2.6457
19833TIP3   OH280913   2.250   2.829  14.500 -0.1492  0.0125 -0.1442
19833TIP3    H180914   2.244   2.767  14.428 -2.2436  0.2924 -0.2321
19833TIP3    H280915   2.261   2.914  14.458 -2.8044  0.3595 -0.2301
19834TIP3   OH280916   5.491   1.694  17.114  0.0143 -0.5736 -0.0482
19834TIP3    H180917   5.480   1.664  17.204 -0.2433 -1.7519 -0.4644
19834TIP3    H280918   5.421   1.757  17.100  0.5799  0.2626  0.8518
19835TIP3   OH280919   1.360   2.282  16.029 -0.7399  0.2710 -0.2085
19835TIP3    H180920   1.278   2.235  16.046 -0.7351  0.4670  0.3743
19835TIP3    H280921   1.428   2.221  16.057 -0.7512  0.8242  1.0360
19836TIP3   OH280922   1.960   1.455   4.866  0.0493 -0.6911  0.4605
19836TIP3    H180923   1.919   1.535   4.897 -0.4598 -0.9321  0.4207
19836TIP3    H280924   2.029   1.437   4.930  1.1331  0.5721 -0.3421
19837TIP3   OH280925   4.727   2.677  17.080  0.5013  0.6524 -0.5337
19837TIP3    H180926   4.728   2.707  17.171 -0.4364  1.5705 -0.8140
19837TIP3    H280927   4.687   2.750  17.032  0.9970  0.1755 -1.6841
19838TIP3   OH280928   4.055   4.427  15.274  0.3513  0.1850  0.0130
19838TIP3    H180929   4.015   4.343  15.293  1.3654  0.4744  3.9081
19838TIP3    H280930   3.985   4.491  15.290  0.3602  0.2661 -0.2633
19839TIP3   OH280931   4.394   1.860   0.988 -0.2933  0.6657 -0.1785
19839TIP3    H180932   4.334   1.806   1.040  0.1479  0.4691  0.1218
19839TIP3    H280933   4.474   1.808   0.981  0.5244  1.7398  1.0359
19840TIP3   OH280934   6.450   3.981  12.066  0.1819 -0.1593  0.3070
19840TIP3    H180935   6.524   3.922  12.051 -0.4102 -0.4578 -1.6234
19840TIP3    H280936   6.376   3.939  12.022 -0.4727  1.4975 -0.2370
19841TIP3   OH280937   0.035   1.198   1.206 -0.9248 -0.4702 -0.8033
19841TIP3    H180938   0.037   1.130   1.273  0.0016 -1.3635 -1.7270
19841TIP3    H280939   0.072   1.156   1.128  1.6011  1.6744 -0.8229
19842TIP3   OH280940   2.250   2.908   1.471  0.2279 -0.1656 -0.1137
19842TIP3    H180941   2.232   2.877   1.560  0.4814 -1.5093 -0.5155
19842TIP3    H280942   2.299   2.990   1.482 -2.4261  1.3295  0.9903
19843TIP3   OH280943   3.057   0.830   4.577  0.3643 -0.2263 -0.2345
19843TIP3    H180944   2.971   0.843   4.538  0.0671 -1.6673 -0.0973
19843TIP3    H280945   3.044   0.841   4.671  0.2020 -1.0604 -0.1578
19844TIP3   OH280946   3.997   5.146   5.694  0.3718 -0.0696  0.0209
19844TIP3    H180947   4.006   5.066   5.745  1.6065 -1.0920 -1.7540
19844TIP3    H280948   4.027   5.123   5.606  0.8297  2.3474 -0.5095
19845TIP3   OH280949   3.627   4.594  12.220 -0.2420 -0.3573  0.7741
19845TIP3    H180950   3.648   4.676  12.175  0.3654 -0.4282  0.9216
19845TIP3    H280951   3.708   4.543  12.217 -1.4716 -2.2680 -2.0505
19846TIP3   OH280952   3.748   0.849  13.556 -0.0160 -0.1117 -0.0922
19846TIP3    H180953   3.738   0.916  13.624  0.3988 -0.9802  0.8333
19846TIP3    H280954   3.822   0.879  13.504  0.7429 -0.3110  0.8650
19847TIP3   OH280955   0.132   1.532  16.475  0.4812 -0.3971  0.7257
19847TIP3    H180956   0.203   1.468  16.477 -1.1083 -2.1880  1.1065
19847TIP3    H280957   0.057   1.484  16.441 -0.0965  1.9741 -1.5261
19848TIP3   OH280958   3.734   6.411  16.723  0.2350 -0.0451 -0.3395
19848TIP3    H180959   3.767   6.472  16.789  0.0906  0.8397 -1.0819
19848TIP3    H280960   3.652   6.379  16.760  0.0774  0.5672 -0.1510
19849TIP3   OH280961   4.495   5.284   0.982  0.3615 -0.2409 -0.0181
19849TIP3    H180962   4.568   5.312   1.039  0.0182  0.7544 -0.0501
19849TIP3    H280963   4.417   5.300   1.035 -0.0924  2.3540 -1.3646
19850TIP3   OH280964   5.383   4.888   4.277  0.5466  0.5037 -0.0269
19850TIP3    H180965   5.303   4.932   4.305 -0.1530  0.9862 -2.6793
19850TIP3    H280966   5.357   4.835   4.202  2.4465 -0.3724 -0.0915
19851TIP3   OH280967   2.972   5.317   5.860 -0.0682  0.9112 -0.6812
19851TIP3    H180968   2.984   5.371   5.938 -0.1562 -0.6043  0.4159
19851TIP3    H280969   3.042   5.252   5.866  0.2980  1.1435 -2.2028
19852TIP3   OH280970   3.668   4.965   2.788  0.2637  0.3756 -0.4533
19852TIP3    H180971   3.704   5.047   2.754  0.2252  1.2480  1.5775
19852TIP3    H280972   3.687   4.966   2.881 -2.7775 -0.2994  0.2504
19853TIP3   OH280973   6.027   5.937  12.223 -0.2322 -0.7540 -0.0113
19853TIP3    H180974   5.942   5.892  12.223  0.9567 -3.1035  1.1617
19853TIP3    H280975   6.016   6.011  12.163 -3.7893  0.3076  1.8130
19854TIP3   OH280976   5.477   1.557  13.543 -0.0450 -0.1708  0.2894
19854TIP3    H180977   5.423   1.636  13.535 -0.3511 -0.5125 -1.2600
19854TIP3    H280978   5.559   1.580  13.500  0.0092 -0.5607  0.1846
19855TIP3   OH280979   4.084   5.383   4.529  0.6718  0.5090 -0.2798
19855TIP3    H180980   4.021   5.376   4.458 -0.1900 -0.8570  0.6263
19855TIP3    H280981   4.086   5.477   4.550 -0.5948  0.6300 -0.7046
19856TIP3   OH280982   5.305   3.241   1.103  0.2479 -0.1684  0.0924
19856TIP3    H180983   5.215   3.225   1.129  0.9794 -0.9612  2.2578
19856TIP3    H280984   5.305   3.330   1.068 -1.3500 -0.1750  0.0553
19857TIP3   OH280985   1.333   4.591  11.436  0.5342  0.4850 -0.1933
19857TIP3    H180986   1.393   4.537  11.386 -1.3040 -1.1298 -0.7415
19857TIP3    H280987   1.343   4.679  11.399 -0.6854 -0.6306 -3.3918
19858TIP3   OH280988   0.136   1.252  10.503 -0.1382 -0.1033  0.7601
19858TIP3    H180989   0.230   1.257  10.488 -0.0928 -2.5795 -0.1519
19858TIP3    H280990   0.126   1.177  10.562 -1.5533 -0.1049  0.5288
19859TIP3   OH280991   4.829   4.545   2.359 -0.4698 -0.8597  0.3316
19859TIP3    H180992   4.810   4.461   2.317  0.7530  0.5282 -3.1435
19859TIP3    H280993   4.922   4.542   2.378 -0.2336  0.0657 -0.6580
19860TIP3   OH280994   1.338   3.093   2.175  0.2730  0.5170 -0.2824
19860TIP3    H180995   1.267   3.133   2.225  0.3605 -0.9694  1.0611
19860TIP3    H280996   1.389   3.167   2.142  0.1489  1.5180  1.7238
19861TIP3   OH280997   0.267   2.854   4.514  0.5257  0.1277  0.0860
19861TIP3    H180998   0.244   2.777   4.566  0.5552  0.5833  0.7831
19861TIP3    H280999   0.189   2.909   4.517  0.1614 -0.3051 -1.2188
19862TIP3   OH281000   0.653   5.824  16.477 -0.2083 -0.2710  0.3062
19862TIP3    H181001   0.633   5.846  16.386 -1.2354 -0.8075  0.3935
19862TIP3    H281002   0.583   5.764  16.503  0.9549 -1.3635  0.9601
19863TIP3   OH281003   6.002   6.193   3.817  0.5868 -0.1834  0.1098
19863TIP3    H181004   6.006   6.273   3.870  1.0155  0.7213 -1.2554
19863TIP3    H281005   5.939   6.213   3.747  1.9437 -0.4066 -1.2139
19864TIP3   OH281006   5.949   3.634  16.093 -0.6356 -0.1169  0.0076
19864TIP3    H181007   5.918   3.631  16.003 -0.9718  2.5493  0.0018
19864TIP3    H281008   6.042   3.655  16.086 -0.5183 -0.5449  0.2596
19865TIP3   OH281009   6.662   6.029  15.231  0.5912  0.0025 -0.1098
19865TIP3    H181010   6.670   5.992  15.143  1.6125  0.2453 -0.1348
19865TIP3    H281011   6.576   6.071  15.232  0.6003  0.0667 -1.0265
19866TIP3   OH281012   1.054   5.833  10.986 -0.0692  0.2271  0.5308
19866TIP3    H181013   1.090   5.864  10.903 -0.2762  0.9926  0.7176
19866TIP3    H281014   1.002   5.757  10.963 -1.1387  1.1698 -0.2277
19867TIP3   OH281015   2.429   5.053  12.282  0.4651  0.2124 -0.0600
19867TIP3    H181016   2.479   5.126  12.245 -0.4353  0.4208 -0.9081
19867TIP3    H281017   2.480   5.024  12.357 -0.6473  3.7861  2.2596
19868TIP3   OH281018   5.875   1.668  16.861  0.2743  0.0156 -0.0672
19868TIP3    H181019   5.855   1.683  16.954 -0.1895  1.2337 -0.3589
19868TIP3    H281020   5.837   1.743  16.816 -0.0974 -0.9067 -1.3268
19869TIP3   OH281021   2.237   6.712   3.438  0.1230 -0.4064 -0.5247
19869TIP3    H181022   2.223   6.806   3.433  0.0613 -0.1920  2.6802
19869TIP3    H281023   2.151   6.674   3.417 -0.7077  0.3692  1.3790
19870TIP3   OH281024   1.204   2.430   0.860 -0.1546  0.5804 -0.0400
19870TIP3    H181025   1.111   2.405   0.857 -0.6681  2.2569  1.1437
19870TIP3    H281026   1.203   2.526   0.862  1.4508  0.5893  3.6149
19871TIP3   OH281027   0.939   3.614  14.478  0.5046  0.1110 -0.0308
19871TIP3    H181028   0.948   3.542  14.415 -1.2510  0.3939 -0.6426
19871TIP3    H281029   0.897   3.574  14.554 -1.4820  0.6621 -0.7858
19872TIP3   OH281030   3.378   0.089  10.777  0.1561  0.1041 -0.0382
19872TIP3    H181031   3.473   0.078  10.769 -0.0357 -1.1021 -0.7534
19872TIP3    H281032   3.367   0.153  10.847  1.3735 -2.7952  2.9260
19873TIP3   OH281033   0.855   6.675  12.242  0.3691  0.3245 -0.3412
19873TIP3    H181034   0.848   6.589  12.199 -1.9175  0.4922 -0.3291
19873TIP3    H281035   0.935   6.713  12.205  0.6939 -1.2658 -1.3288
19874TIP3   OH281036   0.889   6.342  14.973  0.2746  0.2489  0.5850
19874TIP3    H181037   0.869   6.286  14.898  0.3936  0.0487  0.7009
19874TIP3    H281038   0.859   6.429  14.947  0.8635  0.3033  0.0701
19875TIP3   OH281039   6.118   2.093   3.908  0.0185 -0.0806  0.2413
19875TIP3    H181040   6.059   2.022   3.881 -1.1568  0.9071  0.1254
19875TIP3    H281041   6.192   2.088   3.847  0.4205 -1.8242  0.8732
19876TIP3   OH281042   1.495   0.197  11.728  0.3343  0.0582  0.1278
19876TIP3    H181043   1.482   0.105  11.752  0.9499  0.1497  0.8444
19876TIP3    H281044   1.501   0.197  11.633 -0.8008 -0.4972  0.0442
19877TIP3   OH281045   6.305   6.389   3.843 -0.8587 -0.2093  0.2197
19877TIP3    H181046   6.218   6.394   3.883 -0.4934 -1.0860  1.1371
19877TIP3    H281047   6.334   6.299   3.858 -0.0880 -0.1280 -0.7099
19878TIP3   OH281048   3.254   5.548  12.011  0.1478  0.2427 -0.7088
19878TIP3    H181049   3.163   5.543  12.043 -0.3209 -0.2712 -2.0784
19878TIP3    H281050   3.298   5.475  12.055  0.5363  2.0280  1.9231
19879TIP3   OH281051   3.626   0.282  15.962 -0.2168  0.1515  0.2152
19879TIP3    H181052   3.543   0.261  16.005 -0.4829  0.5300 -0.1106
19879TIP3    H281053   3.673   0.335  16.026 -0.1896 -0.1346  0.4341
19880TIP3   OH281054   3.975   6.415  17.146 -0.0636  0.5579  0.1650
19880TIP3    H181055   4.048   6.374  17.192  0.8784  1.5896 -0.4055
19880TIP3    H281056   3.934   6.343  17.098 -0.1491 -0.2412  1.4240
19881TIP3   OH281057   2.470   5.806   0.739  0.4897 -0.4423 -0.0393
19881TIP3    H181058   2.549   5.860   0.745 -0.3737  0.7489  0.6520
19881TIP3    H281059   2.442   5.792   0.829  0.0744 -1.1292 -0.2650
19882TIP3   OH281060   2.768   1.135   2.808  0.6517  0.2058  0.0806
19882TIP3    H181061   2.800   1.160   2.894  1.4708 -0.9192  0.1088
19882TIP3    H281062   2.745   1.218   2.766  2.7380  0.9715  0.4104
19883TIP3   OH281063   0.235   1.783   4.336  0.0515 -0.5271  0.2766
19883TIP3    H181064   0.227   1.824   4.423 -0.2116 -0.3879  0.1866
19883TIP3    H281065   0.230   1.856   4.275 -1.0572 -0.7586  0.0842
19884TIP3   OH281066   2.095   6.654   2.393 -0.9235  0.2337 -0.1292
19884TIP3    H181067   2.076   6.633   2.484  1.8305  1.0541  0.6923
19884TIP3    H281068   2.060   6.580   2.343 -0.4934 -1.2895  1.7825
19885TIP3   OH281069   0.125   0.807   3.954  0.5325 -0.4503  0.5277
19885TIP3    H181070   0.031   0.818   3.941  0.8616  0.7243 -0.8691
19885TIP3    H281071   0.137   0.819   4.049 -0.4475  1.4156  0.4246
19886TIP3   OH281072   6.034   1.046   0.635 -0.2515 -0.0198 -0.1499
19886TIP3    H181073   6.007   1.099   0.560 -1.1395  0.4395  0.4903
19886TIP3    H281074   5.954   1.033   0.686  0.3993 -0.0755  0.8770
19887TIP3   OH281075   5.428   0.401   0.342 -0.1361  0.2536 -0.4296
19887TIP3    H181076   5.495   0.462   0.372 -0.0835  0.0237 -0.0755
19887TIP3    H281077   5.350   0.423   0.393 -0.2051  0.2211 -0.5189
19888TIP3   OH281078   0.426   6.183   0.925 -0.3042  0.4020  0.4276
19888TIP3    H181079   0.473   6.244   0.869 -0.2467  1.0223  1.1488
19888TIP3    H281080   0.488   6.162   0.995  0.3965 -2.0279 -0.8789
19889TIP3   OH281081   0.412   0.131   4.212  0.6535 -0.2687 -0.2635
19889TIP3    H181082   0.478   0.088   4.158  0.4252 -0.0342 -0.7351
19889TIP3    H281083   0.435   0.224   4.209  1.7455 -0.4679  1.5900
19890TIP3   OH281084   2.255   3.862   2.799 -0.0791 -0.4638  0.4041
19890TIP3    H181085   2.254   3.953   2.769  0.6358 -0.7100 -0.3676
19890TIP3    H281086   2.314   3.817   2.738 -1.1330 -1.6312  0.2291
19891TIP3   OH281087   2.185   0.776   0.977  0.2068 -0.5685 -0.3355
19891TIP3    H181088   2.275   0.748   0.960  0.7288 -0.3251  1.8880
19891TIP3    H281089   2.142   0.699   1.014  0.5907  0.3846  2.1992
19892TIP3   OH281090   2.070   2.831  10.768  0.2627  0.2230  0.0544
19892TIP3    H181091   2.083   2.838  10.674  2.7773  0.1344  0.3630
19892TIP3    H281092   2.081   2.738  10.787  0.9332  0.3993  0.5695
19893TIP3   OH281093   1.355   2.427   6.879  0.3943 -0.1023  0.6474
19893TIP3    H181094   1.277   2.444   6.931  0.5938  0.3351  0.8078
19893TIP3    H281095   1.377   2.336   6.899 -0.6899 -0.5693 -0.2418
19894TIP3   OH281096   3.021   0.898  17.176 -0.4126  0.1785  0.1036
19894TIP3    H181097   2.996   0.817  17.130 -1.3734  1.0881 -1.0203
19894TIP3    H281098   3.001   0.881  17.268 -1.2236 -0.6333 -0.2134
19895TIP3   OH281099   6.786   2.182  12.611 -0.1885  0.2339  0.2039
19895TIP3    H181100   6.880   2.171  12.604 -0.2264  0.5761 -1.1846
19895TIP3    H281101   6.774   2.275  12.633 -0.1589 -0.1230  1.7048
19896TIP3   OH281102   4.325   0.121  12.212 -0.0358 -0.2986 -0.6389
19896TIP3    H181103   4.369   0.185  12.156  0.0346  0.9150  0.7661
19896TIP3    H281104   4.232   0.139  12.201  0.0276  2.3792  2.3064
19897TIP3   OH281105   2.553   1.939   0.536  0.3570 -0.0030 -0.0719
19897TIP3    H181106   2.565   1.849   0.563 -0.0212  0.3820  1.4414
19897TIP3    H281107   2.503   1.979   0.607  2.0412  1.8523  0.1138
19898TIP3   OH281108   5.887   6.629   5.041 -0.0293 -0.0543  0.2561
19898TIP3    H181109   5.843   6.593   5.117 -0.6166  0.4431  0.1494
19898TIP3    H281110   5.932   6.554   5.002 -0.1513 -0.4077  0.7940
19899TIP3   OH281111   0.685   2.866  12.052 -0.4833  0.0619 -0.4090
19899TIP3    H181112   0.644   2.948  12.028 -0.1982  1.0321  2.2081
19899TIP3    H281113   0.614   2.815  12.092  0.0522  0.3365  0.9025
19900TIP3   OH281114   4.793   1.195  12.851  0.3653 -0.3116 -0.2768
19900TIP3    H181115   4.850   1.240  12.789  0.8716  0.1807  0.5440
19900TIP3    H281116   4.814   1.233  12.936 -1.6599  0.3477 -0.0410
19901TIP3   OH281117   1.160   3.229   6.828  0.1540 -0.1751  0.1848
19901TIP3    H181118   1.162   3.308   6.882  2.8344  0.3166 -0.5916
19901TIP3    H281119   1.112   3.256   6.749 -0.4058  0.1779  0.6347
19902TIP3   OH281120   1.310   6.229  12.158  0.3331 -0.3297 -0.3678
19902TIP3    H181121   1.241   6.296  12.160  0.7434  0.0634  1.4976
19902TIP3    H281122   1.271   6.157  12.109 -0.9802  0.3630 -0.3718
19903TIP3   OH281123   0.240   6.399  11.055  0.0846 -0.2039 -0.0267
19903TIP3    H181124   0.321   6.359  11.023  0.4852 -0.4631  1.2647
19903TIP3    H281125   0.264   6.490  11.075  0.3990 -0.6008  1.5203
19904TIP3   OH281126   6.422   3.526  16.739 -0.5229  0.7412 -0.1241
19904TIP3    H181127   6.439   3.460  16.671 -1.0036 -0.9517  1.3708
19904TIP3    H281128   6.399   3.475  16.817  0.8537  2.6335  1.5595
19905TIP3   OH281129   4.139   4.631  14.689  0.1801 -0.3044  0.0905
19905TIP3    H181130   4.045   4.623  14.709  0.2040 -1.7785 -0.3033
19905TIP3    H281131   4.146   4.599  14.599  1.2724 -1.5057  0.6036
19906TIP3   OH281132   5.168   4.821   0.890 -0.1211  0.4986  0.1153
19906TIP3    H181133   5.202   4.889   0.948 -1.4715  0.6698  0.7089
19906TIP3    H281134   5.117   4.868   0.824  0.7601  0.2386 -0.7831
19907TIP3   OH281135   1.351   2.589  10.716  0.4526 -0.1425  0.3430
19907TIP3    H181136   1.407   2.517  10.746 -2.6805 -2.3107  1.2665
19907TIP3    H281137   1.361   2.591  10.621  2.1047 -0.4716  0.5080
19908TIP3   OH281138   4.696   1.960  14.477 -0.2525  0.1002 -0.0056
19908TIP3    H181139   4.756   1.915  14.536 -0.0317  1.6360  0.9437
19908TIP3    H281140   4.631   1.893  14.454  1.0319 -1.1889  0.0269
19909TIP3   OH281141   0.634   4.527   0.545  0.4364 -0.2744 -0.4001
19909TIP3    H181142   0.706   4.468   0.525  0.1895 -1.0498  0.9103
19909TIP3    H281143   0.655   4.560   0.633 -1.2558 -1.2195  0.3755
19910TIP3   OH281144   5.975   1.824  16.066 -0.0270  0.1810  0.1552
19910TIP3    H181145   6.049   1.883  16.083 -1.0878  1.7679 -0.6502
19910TIP3    H281146   5.999   1.777  15.986 -0.4338  1.5898 -0.7948
19911TIP3   OH281147   4.693   5.489  14.742 -0.4108 -0.0204  0.1030
19911TIP3    H181148   4.641   5.433  14.800 -0.4516 -1.0453 -0.9027
19911TIP3    H281149   4.650   5.481  14.657  0.8549 -0.1715 -0.5391
19912TIP3   OH281150   2.426   3.465   2.634  0.4568  0.3245  0.1136
19912TIP3    H181151   2.424   3.419   2.550 -0.1187 -0.4981  0.5665
19912TIP3    H281152   2.337   3.453   2.669  0.6779  0.7201  0.8035
19913TIP3   OH281153   5.306   2.776   4.223  0.4832  0.1682  0.4824
19913TIP3    H181154   5.389   2.761   4.179  0.2771 -0.6601  0.3729
19913TIP3    H281155   5.252   2.822   4.158  0.6316  0.1238  0.3284
19914TIP3   OH281156   2.456   0.489   3.330  0.4127  0.0124 -0.3339
19914TIP3    H181157   2.430   0.511   3.240  1.2013  0.7818 -0.3881
19914TIP3    H281158   2.418   0.558   3.384  0.4955 -0.0752 -0.1612
19915TIP3   OH281159   4.401   3.086  17.012 -0.3454  0.4404  0.0300
19915TIP3    H181160   4.384   3.122  16.925  0.4338  2.0278  0.5064
19915TIP3    H281161   4.329   3.025  17.028 -1.9258  2.0878 -0.6627
19916TIP3   OH281162   2.160   0.124   2.689  0.3498 -0.1709  0.8869
19916TIP3    H181163   2.203   0.046   2.723 -1.7779 -0.5877  2.7766
19916TIP3    H281164   2.195   0.196   2.741  0.1702 -0.2500  1.1155
19917TIP3   OH281165   6.724   5.743  10.775  0.1429  0.0599  0.0231
19917TIP3    H181166   6.684   5.657  10.790 -1.3826  0.7069 -0.2812
19917TIP3    H281167   6.650   5.802  10.762  1.1393  1.5964  1.0956
19918TIP3   OH281168   5.334   3.474   5.971  0.4634  0.7330 -0.2370
19918TIP3    H181169   5.282   3.397   5.995 -1.5269  1.9997 -0.2959
19918TIP3    H281170   5.296   3.545   6.023  0.5255  2.1923 -2.1226
19919TIP3   OH281171   3.052   4.679   3.817 -0.2718  0.0234 -0.6941
19919TIP3    H181172   3.031   4.772   3.824 -1.8001 -0.2524 -1.2411
19919TIP3    H281173   2.966   4.636   3.813  0.3007 -1.6978  3.1148
19920TIP3   OH281174   0.117   6.435   5.346 -0.1491  0.3019 -0.2413
19920TIP3    H181175   0.100   6.343   5.368 -0.1637 -0.2875 -2.5614
19920TIP3    H281176   0.212   6.440   5.338 -0.1654  0.4382 -0.3485
19921TIP3   OH281177   2.839   1.603  15.514  0.6079  0.2432  0.3790
19921TIP3    H181178   2.900   1.552  15.460  1.6847  0.5300  1.2965
19921TIP3    H281179   2.867   1.585  15.604  0.5579  1.8912  0.7379
19922TIP3   OH281180   4.337   4.260   2.460 -0.1547 -0.2705 -0.3854
19922TIP3    H181181   4.261   4.202   2.464 -0.8221  0.6178  0.0122
19922TIP3    H281182   4.303   4.342   2.423  0.6799  0.0148 -0.5351
19923TIP3   OH281183   3.235   1.029   6.220 -0.4449  0.1404 -0.6940
19923TIP3    H181184   3.236   1.052   6.313 -0.3827 -1.3471 -0.3110
19923TIP3    H281185   3.284   0.947   6.215  0.1189  0.5573 -2.1405
19924TIP3   OH281186   1.501   4.017   5.028 -0.6232 -0.0877 -0.0496
19924TIP3    H181187   1.466   3.935   4.993 -0.1359 -0.1921 -0.2849
19924TIP3    H281188   1.470   4.019   5.119 -1.4949 -0.0368 -0.3476
19925TIP3   OH281189   0.564   6.450   3.101  0.1182  0.1037 -0.5536
19925TIP3    H181190   0.636   6.391   3.123 -0.1750  0.1193  0.4515
19925TIP3    H281191   0.488   6.414   3.148 -0.0673  1.2732  0.0477
19926TIP3   OH281192   1.686   4.403  14.647 -0.1824 -0.2555  0.1864
19926TIP3    H181193   1.740   4.363  14.715  0.5329 -0.8567 -0.7292
19926TIP3    H281194   1.710   4.496  14.649  2.1878 -0.7944 -1.3724
19927TIP3   OH281195   2.990   0.978   2.388  0.5225  0.1533 -0.5086
19927TIP3    H181196   2.994   0.987   2.483 -1.0942 -0.7651 -0.3295
19927TIP3    H281197   3.006   1.066   2.354 -1.9236  1.1015  0.7258
19928TIP3   OH281198   1.452   6.095  12.873 -0.0903  0.3272 -0.1057
19928TIP3    H181199   1.418   6.131  12.954 -1.5708 -0.2513 -0.4638
19928TIP3    H281200   1.485   6.009  12.897 -0.0560  0.3648 -0.0151
19929TIP3   OH281201   5.583   1.727  16.446 -0.1883 -0.8055 -0.0630
19929TIP3    H181202   5.632   1.660  16.495 -0.7557 -2.4624 -1.6743
19929TIP3    H281203   5.648   1.765  16.386  0.1484  0.1411  0.8945
19930TIP3   OH281204   5.606   4.687   1.465 -0.5053 -0.3068  0.9453
19930TIP3    H181205   5.673   4.752   1.443 -1.2084  0.2020  0.2772
19930TIP3    H281206   5.538   4.738   1.510 -1.4631 -0.4277 -0.3628
19931TIP3   OH281207   2.971   2.423  16.109  0.0721  0.1797  0.2515
19931TIP3    H181208   2.920   2.377  16.042 -1.9984  2.2280  0.3402
19931TIP3    H281209   3.054   2.445  16.066 -0.0617 -1.0987 -0.6868
19932TIP3   OH281210   3.842   0.648  15.898  0.8399 -0.3260  0.1524
19932TIP3    H181211   3.766   0.701  15.921  0.4358 -0.2935 -1.1924
19932TIP3    H281212   3.917   0.695  15.936  0.1537 -0.5810  1.8301
19933TIP3   OH281213   6.266   1.942  12.707 -0.6220  0.1856  0.1590
19933TIP3    H181214   6.319   1.880  12.658  1.1145  1.2033  0.7295
19933TIP3    H281215   6.183   1.945  12.659 -0.1889 -1.4201 -0.7333
19934TIP3   OH281216   6.651   1.697  14.408  0.6251  0.0280  0.4941
19934TIP3    H181217   6.721   1.635  14.384  0.5481 -0.1027  0.6059
19934TIP3    H281218   6.575   1.667  14.359  0.3981 -0.3967  1.0951
19935TIP3   OH281219   4.184   2.216   4.408 -0.2415  0.7358 -0.0850
19935TIP3    H181220   4.125   2.270   4.356 -0.6140  0.7727  0.3738
19935TIP3    H281221   4.129   2.180   4.478  0.1323  0.2460 -0.0380
19936TIP3   OH281222   3.341   4.425  16.520 -0.7865  0.1647  0.1301
19936TIP3    H181223   3.250   4.401  16.502 -0.1309 -2.6380  0.4022
19936TIP3    H281224   3.393   4.368  16.464  0.8575  0.5476  1.2308
19937TIP3   OH281225   4.237   4.183  11.471 -0.5836 -0.2171  0.0039
19937TIP3    H181226   4.318   4.224  11.441 -2.1031  2.3270 -0.7197
19937TIP3    H281227   4.226   4.107  11.414 -0.0836  0.9290 -1.6493
19938TIP3   OH281228   1.798   6.344   1.987 -0.4928 -0.2048 -0.1634
19938TIP3    H181229   1.748   6.265   1.970  1.3346 -1.7063  1.2499
19938TIP3    H281230   1.772   6.371   2.075  0.3563 -0.3832  0.1515
19939TIP3   OH281231   5.425   0.243  14.992 -0.1115  0.3770 -0.1204
19939TIP3    H181232   5.436   0.312  15.057 -0.0510 -0.6335  0.9708
19939TIP3    H281233   5.331   0.236  14.980 -0.1145  0.6894 -0.2819
19940TIP3   OH281234   5.702   4.412  16.750 -0.2196 -0.1565  0.4535
19940TIP3    H181235   5.703   4.507  16.738 -2.3514 -0.0170  1.2760
19940TIP3    H281236   5.614   4.392  16.780  0.2172 -2.4094  0.3262
19941TIP3   OH281237   3.411   0.998  10.515  0.4449 -0.1846 -0.3468
19941TIP3    H181238   3.490   0.955  10.483  0.4828 -0.9636  0.7564
19941TIP3    H281239   3.443   1.066  10.575  0.2975 -0.4467  0.0378
19942TIP3   OH281240   1.690   1.483  13.227  0.0381  0.3411 -0.2812
19942TIP3    H181241   1.624   1.414  13.226  1.1834 -0.7985 -1.8766
19942TIP3    H281242   1.669   1.537  13.151  0.5262  0.3535 -0.4103
19943TIP3   OH281243   5.068   1.440   0.750  0.1558 -0.2599  0.5242
19943TIP3    H181244   5.112   1.453   0.834  0.8138 -0.0572  0.1555
19943TIP3    H281245   4.976   1.460   0.767  0.7775  2.7398  0.4899
19944TIP3   OH281246   1.987   2.918   3.475 -1.0123  0.0002  0.4515
19944TIP3    H181247   2.047   2.987   3.504 -0.2025 -0.8704  0.8546
19944TIP3    H281248   1.977   2.933   3.381 -0.5536  0.4452  0.4677
19945TIP3   OH281249   0.643   0.434   3.571  0.0095  0.2667  0.2300
19945TIP3    H181250   0.569   0.401   3.520 -0.8352  0.2030  1.4881
19945TIP3    H281251   0.720   0.409   3.520 -0.8150  0.1036 -0.9580
19946TIP3   OH281252   0.780   2.301   3.818  0.3114  0.2050  0.7483
19946TIP3    H181253   0.780   2.328   3.726  0.6206  0.2788  0.7715
19946TIP3    H281254   0.689   2.314   3.846  0.4869  1.3702  0.8050
19947TIP3   OH281255   3.833   2.935   1.787  0.2210  0.0240  0.3715
19947TIP3    H181256   3.822   2.924   1.693  0.1809  2.3600  0.0914
19947TIP3    H281257   3.769   3.001   1.812  2.5427  1.9304  1.4541
19948TIP3   OH281258   6.393   6.768  16.336  0.6794 -0.0595 -0.2431
19948TIP3    H181259   6.402   6.857  16.302  0.1162  0.1035  0.0273
19948TIP3    H281260   6.316   6.772  16.394  1.2242 -0.4909  0.5201
19949TIP3   OH281261   1.235   3.338   0.466 -0.4631  0.6186  0.2278
19949TIP3    H181262   1.301   3.403   0.441 -1.0301  1.2234  0.2723
19949TIP3    H281263   1.176   3.334   0.390 -0.5789  0.3610  0.3323
19950TIP3   OH281264   0.571   5.218  14.292  0.3265  0.3039 -0.8890
19950TIP3    H181265   0.630   5.292  14.278  0.5027  1.1363  3.3834
19950TIP3    H281266   0.625   5.141  14.280  1.3977  0.9990 -0.5701
19951TIP3   OH281267   0.258   2.581  10.741 -0.5957  0.3155  0.5611
19951TIP3    H181268   0.314   2.630  10.681 -0.6583 -0.6323 -0.2817
19951TIP3    H281269   0.261   2.631  10.823  1.0796  0.5499  0.3766
19952TIP3   OH281270   1.380   4.988  11.256  0.1261  0.2220  0.4724
19952TIP3    H181271   1.437   4.968  11.330 -0.9399 -0.3569  1.1500
19952TIP3    H281272   1.385   5.084  11.247  0.0319  0.3286  1.4778
19953TIP3   OH281273   4.828   3.862  14.537  0.0750  0.2951 -0.1823
19953TIP3    H181274   4.833   3.819  14.452  0.8338  1.3598 -0.6967
19953TIP3    H281275   4.735   3.869  14.555 -0.0606 -1.8028  0.0559
19954CLA    CLA81276   5.686   1.931   3.637 -0.1822 -0.1196 -0.1775
19955LIG     O181277   2.931   3.420  16.581  0.1728  0.8526  0.0717
19955LIG     O281278   3.388   3.537  16.622 -0.3608 -0.2543 -0.7264
19955LIG     O381279   3.714   3.649  16.495 -0.4038  0.5110 -0.2255
19955LIG     O481280   3.538   3.676  16.727  0.0966 -0.7616 -0.6517
19955LIG      N81281   3.149   3.359  16.667  0.3483 -0.2690 -0.2803
19955LIG     C181282   3.152   3.509  16.699 -0.0880  0.5566  0.2116
19955LIG     C281283   3.202   3.344  16.531  0.4717  0.4501 -0.0597
19955LIG     C381284   3.227   3.285  16.774 -0.3516  0.1353  0.1730
19955LIG     C481285   2.999   3.322  16.669  0.1644 -0.1821  0.3504
19955LIG     C581286   3.291   3.582  16.720 -0.4788  0.2046  0.0647
19955LIG     C681287   3.226   3.202  16.479 -0.7087 -0.6905  0.6130
19955LIG     C781288   3.164   3.284  16.912  0.0971 -0.1042  0.3685
19955LIG     C881289   3.582   3.596  16.490  0.7089  1.0677 -0.1044
19955LIG     C981290   3.504   3.609  16.632 -0.2089  0.2528  0.1507
19955LIG    C1081291   2.807   3.363  16.546  0.3763  0.0312 -0.0580
19955LIG    C1181292   3.481   3.689  16.399 -0.9371 -0.1753  0.4599
19955LIG    C1281293   3.584   3.444  16.452 -0.3969  0.1265  0.2867
19955LIG    C1381294   3.373   3.631  16.327  0.0702 -0.2812  0.4150
19955LIG    C1481295   3.605   3.345  16.550  0.4245 -0.5376  0.0255
19955LIG    C1581296   3.504   3.823  16.398  0.6485 -0.5929  0.3473
19955LIG    C1681297   3.590   3.409  16.317  0.3823 -0.3138 -0.1403
19955LIG    C1781298   3.290   3.717  16.255 -0.2326 -0.3080 -0.4523
19955LIG    C1881299   3.632   3.217  16.513 -0.1264 -0.2867  0.6271
19955LIG    C1981300   3.418   3.910  16.327 -0.1565 -0.0350  0.2064
19955LIG    C2081301   3.610   3.275  16.277 -0.4526  0.2577  1.1053
19955LIG    C2181302   3.307   3.861  16.260  0.0431 -0.6882 -0.2873
19955LIG    C2281303   3.629   3.183  16.374 -0.0061  0.3235 -0.0374
19955LIG     H181304   3.096   3.533  16.788  0.2609  2.7258 -0.1322
19955LIG     H281305   3.091   3.560  16.626  3.2285  1.9582 -1.6906
19955LIG     H381306   3.300   3.390  16.531  0.9364 -0.4816  1.7406
19955LIG     H481307   3.135   3.394  16.463 -0.6340 -0.6117  0.2231
19955LIG     H581308   3.326   3.328  16.780 -0.1365 -0.5374  1.7646
19955LIG     H681309   3.245   3.181  16.753 -0.7267  0.0227  0.3976
19955LIG     H781310   2.996   3.226  16.620  0.9535  0.2238 -0.5054
19955LIG     H881311   2.954   3.325  16.767 -0.2783 -0.2221  0.1508
19955LIG     H981312   3.273   3.691  16.707  0.5650  0.2831 -0.7687
19955LIG    H1081313   3.332   3.581  16.822  1.7574 -1.9944 -0.8322
19955LIG    H1181314   3.138   3.137  16.502 -0.9283 -1.0550 -1.1766
19955LIG    H1281315   3.318   3.156  16.519  0.1399 -0.7226 -1.3156
19955LIG    H1381316   3.239   3.205  16.369  1.6590  0.1017  0.9019
19955LIG    H1481317   3.234   3.278  16.998 -0.0061 -1.2448  0.3724
19955LIG    H1581318   3.091   3.201  16.922  0.1945 -0.0600  1.5629
19955LIG    H1681319   3.108   3.378  16.936 -2.5257 -1.5947  0.2682
19955LIG    H1781320   2.744   3.336  16.634  1.5594 -4.3326 -0.4815
19955LIG    H1881321   2.835   3.273  16.488  2.8258  0.0438  1.0396
19955LIG    H1981322   2.767   3.433  16.469 -2.1576 -1.7814 -0.4655
19955LIG    H2081323   3.754   3.632  16.409  0.5398 -1.7418  0.5980
19955LIG    H2181324   3.340   3.529  16.337  0.6473 -0.5834 -0.7561
19955LIG    H2281325   3.604   3.383  16.651  0.8745  1.3843 -0.6619
19955LIG    H2381326   3.582   3.860  16.463  0.9634 -2.0521  0.8005
19955LIG    H2481327   3.580   3.486  16.242  0.7988  0.1212  0.2427
19955LIG    H2581328   3.212   3.676  16.193  1.1743 -1.5947 -1.4057
19955LIG    H2681329   3.672   3.141  16.579  1.0586 -1.0940 -0.9925
19955LIG    H2781330   3.428   4.017  16.338 -0.4741  0.1570 -1.2682
19955LIG    H2881331   3.610   3.254  16.171  1.9793 -0.1279  1.1498
19955LIG    H2981332   3.248   3.931  16.202 -2.3040 -0.6662  2.0355
19955LIG    H3081333   3.654   3.081  16.348  0.9328  0.6878 -0.5652
   6.78697   6.78697  17.23950
